 Gaussian 16, Revision A.03,

 -----------------------------------------------------------
 # opt freq B3LYP/6-31G(d) empiricaldispersion=gd3bj scf=xqc
 -----------------------------------------------------------

 -------------------------------
 CID_123720672_JID_3587_neutraal
 -------------------------------
 Symbolic Z-matrix:
 Charge =  0 Multiplicity = 1

 SCF Done:  E(RB3LYP) =  -544.382150134     A.U. after   12 cycles
 SCF Done:  E(RB3LYP) =  -544.394251280     A.U. after   11 cycles
 SCF Done:  E(RB3LYP) =  -544.395366983     A.U. after   10 cycles
 SCF Done:  E(RB3LYP) =  -544.395531529     A.U. after   10 cycles
 SCF Done:  E(RB3LYP) =  -544.395572176     A.U. after    9 cycles
 SCF Done:  E(RB3LYP) =  -544.395575283     A.U. after    9 cycles
 SCF Done:  E(RB3LYP) =  -544.395592854     A.U. after    8 cycles
 SCF Done:  E(RB3LYP) =  -544.395600682     A.U. after    8 cycles
 SCF Done:  E(RB3LYP) =  -544.395603913     A.U. after    8 cycles
 SCF Done:  E(RB3LYP) =  -544.395605376     A.U. after    8 cycles
 SCF Done:  E(RB3LYP) =  -544.395614109     A.U. after    9 cycles
 SCF Done:  E(RB3LYP) =  -544.395616675     A.U. after    8 cycles
 SCF Done:  E(RB3LYP) =  -544.395618003     A.U. after    8 cycles
 SCF Done:  E(RB3LYP) =  -544.395618684     A.U. after    7 cycles
 SCF Done:  E(RB3LYP) =  -544.395619315     A.U. after    8 cycles
 SCF Done:  E(RB3LYP) =  -544.395619141     A.U. after    7 cycles
 Optimization completed.
    -- Stationary point found.
 Normal termination of Gaussian 16 at Sun Dec 13 12:25:21 2020.

 --------------------------------------------------------------------
 #N Geom=AllCheck Guess=TCheck SCRF=Check GenChk RB3LYP/6-31G(d) Freq
 --------------------------------------------------------------------

 Structure from the checkpoint file:  "JID_3587.chk"
 -------------------------------
 CID_123720672_JID_3587_neutraal
 -------------------------------
 Charge =  0 Multiplicity = 1

 SCF Done:  E(RB3LYP) =  -544.395619141     A.U. after    1 cycles

  Exact polarizability: 151.183   0.976 122.972   0.112   0.337 119.888
 Approx polarizability: 178.301   2.373 177.571  -1.212   0.980 174.905

                      1                      2                      3
                      A                      A                      A
 Frequencies --      9.6918                41.7260                56.4305
 Red. masses --      3.2124                 2.7214                 3.0272
 Frc consts  --      0.0002                 0.0028                 0.0057
 IR Inten    --      0.1793                 0.0474                 0.1273

                      4                      5                      6
                      A                      A                      A
 Frequencies --     70.0366               115.0832               123.6208
 Red. masses --      3.0111                 2.6064                 2.1150
 Frc consts  --      0.0087                 0.0203                 0.0190
 IR Inten    --      0.0329                 2.7564                 0.2247

                      7                      8                      9
                      A                      A                      A
 Frequencies --    157.7357               203.8406               219.4523
 Red. masses --      2.2531                 1.4202                 1.3184
 Frc consts  --      0.0330                 0.0348                 0.0374
 IR Inten    --      0.9960                 0.9609                 0.4568

                     10                     11                     12
                      A                      A                      A
 Frequencies --    224.2355               232.3038               242.4342
 Red. masses --      1.9225                 1.2159                 1.1686
 Frc consts  --      0.0570                 0.0387                 0.0405
 IR Inten    --      2.0557                16.0540                16.7056

                     13                     14                     15
                      A                      A                      A
 Frequencies --    258.0918               275.9309               291.0070
 Red. masses --      1.6728                 1.7002                 1.2128
 Frc consts  --      0.0657                 0.0763                 0.0605
 IR Inten    --      1.2216                 0.2495                11.0737

                     16                     17                     18
                      A                      A                      A
 Frequencies --    304.5541               319.2407               338.3321
 Red. masses --      1.6265                 1.2970                 2.4962
 Frc consts  --      0.0889                 0.0779                 0.1684
 IR Inten    --      0.1978                 5.1767                 1.1924

                     19                     20                     21
                      A                      A                      A
 Frequencies --    359.7750               368.4384               394.8394
 Red. masses --      2.6229                 2.3900                 2.3960
 Frc consts  --      0.2000                 0.1912                 0.2201
 IR Inten    --      5.5664                 1.4437                 2.6599

                     22                     23                     24
                      A                      A                      A
 Frequencies --    407.0162               421.0224               481.6836
 Red. masses --      2.1874                 2.0902                 2.4568
 Frc consts  --      0.2135                 0.2183                 0.3358
 IR Inten    --      1.0701                 2.3374                 3.6013

                     25                     26                     27
                      A                      A                      A
 Frequencies --    498.2345               553.9018               591.8549
 Red. masses --      2.5541                 2.9278                 2.6097
 Frc consts  --      0.3736                 0.5292                 0.5386
 IR Inten    --      6.3191                 2.1734                11.2975

                     28                     29                     30
                      A                      A                      A
 Frequencies --    684.7148               745.3899               781.9127
 Red. masses --      1.8729                 1.5710                 1.8826
 Frc consts  --      0.5174                 0.5143                 0.6782
 IR Inten    --     58.7407                11.2488                23.6033

                     31                     32                     33
                      A                      A                      A
 Frequencies --    835.4561               865.4321               890.1907
 Red. masses --      1.9180                 1.5784                 2.0006
 Frc consts  --      0.7888                 0.6965                 0.9340
 IR Inten    --      2.9527                 1.4612                 9.5604

                     34                     35                     36
                      A                      A                      A
 Frequencies --    911.8795               924.8571               943.2506
 Red. masses --      1.4700                 1.7474                 1.8384
 Frc consts  --      0.7202                 0.8806                 0.9637
 IR Inten    --      0.5626                69.3504               100.6954

                     37                     38                     39
                      A                      A                      A
 Frequencies --    948.9466               950.3950               973.4750
 Red. masses --      1.6965                 1.6912                 1.2091
 Frc consts  --      0.9001                 0.9000                 0.6751
 IR Inten    --      0.3548                 0.5204                 0.8485

                     40                     41                     42
                      A                      A                      A
 Frequencies --    983.4155              1027.4918              1031.8497
 Red. masses --      1.6176                 1.8938                 1.4589
 Frc consts  --      0.9217                 1.1780                 0.9152
 IR Inten    --     26.3064                15.0855                 1.5364

                     43                     44                     45
                      A                      A                      A
 Frequencies --   1043.5005              1051.3358              1085.7958
 Red. masses --      1.3784                 1.3908                 2.5976
 Frc consts  --      0.8843                 0.9057                 1.8043
 IR Inten    --      0.4228                 0.4085                 5.1812

                     46                     47                     48
                      A                      A                      A
 Frequencies --   1099.0892              1126.0397              1142.6266
 Red. masses --      1.9191                 2.0418                 2.5936
 Frc consts  --      1.3659                 1.5253                 1.9951
 IR Inten    --     46.2738                88.2416                35.8819

                     49                     50                     51
                      A                      A                      A
 Frequencies --   1169.6070              1173.2096              1190.1149
 Red. masses --      1.8907                 1.9919                 1.9046
 Frc consts  --      1.5239                 1.6153                 1.5894
 IR Inten    --      0.6880                 4.4038                 8.6436

                     52                     53                     54
                      A                      A                      A
 Frequencies --   1200.8443              1242.1856              1270.2989
 Red. masses --      1.9731                 1.4047                 2.1995
 Frc consts  --      1.6764                 1.2771                 2.0911
 IR Inten    --      0.3497                 1.0213                 1.9322

                     55                     56                     57
                      A                      A                      A
 Frequencies --   1280.8965              1295.3219              1305.5373
 Red. masses --      2.4301                 1.3325                 1.9013
 Frc consts  --      2.3491                 1.3172                 1.9093
 IR Inten    --      3.8773                 1.1791                 1.7125

                     58                     59                     60
                      A                      A                      A
 Frequencies --   1327.1388              1331.9787              1376.6302
 Red. masses --      1.3290                 1.2829                 1.3124
 Frc consts  --      1.3791                 1.3410                 1.4654
 IR Inten    --      0.8214                 3.5208                 3.0791

                     61                     62                     63
                      A                      A                      A
 Frequencies --   1380.7682              1400.2921              1417.8853
 Red. masses --      1.2302                 1.3558                 1.4325
 Frc consts  --      1.3819                 1.5663                 1.6968
 IR Inten    --      5.5761                13.6814                 0.5448

                     64                     65                     66
                      A                      A                      A
 Frequencies --   1423.4914              1424.5501              1428.8119
 Red. masses --      1.2472                 1.3347                 1.2596
 Frc consts  --      1.4890                 1.5958                 1.5151
 IR Inten    --      6.7638                 9.8482                 3.2558

                     67                     68                     69
                      A                      A                      A
 Frequencies --   1438.8560              1442.3404              1446.1168
 Red. masses --      1.2679                 1.2351                 1.2591
 Frc consts  --      1.5466                 1.5138                 1.5514
 IR Inten    --     11.4075                 3.7029                 2.3303

                     70                     71                     72
                      A                      A                      A
 Frequencies --   1459.7865              1504.7719              1510.5764
 Red. masses --      1.2299                 1.1306                 1.0704
 Frc consts  --      1.5442                 1.5084                 1.4391
 IR Inten    --      9.3554                29.6656                 0.6762

                     73                     74                     75
                      A                      A                      A
 Frequencies --   1517.2292              1519.0076              1521.4860
 Red. masses --      1.0746                 1.1042                 1.0527
 Frc consts  --      1.4574                 1.5012                 1.4358
 IR Inten    --      3.1958                19.0414                 0.4294

                     76                     77                     78
                      A                      A                      A
 Frequencies --   1522.2291              1526.4015              1532.6292
 Red. masses --      1.0659                 1.0601                 1.0610
 Frc consts  --      1.4552                 1.4552                 1.4684
 IR Inten    --      3.8382                 2.9330                 6.0576

                     79                     80                     81
                      A                      A                      A
 Frequencies --   1534.4704              1534.6238              1542.0887
 Red. masses --      1.0473                 1.0492                 1.0747
 Frc consts  --      1.4530                 1.4559                 1.5057
 IR Inten    --      1.9992                 1.5363                 5.0724

                     82                     83                     84
                      A                      A                      A
 Frequencies --   1545.1896              1546.1110              1553.8353
 Red. masses --      1.0629                 1.0691                 1.0733
 Frc consts  --      1.4952                 1.5057                 1.5268
 IR Inten    --      6.1091                 9.3731                31.9885

                     85                     86                     87
                      A                      A                      A
 Frequencies --   1708.7154              2945.7168              3010.4788
 Red. masses --      1.0824                 1.0711                 1.0620
 Frc consts  --      1.8620                 5.4759                 5.6710
 IR Inten    --     25.4594                50.8297                34.6124

                     88                     89                     90
                      A                      A                      A
 Frequencies --   3037.7109              3038.6262              3040.7032
 Red. masses --      1.0655                 1.0380                 1.0383
 Frc consts  --      5.7929                 5.6467                 5.6560
 IR Inten    --     13.2859                38.9223                23.9296

                     91                     92                     93
                      A                      A                      A
 Frequencies --   3042.4206              3043.6421              3045.4394
 Red. masses --      1.0643                 1.0498                 1.0551
 Frc consts  --      5.8042                 5.7299                 5.7657
 IR Inten    --     18.9967                11.8029                18.1133

                     94                     95                     96
                      A                      A                      A
 Frequencies --   3046.6025              3050.5756              3055.9798
 Red. masses --      1.0506                 1.0632                 1.0907
 Frc consts  --      5.7454                 5.8294                 6.0016
 IR Inten    --     14.3512                 7.5309                62.6657

                     97                     98                     99
                      A                      A                      A
 Frequencies --   3062.5362              3075.1423              3097.7085
 Red. masses --      1.0891                 1.0994                 1.1015
 Frc consts  --      6.0182                 6.1254                 6.2273
 IR Inten    --     40.8187                47.9231                13.0207

                    100                    101                    102
                      A                      A                      A
 Frequencies --   3099.8224              3103.5160              3110.3318
 Red. masses --      1.0988                 1.1008                 1.1016
 Frc consts  --      6.2210                 6.2467                 6.2791
 IR Inten    --     30.2223                42.7232                43.3664

                    103                    104                    105
                      A                      A                      A
 Frequencies --   3110.6694              3115.6698              3117.3150
 Red. masses --      1.1015                 1.1013                 1.1019
 Frc consts  --      6.2798                 6.2990                 6.3088
 IR Inten    --     70.7822                49.2531                62.3952

                    106                    107                    108
                      A                      A                      A
 Frequencies --   3120.5775              3123.3559              3152.4187
 Red. masses --      1.1015                 1.0998                 1.0982
 Frc consts  --      6.3197                 6.3211                 6.4300
 IR Inten    --     27.1111                32.2263                15.7126

                    109                    110                    111
                      A                      A                      A
 Frequencies --   3455.6219              3527.5359              3531.5120
 Red. masses --      1.0507                 1.0730                 1.0898
 Frc consts  --      7.3924                 7.8665                 8.0079
 IR Inten    --      0.9927                 0.3602                 0.3434

 - Thermochemistry -
 -------------------
 Temperature   298.150 Kelvin.  Pressure   1.00000 Atm.
 Atom     1 has atomic number  6 and mass  12.00000

 Molecular mass:   186.20960 amu.
 Principal axes and moments of inertia in atomic units:
                           1         2         3
     Eigenvalues --  1316.050545713.625915798.56376
           X            0.99998  -0.00107   0.00650
           Y            0.00105   0.99999   0.00388
           Z           -0.00651  -0.00387   0.99997
 This molecule is an asymmetric top.
 Rotational symmetry number  1.
 Warning -- assumption of classical behavior for rotation
           may cause significant error
 Rotational temperatures (Kelvin)      0.06581     0.01516     0.01494
 Rotational constants (GHZ):           1.37133     0.31587     0.31124
 Zero-point vibrational energy     964879.3 (Joules/Mol)
                                  230.61168 (Kcal/Mol)
 Warning -- explicit consideration of  27 degrees of freedom as
           vibrations may cause significant error
 Vibrational temperatures:     13.94    60.03    81.19   100.77   165.58
          (Kelvin)            177.86   226.95   293.28   315.74   322.62
                              334.23   348.81   371.34   397.00   418.69
                              438.19   459.32   486.78   517.64   530.10
                              568.09   585.61   605.76   693.04   716.85
                              796.94   851.55   985.15  1072.45  1125.00
                             1202.04  1245.16  1280.79  1311.99  1330.66
                             1357.13  1365.32  1367.41  1400.61  1414.92
                             1478.33  1484.60  1501.36  1512.64  1562.22
                             1581.34  1620.12  1643.98  1682.80  1687.99
                             1712.31  1727.75  1787.23  1827.68  1842.92
                             1863.68  1878.38  1909.46  1916.42  1980.66
                             1986.62  2014.71  2040.02  2048.09  2049.61
                             2055.74  2070.19  2075.21  2080.64  2100.31
                             2165.03  2173.38  2182.95  2185.51  2189.08
                             2190.15  2196.15  2205.11  2207.76  2207.98
                             2218.72  2223.18  2224.51  2235.62  2458.46
                             4238.23  4331.41  4370.59  4371.91  4374.89
                             4377.36  4379.12  4381.71  4383.38  4389.10
                             4396.87  4406.31  4424.44  4456.91  4459.95
                             4465.27  4475.07  4475.56  4482.75  4485.12
                             4489.82  4493.81  4535.63  4971.87  5075.34
                             5081.06

 Zero-point correction=                           0.367503 (Hartree/Particle)
 Thermal correction to Energy=                    0.384641
 Thermal correction to Enthalpy=                  0.385585
 Thermal correction to Gibbs Free Energy=         0.322152
 Sum of electronic and zero-point Energies=           -544.028116
 Sum of electronic and thermal Energies=              -544.010978
 Sum of electronic and thermal Enthalpies=            -544.010034
 Sum of electronic and thermal Free Energies=         -544.073467

                     E (Thermal)             CV                S
                      KCal/Mol        Cal/Mol-Kelvin    Cal/Mol-Kelvin
 Total                  241.366             64.319            133.505
 Electronic               0.000              0.000              0.000
 Translational            0.889              2.981             41.571
 Rotational               0.889              2.981             32.145
 Vibrational            239.588             58.358             59.790
 Vibration     1          0.593              1.987              8.073
 Vibration     2          0.594              1.981              5.175
 Vibration     3          0.596              1.975              4.578
 Vibration     4          0.598              1.968              4.152
 Vibration     5          0.608              1.937              3.181
 Vibration     6          0.610              1.929              3.043
 Vibration     7          0.621              1.894              2.577
 Vibration     8          0.640              1.834              2.098
 Vibration     9          0.647              1.811              1.964
 Vibration    10          0.649              1.804              1.925
 Vibration    11          0.653              1.792              1.861
 Vibration    12          0.659              1.775              1.785
 Vibration    13          0.667              1.749              1.675
 Vibration    14          0.678              1.718              1.559
 Vibration    15          0.687              1.690              1.468
 Vibration    16          0.695              1.665              1.392
 Vibration    17          0.705              1.637              1.314
 Vibration    18          0.719              1.599              1.220
 Vibration    19          0.734              1.555              1.123
 Vibration    20          0.741              1.537              1.086
 Vibration    21          0.762              1.481              0.982
 Vibration    22          0.772              1.455              0.937
 Vibration    23          0.784              1.425              0.889
 Vibration    24          0.838              1.291              0.706
 Vibration    25          0.854              1.254              0.663
 Vibration    26          0.909              1.131              0.536
 Vibration    27          0.949              1.049              0.464

                           ! Non-Optimized Parameters !
 Normal termination of Gaussian 16 at Sun Dec 13 12:35:28 2020.

 ----------------------------------------------------------------------
 # B3LYP/6-311++G(d,p) empiricaldispersion=gd3bj scf=xqc pop=npa geom=c
 heck
 ----------------------------------------------------------------------

 ---------------------------------------
 CID_123720672_JID_3587_Energie_neutraal
 ---------------------------------------
 Structure from the checkpoint file:  "JID_3587.chk"
 Charge =  0 Multiplicity = 1

 SCF Done:  E(RB3LYP) =  -544.560735278     A.U. after   13 cycles
 Normal termination of Gaussian 16 at Sun Dec 13 12:39:54 2020.

 ----------------------------------------------------------------------
 # B3LYP/6-311++G(d,p) empiricaldispersion=gd3bj scf=xqc pop=npa geom=c
 heck
 ----------------------------------------------------------------------

 -------------------------------------
 CID_123720672_JID_3587_Energie_kation
 -------------------------------------
 Structure from the checkpoint file:  "JID_3587.chk"
 Charge =  1 Multiplicity = 2

 SCF Done:  E(UB3LYP) =  -544.265627252     A.U. after   19 cycles
 Normal termination of Gaussian 16 at Sun Dec 13 12:48:19 2020.
 Gaussian 16:  ES64L-G16RevA.03 25-Dec-2016

 ----------------------------------------------------------------------
 # B3LYP/6-311++G(d,p) empiricaldispersion=gd3bj scf=xqc pop=npa geom=c
 heck
 ----------------------------------------------------------------------

 ------------------------------------
 CID_123720672_JID_3587_Energie_anion
 ------------------------------------
 Structure from the checkpoint file:  "JID_3587.chk"
 Charge = -1 Multiplicity = 2

                         Standard orientation:
 ---------------------------------------------------------------------
 Center     Atomic      Atomic             Coordinates (Angstroms)
 Number     Number       Type             X           Y           Z
 ---------------------------------------------------------------------
      1          6           0        4.373269   -1.394482    0.448254
      2          6           0        3.839447   -0.763777   -0.841217
      3          6           0        2.362657   -0.347921   -0.762725
      4          6           0        2.010276    0.674588    0.334080
      5          6           0        2.852682    1.951206    0.221575
      6          6           0        0.517811    1.037142    0.291515
      7          7           0       -0.340347   -0.116701    0.546550
      8          6           0       -1.763744    0.150416    0.809403
      9          6           0       -2.708999   -0.075481   -0.411067
     10          6           0       -2.792618   -1.567964   -0.781993
     11          6           0       -4.116004    0.430777   -0.050408
     12          6           0       -2.191916    0.714459   -1.624811
     13          7           0       -2.258631   -0.601640    1.968280
     14          1           0        4.371959   -0.680582    1.279245
     15          1           0        5.401902   -1.748756    0.318354
     16          1           0        3.758866   -2.251776    0.750053
     17          1           0        4.458126    0.101352   -1.110788
     18          1           0        3.951276   -1.480619   -1.665293
     19          1           0        2.056039    0.064502   -1.736214
     20          1           0        1.766415   -1.257048   -0.604378
     21          1           0        2.194829    0.212393    1.312662
     22          1           0        2.727302    2.419743   -0.763168
     23          1           0        2.555456    2.684896    0.979976
     24          1           0        3.919347    1.749015    0.359221
     25          1           0        0.314578    1.772301    1.080430
     26          1           0        0.307715    1.545993   -0.668107
     27          1           0       -0.240775   -0.800429   -0.198068
     28          1           0       -1.840817    1.211171    1.079176
     29          1           0       -3.244536   -2.158337    0.021780
     30          1           0       -3.415346   -1.699472   -1.674048
     31          1           0       -1.808699   -1.996968   -1.012398
     32          1           0       -4.097361    1.505605    0.168769
     33          1           0       -4.808891    0.272575   -0.885890
     34          1           0       -4.498017   -0.085276    0.833030
     35          1           0       -2.082092    1.779127   -1.387480
     36          1           0       -1.221063    0.346252   -1.973345
     37          1           0       -2.896916    0.629619   -2.459804
     38          1           0       -2.080241   -1.592388    1.801612
     39          1           0       -1.653385   -0.368292    2.755221
 ---------------------------------------------------------------------

 SCF Done:  E(UB3LYP) =  -544.545856778     A.U. after   28 cycles

 The electronic state is 2-A.
 Alpha  occ. eigenvalues --  -14.19501 -14.19353 -10.12492 -10.09163 -10.08813
 Alpha  occ. eigenvalues --  -10.07228 -10.06665 -10.06387 -10.06332 -10.06162
 Alpha  occ. eigenvalues --  -10.06115 -10.06074 -10.05763  -0.83050  -0.76345
 Alpha  occ. eigenvalues --   -0.71436  -0.70642  -0.65900  -0.59349  -0.58813
 Alpha  occ. eigenvalues --   -0.58546  -0.57702  -0.53447  -0.50718  -0.45376
 Alpha  occ. eigenvalues --   -0.44817  -0.40498  -0.38188  -0.37947  -0.37072
 Alpha  occ. eigenvalues --   -0.36326  -0.34590  -0.33280  -0.32942  -0.32411
 Alpha  occ. eigenvalues --   -0.31044  -0.30537  -0.29981  -0.28750  -0.28239
 Alpha  occ. eigenvalues --   -0.27677  -0.27049  -0.26864  -0.25815  -0.25249
 Alpha  occ. eigenvalues --   -0.23954  -0.23308  -0.22908  -0.22388  -0.22062
 Alpha  occ. eigenvalues --   -0.21322  -0.16384  -0.12524   0.04337
 Alpha virt. eigenvalues --    0.06211   0.06820   0.07195   0.07947   0.08379
 Alpha virt. eigenvalues --    0.08816   0.09496   0.09610   0.10011   0.10597
 Alpha virt. eigenvalues --    0.10861   0.11335   0.11639   0.12523   0.12845

  Beta  occ. eigenvalues --  -14.19484 -14.19340 -10.12487 -10.09150 -10.08811
  Beta  occ. eigenvalues --  -10.07223 -10.06646 -10.06370 -10.06296 -10.06136
  Beta  occ. eigenvalues --  -10.06092 -10.06048 -10.05747  -0.83030  -0.76321
  Beta  occ. eigenvalues --   -0.71413  -0.70616  -0.65866  -0.59292  -0.58774
  Beta  occ. eigenvalues --   -0.58496  -0.57662  -0.53402  -0.50658  -0.45326
  Beta  occ. eigenvalues --   -0.44771  -0.40466  -0.38163  -0.37917  -0.37045
  Beta  occ. eigenvalues --   -0.36293  -0.34554  -0.33240  -0.32915  -0.32381
  Beta  occ. eigenvalues --   -0.31012  -0.30508  -0.29949  -0.28718  -0.28205
  Beta  occ. eigenvalues --   -0.27648  -0.27018  -0.26831  -0.25788  -0.25212
  Beta  occ. eigenvalues --   -0.23928  -0.23280  -0.22879  -0.22355  -0.22026
  Beta  occ. eigenvalues --   -0.21293  -0.16367  -0.12480
  Beta virt. eigenvalues --    0.06298   0.06923   0.07477   0.07556   0.08407
  Beta virt. eigenvalues --    0.08829   0.09060   0.09848   0.09983   0.10276
  Beta virt. eigenvalues --    0.10991   0.11160   0.11642   0.11875   0.12762

 Mulliken charges and spin densities:
               1          2
     1  C    0.420879  -1.025990
     2  C    0.155461  -0.432510
     3  C   -0.288063   0.032078
     4  C   -0.338273   1.063650
     5  C    0.420700  -1.165671
     6  C   -0.548950  -0.498615
     7  N    0.145628   0.059842
     8  C    0.971091  -1.697876
     9  C   -1.780957   2.465623
    10  C    0.881037  -1.416516
    11  C   -0.327894  -0.218236
    12  C    0.853368  -1.485148
    13  N   -0.306108   0.057805
    14  H   -0.142032   0.289367
    15  H   -0.282719   0.422065
    16  H   -0.073126   0.217001
    17  H    0.050625   0.082692
    18  H   -0.380154   0.539606
    19  H   -0.121344   0.262912
    20  H    0.160192  -0.062593
    21  H    0.186299   0.002876
    22  H   -0.191335   0.352232
    23  H   -0.111834   0.233468
    24  H   -0.056083   0.205405
    25  H   -0.101140   0.234979
    26  H    0.383276  -0.265101
    27  H    0.190624   0.010993
    28  H    0.043635   0.130570
    29  H   -0.000683   0.126466
    30  H   -0.267023   0.430884
    31  H   -0.428940   0.562264
    32  H   -0.003539   0.125972
    33  H   -0.100190   0.240183
    34  H    0.115583   0.063321
    35  H   -0.164341   0.303324
    36  H   -0.172484   0.333686
    37  H   -0.039714   0.196714
    38  H    0.083866   0.155377
    39  H    0.164661   0.066901
 Sum of Mulliken charges =  -1.00000   1.00000

 Dipole moment (field-independent basis, Debye):
    X=             -1.8387    Y=              1.8582    Z=              2.1414  Tot=              3.3792
 Quadrupole moment (field-independent basis, Debye-Ang):
   XX=           -178.3329   YY=           -131.2012   ZZ=           -127.0050
   XY=              1.9638   XZ=             -1.7488   YZ=             -3.6251

 Summary of Natural Population Analysis:

                                       Natural Population
                Natural  -----------------------------------------------
    Atom  No    Charge         Core      Valence    Rydberg      Total
 -----------------------------------------------------------------------
      C    1   -0.28591      0.99967     2.28166    0.00458     3.28591
      C    2   -0.18888      0.99964     2.18145    0.00779     3.18888
      C    3   -0.18959      0.99961     2.18016    0.00982     3.18959
      C    4   -0.11679      0.99960     2.10740    0.00979     3.11679
      C    5   -0.28760      0.99965     2.28190    0.00606     3.28760
      C    6   -0.07749      0.99959     2.06853    0.00938     3.07749
      N    7   -0.35452      0.99972     2.84409    0.01071     3.85452
      C    8    0.08613      0.99955     1.89927    0.01505     2.91387
      C    9   -0.05186      0.99956     2.03968    0.01262     3.05186
      C   10   -0.29094      0.99962     2.28338    0.00794     3.29094
      C   11   -0.28405      0.99962     2.27830    0.00613     3.28405
      C   12   -0.28588      0.99962     2.27840    0.00785     3.28588
      N   13   -0.42217      0.99977     2.91294    0.00947     3.92217
      H   14    0.09508      0.00000     0.40359    0.00133     0.40492
      H   15    0.09805      0.00000     0.40079    0.00116     0.40195
      H   16    0.09651      0.00000     0.40212    0.00137     0.40349
      H   17    0.09292      0.00000     0.40583    0.00125     0.40708
      H   18    0.09644      0.00000     0.40227    0.00129     0.40356
      H   19    0.09607      0.00000     0.40240    0.00153     0.40393
      H   20    0.09611      0.00000     0.40229    0.00160     0.40389
      H   21    0.09591      0.00000     0.40177    0.00233     0.40409
      H   22    0.09723      0.00000     0.40175    0.00102     0.40277
      H   23    0.09855      0.00000     0.40046    0.00100     0.40145
      H   24    0.10083      0.00000     0.39827    0.00090     0.39917
      H   25    0.09073      0.00000     0.40768    0.00159     0.40927
      H   26    0.07874      0.00000     0.41953    0.00173     0.42126
      H   27    0.17639      0.00000     0.31867    0.00494     0.32361
      H   28    0.08672      0.00000     0.41148    0.00180     0.41328
      H   29    0.10056      0.00000     0.39828    0.00115     0.39944
      H   30    0.10334      0.00000     0.39556    0.00110     0.39666
      H   31    0.09864      0.00000     0.39990    0.00146     0.40136
      H   32    0.09703      0.00000     0.40205    0.00092     0.40297
      H   33    0.09627      0.00000     0.40278    0.00095     0.40373
      H   34    0.10961      0.00000     0.38913    0.00126     0.39039
      H   35    0.09953      0.00000     0.39941    0.00107     0.40047
      H   36    0.10101      0.00000     0.39743    0.00155     0.39899
      H   37    0.10067      0.00000     0.39840    0.00093     0.39933
      H   38    0.17189      0.00000     0.32599    0.00211     0.32811
      H   39    0.17474      0.00000     0.32347    0.00179     0.32526
 =======================================================================
   * Total *    0.00000     12.99521    39.84848    0.15631    53.00000

 Normal termination of Gaussian 16 at Sun Dec 13 13:00:38 2020.
