 Gaussian 16, Revision A.03,

 -----------------------------------------------------------
 # opt freq B3LYP/6-31G(d) empiricaldispersion=gd3bj scf=xqc
 -----------------------------------------------------------

 ------------------------------
 CID_82653161_JID_2750_neutraal
 ------------------------------
 Symbolic Z-matrix:
 Charge =  0 Multiplicity = 1

 SCF Done:  E(RB3LYP) =  -607.951727709     A.U. after   15 cycles
 SCF Done:  E(RB3LYP) =  -607.956050444     A.U. after   12 cycles
 SCF Done:  E(RB3LYP) =  -607.957011095     A.U. after   12 cycles
 SCF Done:  E(RB3LYP) =  -607.957942337     A.U. after   13 cycles
 SCF Done:  E(RB3LYP) =  -607.958782881     A.U. after   12 cycles
 SCF Done:  E(RB3LYP) =  -607.959250881     A.U. after   12 cycles
 SCF Done:  E(RB3LYP) =  -607.959398364     A.U. after   11 cycles
 SCF Done:  E(RB3LYP) =  -607.959430810     A.U. after   10 cycles
 SCF Done:  E(RB3LYP) =  -607.959448445     A.U. after   10 cycles
 SCF Done:  E(RB3LYP) =  -607.959458107     A.U. after    9 cycles
 SCF Done:  E(RB3LYP) =  -607.959549364     A.U. after   10 cycles
 SCF Done:  E(RB3LYP) =  -607.959550726     A.U. after    9 cycles
 SCF Done:  E(RB3LYP) =  -607.959551093     A.U. after    8 cycles
 SCF Done:  E(RB3LYP) =  -607.959551221     A.U. after    8 cycles
 SCF Done:  E(RB3LYP) =  -607.959551267     A.U. after    7 cycles
 SCF Done:  E(RB3LYP) =  -607.959551280     A.U. after    7 cycles
 Optimization completed.
    -- Stationary point found.
 Normal termination of Gaussian 16 at Wed Dec  9 17:35:45 2020.

 --------------------------------------------------------------------
 #N Geom=AllCheck Guess=TCheck SCRF=Check GenChk RB3LYP/6-31G(d) Freq
 --------------------------------------------------------------------

 Structure from the checkpoint file:  "JID_2750.chk"
 ------------------------------
 CID_82653161_JID_2750_neutraal
 ------------------------------
 Charge =  0 Multiplicity = 1

 SCF Done:  E(RB3LYP) =  -607.959551280     A.U. after    1 cycles

  Exact polarizability:  98.598  -8.020 107.591  -4.406  -3.719  63.554
 Approx polarizability: 145.626 -11.597 158.057 -10.173  -9.131  99.335

                      1                      2                      3
                      A                      A                      A
 Frequencies --     36.3041                65.7190                77.5174
 Red. masses --      6.5256                 3.8411                 1.1192
 Frc consts  --      0.0051                 0.0098                 0.0040
 IR Inten    --      0.8486                 4.4320                 0.0668

                      4                      5                      6
                      A                      A                      A
 Frequencies --     83.5393                96.4193               132.2222
 Red. masses --      3.8343                 4.8351                 3.5043
 Frc consts  --      0.0158                 0.0265                 0.0361
 IR Inten    --      3.5389                 1.5071                 3.0497

                      7                      8                      9
                      A                      A                      A
 Frequencies --    180.5747               201.8499               236.9179
 Red. masses --      1.2972                 2.2997                 3.7784
 Frc consts  --      0.0249                 0.0552                 0.1250
 IR Inten    --      0.2768                 2.5483                 2.6369

                     10                     11                     12
                      A                      A                      A
 Frequencies --    283.7393               315.8077               421.2150
 Red. masses --      3.6587                 4.9804                 2.4107
 Frc consts  --      0.1735                 0.2927                 0.2520
 IR Inten    --      1.2664                 1.3490                 4.1858

                     13                     14                     15
                      A                      A                      A
 Frequencies --    428.3081               486.4897               524.8837
 Red. masses --      2.6330                 1.9683                 4.0415
 Frc consts  --      0.2846                 0.2745                 0.6560
 IR Inten    --     28.2690                37.1921                 1.5083

                     16                     17                     18
                      A                      A                      A
 Frequencies --    540.3258               595.3570               634.0528
 Red. masses --      3.4509                 4.2434                 2.0642
 Frc consts  --      0.5936                 0.8862                 0.4889
 IR Inten    --     20.0648                28.0697                64.1505

                     19                     20                     21
                      A                      A                      A
 Frequencies --    672.8674               713.9189               748.5309
 Red. masses --      2.8881                 2.2780                 5.7987
 Frc consts  --      0.7704                 0.6841                 1.9143
 IR Inten    --     10.4856                90.6695                 0.9508

                     22                     23                     24
                      A                      A                      A
 Frequencies --    781.8709               830.3753               895.2656
 Red. masses --      5.9002                 4.5969                 5.5270
 Frc consts  --      2.1251                 1.8675                 2.6100
 IR Inten    --     11.7368                 3.6681                 7.6072

                     25                     26                     27
                      A                      A                      A
 Frequencies --    937.3332              1016.3284              1025.9234
 Red. masses --      2.3164                 1.6118                 4.2508
 Frc consts  --      1.1991                 0.9809                 2.6360
 IR Inten    --      7.6288                 1.0790                51.6976

                     28                     29                     30
                      A                      A                      A
 Frequencies --   1074.2741              1083.7059              1166.8571
 Red. masses --      1.5234                 3.0371                 2.6067
 Frc consts  --      1.0359                 2.1015                 2.0911
 IR Inten    --     16.5675                34.7655               218.7142

                     31                     32                     33
                      A                      A                      A
 Frequencies --   1192.1417              1193.9538              1222.6682
 Red. masses --      1.2554                 3.0991                 1.6452
 Frc consts  --      1.0512                 2.6029                 1.4491
 IR Inten    --      1.1611                62.0150                 2.7135

                     34                     35                     36
                      A                      A                      A
 Frequencies --   1251.1917              1271.6987              1310.1746
 Red. masses --      2.2683                 1.5899                 2.1906
 Frc consts  --      2.0921                 1.5149                 2.2155
 IR Inten    --     41.6605                14.8571                20.3334

                     37                     38                     39
                      A                      A                      A
 Frequencies --   1336.7735              1384.5389              1437.4231
 Red. masses --      1.7453                 2.2619                 1.8134
 Frc consts  --      1.8375                 2.5546                 2.2075
 IR Inten    --      2.5924                44.1694                10.1039

                     40                     41                     42
                      A                      A                      A
 Frequencies --   1455.9508              1469.8407              1499.4565
 Red. masses --      1.7176                 1.6002                 1.1109
 Frc consts  --      2.1452                 2.0368                 1.4716
 IR Inten    --      0.7765                89.6124                15.2899

                     43                     44                     45
                      A                      A                      A
 Frequencies --   1505.0778              1521.6437              1522.3432
 Red. masses --      1.3449                 1.1174                 1.1425
 Frc consts  --      1.7949                 1.5244                 1.5600
 IR Inten    --     19.3655                11.2176                 2.9885

                     46                     47                     48
                      A                      A                      A
 Frequencies --   1540.8590              1546.2792              1558.8931
 Red. masses --      1.0700                 1.8143                 2.7618
 Frc consts  --      1.4968                 2.5559                 3.9543
 IR Inten    --     10.3558                 6.9346               110.8045

                     49                     50                     51
                      A                      A                      A
 Frequencies --   1638.5447              1845.1262              3044.7556
 Red. masses --      5.6675                 9.3805                 1.0321
 Frc consts  --      8.9652                18.8160                 5.6375
 IR Inten    --     26.1265               292.7855                68.6266

                     52                     53                     54
                      A                      A                      A
 Frequencies --   3045.4085              3082.6588              3102.9235
 Red. masses --      1.0400                 1.0604                 1.0979
 Frc consts  --      5.6827                 5.9371                 6.2279
 IR Inten    --      9.9802                14.1986                15.7130

                     55                     56                     57
                      A                      A                      A
 Frequencies --   3119.1353              3141.1063              3143.4450
 Red. masses --      1.1076                 1.1036                 1.1008
 Frc consts  --      6.3490                 6.4155                 6.4084
 IR Inten    --     17.4160                 4.4166                 2.9873

                     58                     59                     60
                      A                      A                      A
 Frequencies --   3157.5997              3661.9822              3677.4787
 Red. masses --      1.1044                 1.0811                 1.0639
 Frc consts  --      6.4876                 8.5417                 8.4773
 IR Inten    --     29.6736                68.1222                46.1526

 - Thermochemistry -
 -------------------
 Temperature   298.150 Kelvin.  Pressure   1.00000 Atm.
 Atom     1 has atomic number  6 and mass  12.00000

 Molecular mass:   170.06914 amu.
 Principal axes and moments of inertia in atomic units:
                           1         2         3
     Eigenvalues --  1635.793411980.009893263.66435
           X            0.98141  -0.19152  -0.01221
           Y            0.19155   0.98148   0.00154
           Z            0.01168  -0.00385   0.99992
 This molecule is an asymmetric top.
 Rotational symmetry number  1.
 Warning -- assumption of classical behavior for rotation
           may cause significant error
 Rotational temperatures (Kelvin)      0.05295     0.04374     0.02654
 Rotational constants (GHZ):           1.10328     0.91148     0.55298
 Zero-point vibrational energy     461576.5 (Joules/Mol)
                                  110.31943 (Kcal/Mol)
 Warning -- explicit consideration of  17 degrees of freedom as
           vibrations may cause significant error
 Vibrational temperatures:     52.23    94.55   111.53   120.19   138.73
          (Kelvin)            190.24   259.81   290.42   340.87   408.24
                              454.38   606.03   616.24   699.95   755.19
                              777.41   856.59   912.26   968.11  1027.17
                             1076.97  1124.94  1194.72  1288.09  1348.61
                             1462.27  1476.07  1545.64  1559.21  1678.85
                             1715.23  1717.83  1759.15  1800.19  1829.69
                             1885.05  1923.32  1992.04  2068.13  2094.79
                             2114.77  2157.38  2165.47  2189.31  2190.31
                             2216.95  2224.75  2242.90  2357.50  2654.73
                             4380.72  4381.66  4435.26  4464.41  4487.74
                             4519.35  4522.72  4543.08  5268.78  5291.07

 Zero-point correction=                           0.175805 (Hartree/Particle)
 Thermal correction to Energy=                    0.188155
 Thermal correction to Enthalpy=                  0.189099
 Thermal correction to Gibbs Free Energy=         0.135969
 Sum of electronic and zero-point Energies=           -607.783746
 Sum of electronic and thermal Energies=              -607.771396
 Sum of electronic and thermal Enthalpies=            -607.770452
 Sum of electronic and thermal Free Energies=         -607.823582

                     E (Thermal)             CV                S
                      KCal/Mol        Cal/Mol-Kelvin    Cal/Mol-Kelvin
 Total                  118.069             43.356            111.821
 Electronic               0.000              0.000              0.000
 Translational            0.889              2.981             41.301
 Rotational               0.889              2.981             30.737
 Vibrational            116.291             37.394             39.783
 Vibration     1          0.594              1.982              5.451
 Vibration     2          0.597              1.971              4.278
 Vibration     3          0.599              1.964              3.953
 Vibration     4          0.600              1.961              3.806
 Vibration     5          0.603              1.952              3.525
 Vibration     6          0.612              1.921              2.913
 Vibration     7          0.630              1.866              2.322
 Vibration     8          0.639              1.837              2.116
 Vibration     9          0.656              1.784              1.826
 Vibration    10          0.682              1.704              1.511
 Vibration    11          0.703              1.643              1.332
 Vibration    12          0.784              1.424              0.888
 Vibration    13          0.790              1.409              0.864
 Vibration    14          0.842              1.280              0.693
 Vibration    15          0.880              1.195              0.599
 Vibration    16          0.895              1.161              0.565
 Vibration    17          0.953              1.042              0.458

 Optimization completed.
    -- Stationary point found.
 Normal termination of Gaussian 16 at Wed Dec  9 17:40:32 2020.

 ----------------------------------------------------------------------
 # B3LYP/6-311++G(d,p) empiricaldispersion=gd3bj scf=xqc pop=npa geom=c
 heck
 ----------------------------------------------------------------------

 --------------------------------------
 CID_82653161_JID_2750_Energie_neutraal
 --------------------------------------
 Structure from the checkpoint file:  "JID_2750.chk"
 Charge =  0 Multiplicity = 1

 SCF Done:  E(RB3LYP) =  -608.144434341     A.U. after   15 cycles
 Normal termination of Gaussian 16 at Wed Dec  9 17:42:41 2020.

 ----------------------------------------------------------------------
 # B3LYP/6-311++G(d,p) empiricaldispersion=gd3bj scf=xqc pop=npa geom=c
 heck
 ----------------------------------------------------------------------

 ------------------------------------
 CID_82653161_JID_2750_Energie_kation
 ------------------------------------
 Structure from the checkpoint file:  "JID_2750.chk"
 Charge =  1 Multiplicity = 2

 SCF Done:  E(UB3LYP) =  -607.818009229     A.U. after   32 cycles
 Normal termination of Gaussian 16 at Wed Dec  9 17:48:54 2020.
 Gaussian 16:  ES64L-G16RevA.03 25-Dec-2016

 ----------------------------------------------------------------------
 # B3LYP/6-311++G(d,p) empiricaldispersion=gd3bj scf=xqc pop=npa geom=c
 heck
 ----------------------------------------------------------------------

 -----------------------------------
 CID_82653161_JID_2750_Energie_anion
 -----------------------------------
 Structure from the checkpoint file:  "JID_2750.chk"
 Charge = -1 Multiplicity = 2

                         Standard orientation:
 ---------------------------------------------------------------------
 Center     Atomic      Atomic             Coordinates (Angstroms)
 Number     Number       Type             X           Y           Z
 ---------------------------------------------------------------------
      1          6           0       -1.084450    2.668548   -0.021815
      2          6           0        0.037259    1.682018    0.004662
      3          6           0        0.111782    0.384530    0.492558
      4          6           0        1.454572   -0.009646    0.253717
      5          7           0        2.171118    0.945464   -0.329259
      6          7           0        1.282217    1.961049   -0.469399
      7          8           0        2.002702   -1.202649    0.599313
      8          6           0        1.945399   -2.193049   -0.438881
      9          6           0       -0.965920   -0.467203    1.099821
     10          6           0       -1.828722   -1.069959    0.008364
     11          8           0       -1.603478   -2.096167   -0.593688
     12          8           0       -2.901302   -0.284704   -0.278460
     13          1           0       -1.170046    3.209847    0.929201
     14          1           0       -0.940889    3.410710   -0.814897
     15          1           0       -2.034176    2.157891   -0.202262
     16          1           0        1.598666    2.827473   -0.877457
     17          1           0        0.905931   -2.413438   -0.706519
     18          1           0        2.495653   -1.852782   -1.323734
     19          1           0        2.421889   -3.086954   -0.031085
     20          1           0       -0.498656   -1.290443    1.645850
     21          1           0       -1.594718    0.106783    1.787009
     22          1           0       -3.359900   -0.717963   -1.023373
 ---------------------------------------------------------------------

 SCF Done:  E(UB3LYP) =  -608.134355478     A.U. after   30 cycles

 The electronic state is 2-A.
 Alpha  occ. eigenvalues --  -19.06818 -19.04575 -19.01853 -14.27822 -14.22392
 Alpha  occ. eigenvalues --  -10.21000 -10.13794 -10.12205 -10.11398 -10.09442
 Alpha  occ. eigenvalues --  -10.07320 -10.06714  -1.00989  -0.97234  -0.93316
 Alpha  occ. eigenvalues --   -0.92217  -0.72436  -0.71487  -0.65006  -0.60852
 Alpha  occ. eigenvalues --   -0.60118  -0.52383  -0.48256  -0.47310  -0.42736
 Alpha  occ. eigenvalues --   -0.40041  -0.39233  -0.38715  -0.37162  -0.36208
 Alpha  occ. eigenvalues --   -0.35246  -0.33804  -0.32724  -0.30849  -0.30340
 Alpha  occ. eigenvalues --   -0.29633  -0.29167  -0.27927  -0.25818  -0.22814
 Alpha  occ. eigenvalues --   -0.20683  -0.19371  -0.18061  -0.14527  -0.13690
 Alpha  occ. eigenvalues --    0.04476
 Alpha virt. eigenvalues --    0.06896   0.07917   0.08211   0.08962   0.10007
 Alpha virt. eigenvalues --    0.10392   0.10884   0.11657   0.12419   0.12723
 Alpha virt. eigenvalues --    0.13564   0.14159   0.15009   0.16050   0.16425

  Beta  occ. eigenvalues --  -19.06754 -19.04574 -19.01838 -14.27784 -14.22387
  Beta  occ. eigenvalues --  -10.20995 -10.13794 -10.12202 -10.11399 -10.09418
  Beta  occ. eigenvalues --  -10.07315 -10.06644  -1.00916  -0.97227  -0.93292
  Beta  occ. eigenvalues --   -0.92151  -0.72408  -0.71445  -0.64944  -0.60831
  Beta  occ. eigenvalues --   -0.60033  -0.52280  -0.48213  -0.47257  -0.42684
  Beta  occ. eigenvalues --   -0.40000  -0.39205  -0.38687  -0.37146  -0.36163
  Beta  occ. eigenvalues --   -0.35220  -0.33770  -0.32681  -0.30795  -0.30293
  Beta  occ. eigenvalues --   -0.29583  -0.29121  -0.27876  -0.25803  -0.22762
  Beta  occ. eigenvalues --   -0.20661  -0.19331  -0.18049  -0.14509  -0.13673
  Beta virt. eigenvalues --    0.07258   0.08025   0.08537   0.08815   0.09625
  Beta virt. eigenvalues --    0.10532   0.10783   0.10988   0.12121   0.12401
  Beta virt. eigenvalues --    0.12922   0.13917   0.14785   0.15093   0.16111

 Mulliken charges and spin densities:
               1          2
     1  C    2.546542  -3.239378
     2  C   -3.071945   3.224538
     3  C    1.164775  -0.430689
     4  C    0.145466  -0.368716
     5  N   -0.302048   0.152852
     6  N   -0.004613  -0.128816
     7  O   -0.163306   0.004186
     8  C   -0.242595  -0.034811
     9  C    1.025534  -1.879812
    10  C    0.074299  -0.101937
    11  O   -0.296400   0.019362
    12  O   -0.168456   0.038200
    13  H   -0.385472   0.565548
    14  H   -0.890194   1.040187
    15  H   -0.167985   0.366212
    16  H   -0.199458   0.544113
    17  H    0.150416   0.022446
    18  H    0.109157   0.024405
    19  H    0.091898   0.049779
    20  H    0.087166   0.119703
    21  H    0.011964   0.192511
    22  H   -0.514745   0.820118
 Sum of Mulliken charges =  -1.00000   1.00000

 Dipole moment (field-independent basis, Debye):
    X=              4.0229    Y=             -6.1572    Z=              2.4688  Tot=              7.7582
 Quadrupole moment (field-independent basis, Debye-Ang):
   XX=           -124.4291   YY=           -123.8653   ZZ=            -96.9600
   XY=             -1.5184   XZ=             -7.4845   YZ=              4.2248

 Summary of Natural Population Analysis:

                                       Natural Population
                Natural  -----------------------------------------------
    Atom  No    Charge         Core      Valence    Rydberg      Total
 -----------------------------------------------------------------------
      C    1   -0.30748      0.99963     2.30156    0.00629     3.30748
      C    2    0.09778      0.99950     1.89086    0.01187     2.90222
      C    3   -0.09325      0.99938     2.08274    0.01113     3.09325
      C    4    0.23308      0.99939     1.74725    0.02027     2.76692
      N    5   -0.17528      0.99969     2.66248    0.01311     3.67528
      N    6   -0.16622      0.99965     2.65361    0.01296     3.66622
      O    7   -0.28859      0.99985     3.28019    0.00854     4.28859
      C    8   -0.10005      0.99959     2.09281    0.00765     3.10005
      C    9   -0.24363      0.99955     2.23412    0.00996     3.24363
      C   10    0.41332      0.99972     1.56126    0.02569     2.58668
      O   11   -0.31183      0.99986     3.30549    0.00647     4.31183
      O   12   -0.34392      0.99988     3.33685    0.00719     4.34392
      H   13    0.10962      0.00000     0.38833    0.00205     0.39038
      H   14    0.11225      0.00000     0.38289    0.00487     0.38775
      H   15    0.11971      0.00000     0.37756    0.00273     0.38029
      H   16    0.20194      0.00000     0.29253    0.00552     0.29806
      H   17    0.09551      0.00000     0.40306    0.00142     0.40449
      H   18    0.08350      0.00000     0.41523    0.00127     0.41650
      H   19    0.08426      0.00000     0.41481    0.00092     0.41574
      H   20    0.11716      0.00000     0.38154    0.00130     0.38284
      H   21    0.11591      0.00000     0.38288    0.00121     0.38409
      H   22    0.24620      0.00000     0.23703    0.01677     0.25380
 =======================================================================
   * Total *   -0.00000     11.99570    32.82508    0.17921    45.00000

 Normal termination of Gaussian 16 at Wed Dec  9 17:54:51 2020.
