 Gaussian 16, Revision A.03,

 -----------------------------------------------------------
 # opt freq B3LYP/6-31G(d) empiricaldispersion=gd3bj scf=xqc
 -----------------------------------------------------------

 ------------------------------
 CID_21816375_JID_4148_neutraal
 ------------------------------
 Symbolic Z-matrix:
 Charge =  0 Multiplicity = 1

 SCF Done:  E(RB3LYP) =  -957.615231760     A.U. after   15 cycles
 SCF Done:  E(RB3LYP) =  -957.623743082     A.U. after   12 cycles
 SCF Done:  E(RB3LYP) =  -957.624496815     A.U. after   12 cycles
 SCF Done:  E(RB3LYP) =  -957.624547600     A.U. after   11 cycles
 SCF Done:  E(RB3LYP) =  -957.624706106     A.U. after   11 cycles
 SCF Done:  E(RB3LYP) =  -957.624758143     A.U. after   10 cycles
 SCF Done:  E(RB3LYP) =  -957.624797473     A.U. after   11 cycles
 SCF Done:  E(RB3LYP) =  -957.624802230     A.U. after    9 cycles
 SCF Done:  E(RB3LYP) =  -957.624807535     A.U. after    9 cycles
 SCF Done:  E(RB3LYP) =  -957.624808736     A.U. after    8 cycles
 SCF Done:  E(RB3LYP) =  -957.624810001     A.U. after    9 cycles
 SCF Done:  E(RB3LYP) =  -957.624810143     A.U. after    7 cycles
 Optimization completed.
    -- Stationary point found.
 Normal termination of Gaussian 16 at Thu Dec 10 09:18:12 2020.

 --------------------------------------------------------------------
 #N Geom=AllCheck Guess=TCheck SCRF=Check GenChk RB3LYP/6-31G(d) Freq
 --------------------------------------------------------------------

 Structure from the checkpoint file:  "JID_4148.chk"
 ------------------------------
 CID_21816375_JID_4148_neutraal
 ------------------------------
 Charge =  0 Multiplicity = 1

 SCF Done:  E(RB3LYP) =  -957.624810143     A.U. after    1 cycles

  Exact polarizability: 188.022   5.909 130.474  10.160  -4.315 106.109
 Approx polarizability: 233.413  15.186 228.246  15.076 -12.552 157.299

                      1                      2                      3
                      A                      A                      A
 Frequencies --     26.2508                37.2279                66.2213
 Red. masses --      3.5632                 4.0765                 3.4868
 Frc consts  --      0.0014                 0.0033                 0.0090
 IR Inten    --      0.3345                 0.2896                 0.2306

                      4                      5                      6
                      A                      A                      A
 Frequencies --     97.9416               127.8616               132.1917
 Red. masses --      2.6311                 3.1131                 2.9637
 Frc consts  --      0.0149                 0.0300                 0.0305
 IR Inten    --      0.3933                 0.3964                 0.4585

                      7                      8                      9
                      A                      A                      A
 Frequencies --    177.9049               222.7410               255.8075
 Red. masses --      2.5018                 1.7872                 2.7543
 Frc consts  --      0.0467                 0.0522                 0.1062
 IR Inten    --      2.0077                 0.3901                 0.8318

                     10                     11                     12
                      A                      A                      A
 Frequencies --    277.1879               283.5081               308.2999
 Red. masses --      2.5591                 2.7209                 2.2018
 Frc consts  --      0.1158                 0.1289                 0.1233
 IR Inten    --      0.1680                 2.5511                 1.1422

                     13                     14                     15
                      A                      A                      A
 Frequencies --    312.7089               361.3590               401.9058
 Red. masses --      2.0976                 3.1891                 2.5803
 Frc consts  --      0.1209                 0.2454                 0.2456
 IR Inten    --      1.1509                 1.5703                 1.5179

                     16                     17                     18
                      A                      A                      A
 Frequencies --    455.5572               480.0384               494.1386
 Red. masses --      4.1661                 3.8085                 2.5541
 Frc consts  --      0.5094                 0.5171                 0.3674
 IR Inten    --      3.1889                 0.4417                 1.0300

                     19                     20                     21
                      A                      A                      A
 Frequencies --    553.6128               574.3935               603.3341
 Red. masses --      4.2934                 5.0212                 5.9042
 Frc consts  --      0.7753                 0.9761                 1.2663
 IR Inten    --      0.0662                 1.2155                 7.5138

                     22                     23                     24
                      A                      A                      A
 Frequencies --    628.9472               638.1999               715.6231
 Red. masses --      6.9813                 5.3533                 3.1011
 Frc consts  --      1.6271                 1.2846                 0.9357
 IR Inten    --     42.9550                 7.5860                 2.5320

                     25                     26                     27
                      A                      A                      A
 Frequencies --    759.3360               823.7254               844.4149
 Red. masses --      1.2620                 2.4730                 1.3677
 Frc consts  --      0.4287                 0.9886                 0.5746
 IR Inten    --     15.3889                 2.3356                 1.6917

                     28                     29                     30
                      A                      A                      A
 Frequencies --    851.2314               875.3035               910.7035
 Red. masses --      2.8899                 1.7505                 2.0747
 Frc consts  --      1.2338                 0.7902                 1.0138
 IR Inten    --      0.1488                 2.4963                10.9340

                     31                     32                     33
                      A                      A                      A
 Frequencies --    930.4181               962.2647               970.8812
 Red. masses --      1.5383                 2.0963                 2.0883
 Frc consts  --      0.7846                 1.1436                 1.1598
 IR Inten    --      0.3353                 6.7336                 1.8104

                     34                     35                     36
                      A                      A                      A
 Frequencies --    993.8711              1014.1019              1051.8694
 Red. masses --      1.5199                 3.2037                 2.6238
 Frc consts  --      0.8846                 1.9411                 1.7104
 IR Inten    --      2.7880                30.1909                13.9074

                     37                     38                     39
                      A                      A                      A
 Frequencies --   1083.7762              1096.1550              1116.5872
 Red. masses --      1.9693                 2.6967                 1.8953
 Frc consts  --      1.3628                 1.9091                 1.3922
 IR Inten    --      3.5709                53.7164                 3.4201

                     40                     41                     42
                      A                      A                      A
 Frequencies --   1127.8124              1152.3773              1162.2385
 Red. masses --      2.3933                 2.4818                 2.4328
 Frc consts  --      1.7936                 1.9418                 1.9362
 IR Inten    --      5.1210                16.1931                18.0278

                     43                     44                     45
                      A                      A                      A
 Frequencies --   1172.5270              1191.0490              1213.8633
 Red. masses --      1.1684                 2.3462                 1.8365
 Frc consts  --      0.9464                 1.9610                 1.5944
 IR Inten    --      4.2908                49.4265                15.0248

                     46                     47                     48
                      A                      A                      A
 Frequencies --   1256.0713              1265.9168              1276.0870
 Red. masses --      1.8998                 1.3434                 1.2749
 Frc consts  --      1.7660                 1.2684                 1.2231
 IR Inten    --     70.9358                15.6093                 4.4364

                     49                     50                     51
                      A                      A                      A
 Frequencies --   1283.7914              1306.5913              1337.4998
 Red. masses --      1.2938                 1.2777                 1.1272
 Frc consts  --      1.2563                 1.2852                 1.1880
 IR Inten    --      4.1151                 7.5253                 0.3569

                     52                     53                     54
                      A                      A                      A
 Frequencies --   1385.2179              1386.5995              1388.4083
 Red. masses --      1.5151                 1.4052                 1.4248
 Frc consts  --      1.7129                 1.5919                 1.6183
 IR Inten    --     15.6954                14.8635                 0.1722

                     55                     56                     57
                      A                      A                      A
 Frequencies --   1395.4956              1406.9071              1407.5860
 Red. masses --      1.6003                 1.6229                 1.5546
 Frc consts  --      1.8362                 1.8926                 1.8148
 IR Inten    --     15.9213                 6.8711                 4.5860

                     58                     59                     60
                      A                      A                      A
 Frequencies --   1420.8057              1445.0819              1504.6775
 Red. masses --      1.3274                 1.2576                 1.0846
 Frc consts  --      1.5788                 1.5473                 1.4468
 IR Inten    --     28.1984                 4.7009                 7.2716

                     61                     62                     63
                      A                      A                      A
 Frequencies --   1508.0438              1517.3664              1519.0186
 Red. masses --      1.1019                 1.0769                 1.0969
 Frc consts  --      1.4764                 1.4608                 1.4913
 IR Inten    --      2.3516                 3.8509                 3.0687

                     64                     65                     66
                      A                      A                      A
 Frequencies --   1520.7932              1522.7562              1530.9108
 Red. masses --      1.0745                 1.0863                 1.1022
 Frc consts  --      1.4642                 1.4841                 1.5219
 IR Inten    --      0.7218                20.4540                 0.1523

                     67                     68                     69
                      A                      A                      A
 Frequencies --   1533.5620              1543.7628              1741.8432
 Red. masses --      1.0586                 1.0577                 8.7543
 Frc consts  --      1.4668                 1.4851                15.6492
 IR Inten    --     10.5657                 5.5469                43.8903

                     70                     71                     72
                      A                      A                      A
 Frequencies --   1786.3769              2982.4239              3025.2669
 Red. masses --     10.8360                 1.0678                 1.0671
 Frc consts  --     20.3735                 5.5961                 5.7544
 IR Inten    --    568.6058                26.4502                31.4561

                     73                     74                     75
                      A                      A                      A
 Frequencies --   3029.4064              3033.5761              3042.8590
 Red. masses --      1.0680                 1.0642                 1.0408
 Frc consts  --      5.7749                 5.7703                 5.6776
 IR Inten    --     26.0903                16.5556                31.2424

                     76                     77                     78
                      A                      A                      A
 Frequencies --   3044.3939              3044.5845              3049.9848
 Red. masses --      1.0671                 1.0623                 1.0628
 Frc consts  --      5.8272                 5.8018                 5.8250
 IR Inten    --     27.3523                21.5102                19.1575

                     79                     80                     81
                      A                      A                      A
 Frequencies --   3053.9841              3069.5475              3078.1793
 Red. masses --      1.0906                 1.0926                 1.0982
 Frc consts  --      5.9928                 6.0654                 6.1308
 IR Inten    --     62.9834                34.4976                25.7523

                     82                     83                     84
                      A                      A                      A
 Frequencies --   3078.7004              3086.9150              3095.4605
 Red. masses --      1.0933                 1.1010                 1.0984
 Frc consts  --      6.1054                 6.1812                 6.2011
 IR Inten    --     21.3313                36.8447                54.0205

                     85                     86                     87
                      A                      A                      A
 Frequencies --   3100.0637              3107.4877              3119.9619
 Red. masses --      1.1049                 1.1007                 1.1016
 Frc consts  --      6.2562                 6.2626                 6.3181
 IR Inten    --     46.8013                48.6389                49.9259

 - Thermochemistry -
 -------------------
 Temperature   298.150 Kelvin.  Pressure   1.00000 Atm.
 Atom     1 has atomic number  6 and mass  12.00000

 Molecular mass:   211.10309 amu.
 Principal axes and moments of inertia in atomic units:
                           1         2         3
     Eigenvalues --  1289.265895978.911606275.46615
           X            0.99999  -0.00429  -0.00283
           Y            0.00436   0.99965   0.02612
           Z            0.00271  -0.02614   0.99965
 This molecule is an asymmetric top.
 Rotational symmetry number  1.
 Warning -- assumption of classical behavior for rotation
           may cause significant error
 Rotational temperatures (Kelvin)      0.06718     0.01449     0.01380
 Rotational constants (GHZ):           1.39982     0.30185     0.28759
 Zero-point vibrational energy     704429.6 (Joules/Mol)
                                  168.36272 (Kcal/Mol)
 Warning -- explicit consideration of  21 degrees of freedom as
           vibrations may cause significant error
 Vibrational temperatures:     37.77    53.56    95.28   140.92   183.96
          (Kelvin)            190.19   255.97   320.47   368.05   398.81
                              407.90   443.57   449.92   519.91   578.25
                              655.45   690.67   710.96   796.53   826.42
                              868.06   904.91   918.23  1029.62  1092.52
                             1185.16  1214.92  1224.73  1259.37  1310.30
                             1338.66  1384.48  1396.88  1429.96  1459.07
                             1513.41  1559.31  1577.12  1606.52  1622.67
                             1658.01  1672.20  1687.00  1713.65  1746.48
                             1807.21  1821.37  1836.00  1847.09  1879.89
                             1924.36  1993.02  1995.01  1997.61  2007.81
                             2024.23  2025.20  2044.22  2079.15  2164.90
                             2169.74  2183.15  2185.53  2188.08  2190.91
                             2202.64  2206.45  2221.13  2506.12  2570.20
                             4291.04  4352.68  4358.64  4364.64  4378.00
                             4380.20  4380.48  4388.25  4394.00  4416.39
                             4428.81  4429.56  4441.38  4453.68  4460.30
                             4470.98  4488.93

 Zero-point correction=                           0.268303 (Hartree/Particle)
 Thermal correction to Energy=                    0.282383
 Thermal correction to Enthalpy=                  0.283327
 Thermal correction to Gibbs Free Energy=         0.226103
 Sum of electronic and zero-point Energies=           -957.356507
 Sum of electronic and thermal Energies=              -957.342427
 Sum of electronic and thermal Enthalpies=            -957.341483
 Sum of electronic and thermal Free Energies=         -957.398707

                     E (Thermal)             CV                S
                      KCal/Mol        Cal/Mol-Kelvin    Cal/Mol-Kelvin
 Total                  177.198             53.253            120.438
 Electronic               0.000              0.000              0.000
 Translational            0.889              2.981             41.945
 Rotational               0.889              2.981             32.248
 Vibrational            175.421             47.291             46.246
 Vibration     1          0.593              1.985              6.094
 Vibration     2          0.594              1.982              5.401
 Vibration     3          0.598              1.970              4.263
 Vibration     4          0.603              1.951              3.495
 Vibration     5          0.611              1.925              2.978
 Vibration     6          0.612              1.921              2.914
 Vibration     7          0.628              1.870              2.350
 Vibration     8          0.648              1.806              1.937
 Vibration     9          0.666              1.753              1.690
 Vibration    10          0.678              1.716              1.551
 Vibration    11          0.682              1.704              1.512
 Vibration    12          0.698              1.658              1.371
 Vibration    13          0.701              1.649              1.348
 Vibration    14          0.736              1.552              1.116
 Vibration    15          0.768              1.466              0.956
 Vibration    16          0.814              1.349              0.779
 Vibration    17          0.836              1.294              0.710
 Vibration    18          0.850              1.263              0.673
 Vibration    19          0.909              1.132              0.537
 Vibration    20          0.931              1.087              0.496
 Vibration    21          0.962              1.025              0.444

 Optimization completed.
    -- Stationary point found.
 Normal termination of Gaussian 16 at Thu Dec 10 09:25:58 2020.

 ----------------------------------------------------------------------
 # B3LYP/6-311++G(d,p) empiricaldispersion=gd3bj scf=xqc pop=npa geom=c
 heck
 ----------------------------------------------------------------------

 --------------------------------------
 CID_21816375_JID_4148_Energie_neutraal
 --------------------------------------
 Structure from the checkpoint file:  "JID_4148.chk"
 Charge =  0 Multiplicity = 1

 SCF Done:  E(RB3LYP) =  -957.800639901     A.U. after   16 cycles
 Normal termination of Gaussian 16 at Thu Dec 10 09:29:36 2020.

 ----------------------------------------------------------------------
 # B3LYP/6-311++G(d,p) empiricaldispersion=gd3bj scf=xqc pop=npa geom=c
 heck
 ----------------------------------------------------------------------

 ------------------------------------
 CID_21816375_JID_4148_Energie_kation
 ------------------------------------
 Structure from the checkpoint file:  "JID_4148.chk"
 Charge =  1 Multiplicity = 2

 SCF Done:  E(UB3LYP) =  -957.525696432     A.U. after   21 cycles
 Normal termination of Gaussian 16 at Thu Dec 10 09:36:02 2020.
 Gaussian 16:  ES64L-G16RevA.03 25-Dec-2016

 ----------------------------------------------------------------------
 # B3LYP/6-311++G(d,p) empiricaldispersion=gd3bj scf=xqc pop=npa geom=c
 heck
 ----------------------------------------------------------------------

 -----------------------------------
 CID_21816375_JID_4148_Energie_anion
 -----------------------------------
 Structure from the checkpoint file:  "JID_4148.chk"
 Charge = -1 Multiplicity = 2

                         Standard orientation:
 ---------------------------------------------------------------------
 Center     Atomic      Atomic             Coordinates (Angstroms)
 Number     Number       Type             X           Y           Z
 ---------------------------------------------------------------------
      1          6           0       -3.447263    1.319026    1.485365
      2          6           0       -3.818411   -0.145391    1.230630
      3          6           0       -4.062537   -0.484393   -0.245459
      4          6           0       -2.835953   -0.280627   -1.143684
      5          7           0       -1.736148   -1.117413   -0.704118
      6          6           0       -0.592865   -0.625434   -0.539882
      7          8           0        0.447862   -1.414149   -0.106257
      8          6           0        1.628690   -0.721447    0.051268
      9          6           0        1.607050    0.580418   -0.254540
     10         16           0       -0.007066    1.080490   -0.792134
     11          6           0        2.797071    1.487271   -0.160157
     12          6           0        4.079220    0.643104   -0.026840
     13          6           0        3.907040   -0.499646    0.985356
     14          6           0        2.810200   -1.486798    0.544920
     15          1           0       -2.486991    1.581088    1.028137
     16          1           0       -3.363001    1.520577    2.559188
     17          1           0       -4.207355    1.997763    1.077718
     18          1           0       -3.023993   -0.797939    1.612822
     19          1           0       -4.724683   -0.393344    1.798344
     20          1           0       -4.377160   -1.531820   -0.327725
     21          1           0       -4.882515    0.131562   -0.640447
     22          1           0       -3.093970   -0.565248   -2.172411
     23          1           0       -2.567183    0.788731   -1.170634
     24          1           0        2.690376    2.160272    0.702996
     25          1           0        2.860625    2.130595   -1.046609
     26          1           0        4.913872    1.288714    0.268082
     27          1           0        4.331445    0.220176   -1.008014
     28          1           0        4.852802   -1.035617    1.119192
     29          1           0        3.636960   -0.077539    1.962087
     30          1           0        3.180582   -2.151970   -0.248499
     31          1           0        2.509945   -2.135256    1.376927
 ---------------------------------------------------------------------

 SCF Done:  E(UB3LYP) =  -957.788297291     A.U. after   32 cycles

 The electronic state is 2-A.
 Alpha  occ. eigenvalues --  -88.77411 -19.08785 -14.20250 -10.19498 -10.13478
 Alpha  occ. eigenvalues --  -10.11027 -10.10160 -10.08416 -10.08194 -10.07812
 Alpha  occ. eigenvalues --  -10.07430 -10.07122 -10.07006 -10.06723  -7.86005
 Alpha  occ. eigenvalues --   -5.82338  -5.82010  -5.81470  -1.01380  -0.83498
 Alpha  occ. eigenvalues --   -0.75451  -0.71033  -0.69898  -0.65909  -0.64033
 Alpha  occ. eigenvalues --   -0.61458  -0.56445  -0.53628  -0.52227  -0.49069
 Alpha  occ. eigenvalues --   -0.46904  -0.43290  -0.40858  -0.39149  -0.38455
 Alpha  occ. eigenvalues --   -0.37665  -0.35555  -0.35321  -0.33790  -0.32616
 Alpha  occ. eigenvalues --   -0.31532  -0.30964  -0.30327  -0.29611  -0.29152
 Alpha  occ. eigenvalues --   -0.28524  -0.26488  -0.24984  -0.24687  -0.24170
 Alpha  occ. eigenvalues --   -0.23833  -0.23700  -0.22599  -0.20881  -0.19675
 Alpha  occ. eigenvalues --   -0.17165  -0.10841   0.04314
 Alpha virt. eigenvalues --    0.05773   0.07428   0.07543   0.08142   0.08205
 Alpha virt. eigenvalues --    0.08434   0.09221   0.09687   0.10177   0.10695
 Alpha virt. eigenvalues --    0.10816   0.10999   0.11313   0.11480   0.12037

  Beta  occ. eigenvalues --  -88.77397 -19.08780 -14.20255 -10.19465 -10.13474
  Beta  occ. eigenvalues --  -10.11025 -10.10141 -10.08394 -10.08157 -10.07803
  Beta  occ. eigenvalues --  -10.07421 -10.07088 -10.06973 -10.06708  -7.85991
  Beta  occ. eigenvalues --   -5.82300  -5.81999  -5.81460  -1.01358  -0.83489
  Beta  occ. eigenvalues --   -0.75403  -0.70997  -0.69852  -0.65858  -0.63989
  Beta  occ. eigenvalues --   -0.61402  -0.56409  -0.53556  -0.52165  -0.48993
  Beta  occ. eigenvalues --   -0.46856  -0.43221  -0.40823  -0.39104  -0.38412
  Beta  occ. eigenvalues --   -0.37609  -0.35532  -0.35294  -0.33743  -0.32563
  Beta  occ. eigenvalues --   -0.31494  -0.30946  -0.30264  -0.29573  -0.29108
  Beta  occ. eigenvalues --   -0.28476  -0.26422  -0.24958  -0.24662  -0.24138
  Beta  occ. eigenvalues --   -0.23773  -0.23655  -0.22529  -0.20847  -0.19638
  Beta  occ. eigenvalues --   -0.17150  -0.10807
  Beta virt. eigenvalues --    0.06025   0.06946   0.07672   0.07996   0.08508
  Beta virt. eigenvalues --    0.08811   0.08983   0.09465   0.09917   0.10503
  Beta virt. eigenvalues --    0.10876   0.11019   0.11247   0.11641   0.11830

 Mulliken charges and spin densities:
               1          2
     1  C    0.252904  -0.786973
     2  C   -0.383420   0.363288
     3  C    0.053429  -0.458942
     4  C   -0.183693   0.015786
     5  N   -0.075524   0.014977
     6  C    0.160049   0.055613
     7  O    0.050657   0.030810
     8  C   -0.681870  -0.501008
     9  C    1.068055   0.791152
    10  S   -0.110922  -0.487669
    11  C    0.829197  -1.030743
    12  C   -0.749242   0.517581
    13  C    0.158168  -0.363114
    14  C    0.744927  -1.789539
    15  H   -0.135295   0.219284
    16  H   -0.064090   0.196466
    17  H   -0.034408   0.155601
    18  H    0.083744   0.047437
    19  H   -0.096365   0.249883
    20  H    0.077577   0.074330
    21  H   -0.047833   0.170471
    22  H    0.074409   0.110474
    23  H    0.158758  -0.093679
    24  H   -0.368236   0.548548
    25  H   -0.204176   0.366381
    26  H   -0.767801   0.960257
    27  H    0.054592   0.078441
    28  H   -0.682548   0.870622
    29  H   -0.018013   0.154648
    30  H   -0.194722   0.379041
    31  H    0.031692   0.140576
 Sum of Mulliken charges =  -1.00000   1.00000

 Dipole moment (field-independent basis, Debye):
    X=             -6.7358    Y=             -0.9787    Z=             -2.3323  Tot=              7.1950
 Quadrupole moment (field-independent basis, Debye-Ang):
   XX=           -195.8846   YY=           -134.7497   ZZ=           -122.8034
   XY=             -4.4529   XZ=             -2.9877   YZ=             -2.6865

 Summary of Natural Population Analysis:

                                       Natural Population
                Natural  -----------------------------------------------
    Atom  No    Charge         Core      Valence    Rydberg      Total
 -----------------------------------------------------------------------
      C    1   -0.28937      0.99967     2.28516    0.00454     3.28937
      C    2   -0.19385      0.99964     2.18697    0.00725     3.19385
      C    3   -0.18803      0.99962     2.18013    0.00828     3.18803
      C    4   -0.09572      0.99960     2.08596    0.01016     3.09572
      N    5   -0.27591      0.99957     2.76233    0.01401     3.77591
      C    6    0.22613      0.99950     1.75397    0.02040     2.77387
      O    7   -0.25279      0.99983     3.24344    0.00952     4.25279
      C    8    0.14462      0.99925     1.84254    0.01358     2.85538
      C    9   -0.11258      0.99935     2.10049    0.01275     3.11258
      S   10    0.12844      4.99947     2.85355    0.01854     7.87156
      C   11   -0.20008      0.99958     2.18993    0.01058     3.20008
      C   12   -0.18447      0.99963     2.17610    0.00874     3.18447
      C   13   -0.18649      0.99964     2.17806    0.00880     3.18649
      C   14   -0.20449      0.99959     2.19498    0.00992     3.20449
      H   15    0.10136      0.00000     0.39730    0.00134     0.39864
      H   16    0.09849      0.00000     0.40039    0.00112     0.40151
      H   17    0.09207      0.00000     0.40665    0.00128     0.40793
      H   18    0.10106      0.00000     0.39733    0.00161     0.39894
      H   19    0.09265      0.00000     0.40600    0.00135     0.40735
      H   20    0.09844      0.00000     0.40002    0.00155     0.40156
      H   21    0.09248      0.00000     0.40613    0.00139     0.40752
      H   22    0.09523      0.00000     0.40354    0.00123     0.40477
      H   23    0.08541      0.00000     0.41281    0.00178     0.41459
      H   24    0.10614      0.00000     0.39178    0.00208     0.39386
      H   25    0.10619      0.00000     0.39238    0.00143     0.39381
      H   26    0.10528      0.00000     0.39194    0.00278     0.39472
      H   27    0.09494      0.00000     0.40331    0.00175     0.40506
      H   28    0.10416      0.00000     0.39338    0.00247     0.39584
      H   29    0.09680      0.00000     0.40143    0.00176     0.40320
      H   30    0.10544      0.00000     0.39305    0.00152     0.39456
      H   31    0.10849      0.00000     0.39007    0.00144     0.39151
 =======================================================================
   * Total *   -0.00000     17.99395    38.82111    0.18495    57.00000

 Normal termination of Gaussian 16 at Thu Dec 10 09:45:43 2020.
