 Gaussian 16, Revision A.03,

 -----------------------------------------------------------
 # opt freq B3LYP/6-31G(d) empiricaldispersion=gd3bj scf=xqc
 -----------------------------------------------------------

 ------------------------------
 CID_63773701_JID_6364_neutraal
 ------------------------------
 Symbolic Z-matrix:
 Charge =  0 Multiplicity = 1

 SCF Done:  E(RB3LYP) =  -1001.55050654     A.U. after   14 cycles
 SCF Done:  E(RB3LYP) =  -1001.55432802     A.U. after   12 cycles
 SCF Done:  E(RB3LYP) =  -1001.55476600     A.U. after   13 cycles
 SCF Done:  E(RB3LYP) =  -1001.55516705     A.U. after   11 cycles
 SCF Done:  E(RB3LYP) =  -1001.55543866     A.U. after   12 cycles
 SCF Done:  E(RB3LYP) =  -1001.55548630     A.U. after   11 cycles
 SCF Done:  E(RB3LYP) =  -1001.55551141     A.U. after   10 cycles
 SCF Done:  E(RB3LYP) =  -1001.55551848     A.U. after    9 cycles
 SCF Done:  E(RB3LYP) =  -1001.55552074     A.U. after    8 cycles
 SCF Done:  E(RB3LYP) =  -1001.55552132     A.U. after    8 cycles
 SCF Done:  E(RB3LYP) =  -1001.55552143     A.U. after    7 cycles
 SCF Done:  E(RB3LYP) =  -1001.55552146     A.U. after    6 cycles
 Optimization completed.
    -- Stationary point found.
 Normal termination of Gaussian 16 at Thu Dec 10 22:25:42 2020.

 --------------------------------------------------------------------
 #N Geom=AllCheck Guess=TCheck SCRF=Check GenChk RB3LYP/6-31G(d) Freq
 --------------------------------------------------------------------

 Structure from the checkpoint file:  "JID_6364.chk"
 ------------------------------
 CID_63773701_JID_6364_neutraal
 ------------------------------
 Charge =  0 Multiplicity = 1

 SCF Done:  E(RB3LYP) =  -1001.55552146     A.U. after    1 cycles

  Exact polarizability: 163.144 -14.811 168.918   6.388   0.593 159.594
 Approx polarizability: 207.264 -29.104 253.668  13.305   7.306 266.410

                      1                      2                      3
                      A                      A                      A
 Frequencies --     26.5540                30.8150                48.6415
 Red. masses --      3.6410                 3.6672                 4.2683
 Frc consts  --      0.0015                 0.0021                 0.0060
 IR Inten    --      0.0065                 0.0306                 0.0240

                      4                      5                      6
                      A                      A                      A
 Frequencies --     56.0113                63.1195                82.2208
 Red. masses --      3.7142                 2.8112                 3.9550
 Frc consts  --      0.0069                 0.0066                 0.0158
 IR Inten    --      0.0096                 0.0099                 0.2855

                      7                      8                      9
                      A                      A                      A
 Frequencies --     92.8994               122.9233               154.9391
 Red. masses --      2.6534                 2.2777                 2.9993
 Frc consts  --      0.0135                 0.0203                 0.0424
 IR Inten    --      0.0823                 0.4956                 0.3801

                     10                     11                     12
                      A                      A                      A
 Frequencies --    156.8534               203.5566               225.3119
 Red. masses --      2.9205                 3.0453                 1.2976
 Frc consts  --      0.0423                 0.0743                 0.0388
 IR Inten    --      0.4553                 0.8198                 0.0915

                     13                     14                     15
                      A                      A                      A
 Frequencies --    242.8332               269.7686               272.3098
 Red. masses --      1.2441                 1.3099                 1.6823
 Frc consts  --      0.0432                 0.0562                 0.0735
 IR Inten    --      0.1932                 0.3366                 0.7794

                     16                     17                     18
                      A                      A                      A
 Frequencies --    290.2966               309.5705               330.7707
 Red. masses --      2.2070                 2.2923                 2.1884
 Frc consts  --      0.1096                 0.1294                 0.1411
 IR Inten    --      0.2604                 0.0925                 1.4808

                     19                     20                     21
                      A                      A                      A
 Frequencies --    352.9419               382.4479               415.2464
 Red. masses --      2.8865                 2.1893                 2.1621
 Frc consts  --      0.2119                 0.1887                 0.2197
 IR Inten    --      1.7449                 0.1024                 0.1911

                     22                     23                     24
                      A                      A                      A
 Frequencies --    423.7089               462.4707               498.9835
 Red. masses --      2.0537                 2.6730                 4.8316
 Frc consts  --      0.2172                 0.3368                 0.7088
 IR Inten    --      0.6969                 2.0206                 4.2575

                     25                     26                     27
                      A                      A                      A
 Frequencies --    539.0950               557.1687               588.7067
 Red. masses --      3.1142                 3.9783                 3.0275
 Frc consts  --      0.5332                 0.7276                 0.6182
 IR Inten    --      2.1275                 0.5592                 1.8229

                     28                     29                     30
                      A                      A                      A
 Frequencies --    623.9963               662.6760               704.0372
 Red. masses --      2.0623                 5.6502                 1.1925
 Frc consts  --      0.4731                 1.4619                 0.3482
 IR Inten    --      6.3873                 3.9236                54.0821

                     31                     32                     33
                      A                      A                      A
 Frequencies --    723.9259               749.6688               769.2449
 Red. masses --      2.0653                 5.5722                 1.8111
 Frc consts  --      0.6377                 1.8451                 0.6314
 IR Inten    --     43.5373                 4.8923                14.4969

                     34                     35                     36
                      A                      A                      A
 Frequencies --    813.3904               826.4177               832.9312
 Red. masses --      1.4803                 1.3089                 1.3132
 Frc consts  --      0.5770                 0.5267                 0.5368
 IR Inten    --     13.5143                11.4012                 3.4480

                     37                     38                     39
                      A                      A                      A
 Frequencies --    858.0370               878.2971               894.4851
 Red. masses --      3.1593                 2.0441                 2.1616
 Frc consts  --      1.3704                 0.9291                 1.0190
 IR Inten    --     12.1704                 0.6816                 9.5387

                     40                     41                     42
                      A                      A                      A
 Frequencies --    906.0813               912.2823               938.4654
 Red. masses --      1.5033                 1.5160                 1.8450
 Frc consts  --      0.7272                 0.7434                 0.9574
 IR Inten    --      9.1183                 3.3205                 0.7779

                     43                     44                     45
                      A                      A                      A
 Frequencies --    941.5469               968.3211               973.1119
 Red. masses --      1.2143                 1.8567                 1.6370
 Frc consts  --      0.6343                 1.0258                 0.9133
 IR Inten    --      0.7147                 0.7896                 0.4927

                     46                     47                     48
                      A                      A                      A
 Frequencies --    985.6369              1018.6759              1055.8236
 Red. masses --      1.6879                 1.8173                 2.0821
 Frc consts  --      0.9661                 1.1111                 1.3675
 IR Inten    --      0.1135                 3.2341                 7.3915

                     49                     50                     51
                      A                      A                      A
 Frequencies --   1065.3500              1069.3893              1102.5233
 Red. masses --      2.4626                 1.7999                 1.7548
 Frc consts  --      1.6467                 1.2127                 1.2568
 IR Inten    --      4.3410                 1.9011                 3.0796

                     52                     53                     54
                      A                      A                      A
 Frequencies --   1109.7404              1120.5946              1145.1439
 Red. masses --      1.5833                 1.3854                 1.7533
 Frc consts  --      1.1488                 1.0250                 1.3547
 IR Inten    --      5.3336                 3.0587                 1.6167

                     55                     56                     57
                      A                      A                      A
 Frequencies --   1154.9386              1162.0632              1189.8051
 Red. masses --      2.6286                 1.6582                 2.6643
 Frc consts  --      2.0659                 1.3193                 2.2222
 IR Inten    --     34.2508                 9.0710                23.7974

                     58                     59                     60
                      A                      A                      A
 Frequencies --   1204.0424              1209.6518              1229.8451
 Red. masses --      1.9137                 1.9315                 1.5326
 Frc consts  --      1.6346                 1.6652                 1.3657
 IR Inten    --      4.5859                 3.7132                 3.4568

                     61                     62                     63
                      A                      A                      A
 Frequencies --   1254.0031              1276.1830              1281.8253
 Red. masses --      1.2943                 1.4328                 1.3507
 Frc consts  --      1.1992                 1.3749                 1.3075
 IR Inten    --      4.4045                 6.0733                 5.6079

                     64                     65                     66
                      A                      A                      A
 Frequencies --   1301.1970              1321.7435              1347.2658
 Red. masses --      1.3088                 1.2519                 1.2633
 Frc consts  --      1.3056                 1.2886                 1.3510
 IR Inten    --      1.3272                 1.1521                 3.8222

                     67                     68                     69
                      A                      A                      A
 Frequencies --   1353.5974              1374.0137              1385.1503
 Red. masses --      1.3151                 1.2474                 1.3929
 Frc consts  --      1.4196                 1.3875                 1.5746
 IR Inten    --      8.6600                 1.5078                 9.1683

                     70                     71                     72
                      A                      A                      A
 Frequencies --   1387.9768              1399.5755              1409.4214
 Red. masses --      1.3470                 1.3986                 1.8932
 Frc consts  --      1.5289                 1.6141                 2.2158
 IR Inten    --      5.6349                 7.1081                 1.3819

                     73                     74                     75
                      A                      A                      A
 Frequencies --   1414.4036              1424.6717              1428.0045
 Red. masses --      1.4092                 1.3581                 1.3127
 Frc consts  --      1.6610                 1.6240                 1.5771
 IR Inten    --      1.6027                 3.0356                 1.5819

                     76                     77                     78
                      A                      A                      A
 Frequencies --   1430.4133              1444.9832              1449.0375
 Red. masses --      1.3278                 1.3616                 1.2583
 Frc consts  --      1.6007                 1.6751                 1.5567
 IR Inten    --      6.4118                 8.2910                 6.8310

                     79                     80                     81
                      A                      A                      A
 Frequencies --   1500.0256              1506.4849              1508.0242
 Red. masses --      1.1233                 1.6625                 1.7515
 Frc consts  --      1.4892                 2.2231                 2.3467
 IR Inten    --     10.6602                11.0434                 8.3302

                     82                     83                     84
                      A                      A                      A
 Frequencies --   1511.3499              1516.8698              1517.4379
 Red. masses --      1.0851                 1.0736                 1.2351
 Frc consts  --      1.4604                 1.4554                 1.6756
 IR Inten    --      9.0726                 3.5884                 8.5817

                     85                     86                     87
                      A                      A                      A
 Frequencies --   1523.0934              1525.5473              1528.7558
 Red. masses --      1.0632                 1.0538                 1.0484
 Frc consts  --      1.4532                 1.4450                 1.4436
 IR Inten    --     11.4158                 6.2815                 0.7509

                     88                     89                     90
                      A                      A                      A
 Frequencies --   1532.8860              1535.6652              1544.1481
 Red. masses --      1.1046                 1.0588                 1.0609
 Frc consts  --      1.5292                 1.4712                 1.4903
 IR Inten    --      6.3485                 2.0428                 8.2001

                     91                     92                     93
                      A                      A                      A
 Frequencies --   1553.9309              1605.4746              2937.6836
 Red. masses --      1.0909                 5.4244                 1.0737
 Frc consts  --      1.5520                 8.2378                 5.4594
 IR Inten    --      1.1036                 1.3969                80.7817

                     94                     95                     96
                      A                      A                      A
 Frequencies --   3017.2702              3023.1377              3033.1604
 Red. masses --      1.0736                 1.0759                 1.0472
 Frc consts  --      5.7585                 5.7935                 5.6763
 IR Inten    --     12.8343                26.6999                19.8493

                     97                     98                     99
                      A                      A                      A
 Frequencies --   3034.2640              3038.0942              3040.9331
 Red. masses --      1.0587                 1.0622                 1.0503
 Frc consts  --      5.7428                 5.7765                 5.7223
 IR Inten    --     19.7251                38.0800                22.8927

                    100                    101                    102
                      A                      A                      A
 Frequencies --   3043.5881              3046.5550              3051.4380
 Red. masses --      1.0478                 1.0635                 1.0761
 Frc consts  --      5.7189                 5.8157                 5.9038
 IR Inten    --     17.0277                45.3702                40.6785

                    103                    104                    105
                      A                      A                      A
 Frequencies --   3058.5972              3073.8311              3086.4820
 Red. masses --      1.0671                 1.1021                 1.0936
 Frc consts  --      5.8816                 6.1352                 6.1384
 IR Inten    --     16.0211                28.8659                 3.0745

                    106                    107                    108
                      A                      A                      A
 Frequencies --   3088.7235              3095.3637              3103.3469
 Red. masses --      1.0975                 1.1011                 1.1002
 Frc consts  --      6.1692                 6.2161                 6.2428
 IR Inten    --     51.9480                 5.0718                84.5743

                    109                    110                    111
                      A                      A                      A
 Frequencies --   3107.1666              3108.8926              3109.7654
 Red. masses --      1.1002                 1.0984                 1.0989
 Frc consts  --      6.2585                 6.2550                 6.2611
 IR Inten    --      6.8986                43.0313                94.7912

                    112                    113                    114
                      A                      A                      A
 Frequencies --   3113.5655              3133.5959              3202.9496
 Red. masses --      1.1001                 1.1031                 1.0903
 Frc consts  --      6.2834                 6.3822                 6.5899
 IR Inten    --     32.1358                29.1418                12.0178

                    115                    116                    117
                      A                      A                      A
 Frequencies --   3226.4884              3272.4023              3489.3946
 Red. masses --      1.0933                 1.0971                 1.0730
 Frc consts  --      6.7058                 6.9219                 7.6976
 IR Inten    --      7.7129                 1.2756                 0.6141

 - Thermochemistry -
 -------------------
 Temperature   298.150 Kelvin.  Pressure   1.00000 Atm.
 Atom     1 has atomic number  6 and mass  12.00000

 Molecular mass:   239.17077 amu.
 Principal axes and moments of inertia in atomic units:
                           1         2         3
     Eigenvalues --  3279.157406324.257587828.29474
           X            0.99968   0.02530   0.00159
           Y           -0.02530   0.99968  -0.00021
           Z           -0.00159   0.00017   1.00000
 This molecule is an asymmetric top.
 Rotational symmetry number  1.
 Warning -- assumption of classical behavior for rotation
           may cause significant error
 Rotational temperatures (Kelvin)      0.02641     0.01370     0.01106
 Rotational constants (GHZ):           0.55037     0.28537     0.23054
 Zero-point vibrational energy     972744.3 (Joules/Mol)
                                  232.49148 (Kcal/Mol)
 Warning -- explicit consideration of  27 degrees of freedom as
           vibrations may cause significant error
 Vibrational temperatures:     38.21    44.34    69.98    80.59    90.81
          (Kelvin)            118.30   133.66   176.86   222.92   225.68
                              292.87   324.17   349.38   388.14   391.79
                              417.67   445.40   475.91   507.80   550.26
                              597.45   609.62   665.39   717.93   775.64
                              801.64   847.02   897.79   953.44  1012.95
                             1041.57  1078.61  1106.77  1170.29  1189.03
                             1198.40  1234.52  1263.67  1286.96  1303.65
                             1312.57  1350.24  1354.68  1393.20  1400.09
                             1418.11  1465.65  1519.09  1532.80  1538.61
                             1586.29  1596.67  1612.29  1647.61  1661.70
                             1671.95  1711.86  1732.35  1740.42  1769.47
                             1804.23  1836.14  1844.26  1872.13  1901.69
                             1938.42  1947.52  1976.90  1992.92  1996.99
                             2013.68  2027.84  2035.01  2049.78  2054.58
                             2058.05  2079.01  2084.84  2158.20  2167.50
                             2169.71  2174.50  2182.44  2183.25  2191.39
                             2194.92  2199.54  2205.48  2209.48  2221.68
                             2235.76  2309.92  4226.67  4341.18  4349.62
                             4364.04  4365.63  4371.14  4375.22  4379.04
                             4383.31  4390.34  4400.64  4422.56  4440.76
                             4443.98  4453.54  4465.02  4470.52  4473.00
                             4474.26  4479.73  4508.55  4608.33  4642.20
                             4708.26  5020.46

 Zero-point correction=                           0.370499 (Hartree/Particle)
 Thermal correction to Energy=                    0.388958
 Thermal correction to Enthalpy=                  0.389903
 Thermal correction to Gibbs Free Energy=         0.322367
 Sum of electronic and zero-point Energies=          -1001.185023
 Sum of electronic and thermal Energies=             -1001.166563
 Sum of electronic and thermal Enthalpies=           -1001.165619
 Sum of electronic and thermal Free Energies=        -1001.233155

                     E (Thermal)             CV                S
                      KCal/Mol        Cal/Mol-Kelvin    Cal/Mol-Kelvin
 Total                  244.075             69.338            142.141
 Electronic               0.000              0.000              0.000
 Translational            0.889              2.981             42.317
 Rotational               0.889              2.981             33.451
 Vibrational            242.298             63.377             66.373
 Vibration     1          0.593              1.984              6.072
 Vibration     2          0.594              1.984              5.776
 Vibration     3          0.595              1.978              4.872
 Vibration     4          0.596              1.975              4.593
 Vibration     5          0.597              1.972              4.357
 Vibration     6          0.600              1.961              3.837
 Vibration     7          0.602              1.954              3.598
 Vibration     8          0.610              1.930              3.054
 Vibration     9          0.620              1.897              2.611
 Vibration    10          0.621              1.895              2.587
 Vibration    11          0.639              1.835              2.101
 Vibration    12          0.650              1.802              1.916
 Vibration    13          0.659              1.775              1.782
 Vibration    14          0.674              1.729              1.598
 Vibration    15          0.675              1.724              1.582
 Vibration    16          0.686              1.692              1.472
 Vibration    17          0.699              1.655              1.365
 Vibration    18          0.713              1.614              1.256
 Vibration    19          0.729              1.569              1.153
 Vibration    20          0.752              1.508              1.029
 Vibration    21          0.779              1.437              0.908
 Vibration    22          0.786              1.419              0.879
 Vibration    23          0.820              1.333              0.759
 Vibration    24          0.854              1.252              0.661
 Vibration    25          0.894              1.164              0.567
 Vibration    26          0.913              1.124              0.530
 Vibration    27          0.946              1.056              0.469

                           ! Non-Optimized Parameters !
 Normal termination of Gaussian 16 at Thu Dec 10 22:41:09 2020.

 ----------------------------------------------------------------------
 # B3LYP/6-311++G(d,p) empiricaldispersion=gd3bj scf=xqc pop=npa geom=c
 heck
 ----------------------------------------------------------------------

 --------------------------------------
 CID_63773701_JID_6364_Energie_neutraal
 --------------------------------------
 Structure from the checkpoint file:  "JID_6364.chk"
 Charge =  0 Multiplicity = 1

 SCF Done:  E(RB3LYP) =  -1001.75078299     A.U. after   16 cycles
 Normal termination of Gaussian 16 at Thu Dec 10 22:50:00 2020.

 ----------------------------------------------------------------------
 # B3LYP/6-311++G(d,p) empiricaldispersion=gd3bj scf=xqc pop=npa geom=c
 heck
 ----------------------------------------------------------------------

 ------------------------------------
 CID_63773701_JID_6364_Energie_kation
 ------------------------------------
 Structure from the checkpoint file:  "JID_6364.chk"
 Charge =  1 Multiplicity = 2

 SCF Done:  E(UB3LYP) =  -1001.46569601     A.U. after   27 cycles
 Normal termination of Gaussian 16 at Thu Dec 10 23:13:24 2020.
 Gaussian 16:  ES64L-G16RevA.03 25-Dec-2016

 ----------------------------------------------------------------------
 # B3LYP/6-311++G(d,p) empiricaldispersion=gd3bj scf=xqc pop=npa geom=c
 heck
 ----------------------------------------------------------------------

 -----------------------------------
 CID_63773701_JID_6364_Energie_anion
 -----------------------------------
 Structure from the checkpoint file:  "JID_6364.chk"
 Charge = -1 Multiplicity = 2

                         Standard orientation:
 ---------------------------------------------------------------------
 Center     Atomic      Atomic             Coordinates (Angstroms)
 Number     Number       Type             X           Y           Z
 ---------------------------------------------------------------------
      1          6           0       -1.540334    3.756582    0.945455
      2          6           0       -1.252192    2.829030   -0.231498
      3          7           0       -0.943563    1.486032    0.242168
      4          6           0       -0.725676    0.474138   -0.792019
      5          6           0        0.443195    0.774041   -1.770740
      6          6           0        1.755614    1.280625   -1.137532
      7          6           0        2.423218    0.338479   -0.180619
      8          6           0        2.602515    0.484767    1.169980
      9          6           0        3.229222   -0.640410    1.791964
     10          6           0        3.526957   -1.633790    0.903109
     11         16           0        3.047721   -1.205778   -0.712166
     12          6           0       -0.624199   -0.912446   -0.132976
     13          6           0       -1.821742   -1.273508    0.757399
     14          6           0       -3.204970   -1.213894    0.087854
     15          6           0       -3.296043   -2.116372   -1.148829
     16          6           0       -4.296480   -1.577032    1.102177
     17          1           0       -2.356249    3.356049    1.555128
     18          1           0       -1.814532    4.759014    0.599289
     19          1           0       -0.656850    3.857737    1.589029
     20          1           0       -2.141898    2.753355   -0.870749
     21          1           0       -0.459118    3.275172   -0.861133
     22          1           0       -0.143690    1.507234    0.872943
     23          1           0       -1.636314    0.477119   -1.407023
     24          1           0        0.646931   -0.126635   -2.364082
     25          1           0        0.118856    1.540648   -2.485728
     26          1           0        2.446537    1.538152   -1.950938
     27          1           0        1.563848    2.215424   -0.598103
     28          1           0        2.290802    1.375266    1.707133
     29          1           0        3.448057   -0.701467    2.852296
     30          1           0        4.005461   -2.584773    1.092596
     31          1           0       -0.497124   -1.660151   -0.925378
     32          1           0        0.284587   -0.964205    0.475158
     33          1           0       -1.665185   -2.289004    1.150761
     34          1           0       -1.830772   -0.597522    1.619539
     35          1           0       -3.380889   -0.176264   -0.227781
     36          1           0       -3.085216   -3.160847   -0.883511
     37          1           0       -4.299570   -2.081475   -1.589130
     38          1           0       -2.582985   -1.821897   -1.926571
     39          1           0       -4.256170   -0.920424    1.979131
     40          1           0       -5.296785   -1.491248    0.661194
     41          1           0       -4.174837   -2.610302    1.453053
 ---------------------------------------------------------------------

 SCF Done:  E(UB3LYP) =  -1001.73764837     A.U. after   33 cycles
 SCF Done:  E(UB3LYP) =  -1001.73764837     a.u. after    1 cycles

 The electronic state is 2-A.
 Alpha  occ. eigenvalues --  -88.77183 -14.19211 -10.09990 -10.09643 -10.09467
 Alpha  occ. eigenvalues --  -10.08989 -10.07904 -10.07898 -10.07565 -10.07211
 Alpha  occ. eigenvalues --  -10.06706 -10.06631 -10.06547 -10.06065 -10.06053
 Alpha  occ. eigenvalues --  -10.05889  -7.85825  -5.82107  -5.81745  -5.81430
 Alpha  occ. eigenvalues --   -0.80887  -0.78137  -0.71767  -0.69359  -0.66318
 Alpha  occ. eigenvalues --   -0.63414  -0.62720  -0.61622  -0.59288  -0.56886
 Alpha  occ. eigenvalues --   -0.52629  -0.50816  -0.48540  -0.46225  -0.45026
 Alpha  occ. eigenvalues --   -0.43487  -0.40554  -0.38820  -0.37672  -0.36472
 Alpha  occ. eigenvalues --   -0.35361  -0.34644  -0.33903  -0.32591  -0.32290
 Alpha  occ. eigenvalues --   -0.31312  -0.30582  -0.29587  -0.29270  -0.28451
 Alpha  occ. eigenvalues --   -0.28191  -0.27731  -0.27134  -0.26732  -0.25666
 Alpha  occ. eigenvalues --   -0.25534  -0.24651  -0.24085  -0.23980  -0.23420
 Alpha  occ. eigenvalues --   -0.22265  -0.21730  -0.20652  -0.15653  -0.13438
 Alpha  occ. eigenvalues --   -0.12252   0.04340
 Alpha virt. eigenvalues --    0.06115   0.06450   0.06751   0.07467   0.08075
 Alpha virt. eigenvalues --    0.08305   0.08562   0.09031   0.09304   0.10062
 Alpha virt. eigenvalues --    0.10547   0.10844   0.11340   0.11599   0.11787

  Beta  occ. eigenvalues --  -88.77171 -14.19206 -10.09903 -10.09561 -10.09460
  Beta  occ. eigenvalues --  -10.08965 -10.07901 -10.07885 -10.07560 -10.07195
  Beta  occ. eigenvalues --  -10.06695 -10.06612 -10.06532 -10.06062 -10.06026
  Beta  occ. eigenvalues --  -10.05888  -7.85813  -5.82102  -5.81741  -5.81393
  Beta  occ. eigenvalues --   -0.80869  -0.78041  -0.71754  -0.69296  -0.66262
  Beta  occ. eigenvalues --   -0.63344  -0.62691  -0.61534  -0.59260  -0.56839
  Beta  occ. eigenvalues --   -0.52578  -0.50750  -0.48487  -0.46144  -0.45000
  Beta  occ. eigenvalues --   -0.43375  -0.40485  -0.38777  -0.37651  -0.36447
  Beta  occ. eigenvalues --   -0.35335  -0.34591  -0.33871  -0.32554  -0.32243
  Beta  occ. eigenvalues --   -0.31267  -0.30535  -0.29572  -0.29228  -0.28375
  Beta  occ. eigenvalues --   -0.28077  -0.27693  -0.27086  -0.26666  -0.25630
  Beta  occ. eigenvalues --   -0.25482  -0.24613  -0.24035  -0.23947  -0.23373
  Beta  occ. eigenvalues --   -0.22252  -0.21697  -0.20623  -0.15475  -0.13082
  Beta  occ. eigenvalues --   -0.12187
  Beta virt. eigenvalues --    0.06145   0.06634   0.07016   0.07338   0.07874
  Beta virt. eigenvalues --    0.08367   0.08525   0.08925   0.09343   0.09567
  Beta virt. eigenvalues --    0.10406   0.10731   0.11013   0.11347   0.11761

 Mulliken charges and spin densities:
               1          2
     1  C    0.791603  -1.382375
     2  C   -0.080086   0.018355
     3  N    0.040920   0.047344
     4  C   -0.485442   0.395953
     5  C    0.047504  -0.597365
     6  C    1.437199  -2.192736
     7  C   -0.045270   0.506531
     8  C   -1.081204   0.826637
     9  C    0.646968  -1.050490
    10  C   -0.513107   0.216293
    11  S    0.035669   0.192921
    12  C   -0.903222   0.598309
    13  C    0.249001  -0.807820
    14  C   -0.251446   0.856425
    15  C   -0.155300  -0.682989
    16  C   -0.094876  -0.480242
    17  H    0.002014   0.144609
    18  H   -0.267633   0.401806
    19  H   -0.160661   0.283603
    20  H   -0.226911   0.357327
    21  H   -0.113630   0.244567
    22  H    0.346902  -0.190797
    23  H    0.158671   0.090565
    24  H   -0.019317   0.174335
    25  H   -0.287241   0.466531
    26  H   -0.451643   0.659579
    27  H    0.106941   0.093446
    28  H   -0.394398   0.550653
    29  H   -0.071794   0.214546
    30  H    0.047889   0.175343
    31  H    0.137342  -0.019056
    32  H    0.287452  -0.095871
    33  H    0.061813   0.092622
    34  H    0.094215   0.014842
    35  H    0.082444   0.092218
    36  H    0.041100   0.100015
    37  H   -0.079613   0.216922
    38  H   -0.025732   0.164273
    39  H    0.058187   0.082076
    40  H   -0.032730   0.171306
    41  H    0.067420   0.049789
 Sum of Mulliken charges =  -1.00000   1.00000

 Dipole moment (field-independent basis, Debye):
    X=              0.2092    Y=             -5.3554    Z=              1.8294  Tot=              5.6631
 Quadrupole moment (field-independent basis, Debye-Ang):
   XX=           -179.5936   YY=           -166.4212   ZZ=           -150.5662
   XY=             -3.9663   XZ=             -0.1958   YZ=              2.4043

 Summary of Natural Population Analysis:

                                       Natural Population
                Natural  -----------------------------------------------
    Atom  No    Charge         Core      Valence    Rydberg      Total
 -----------------------------------------------------------------------
      C    1   -0.28456      0.99967     2.28044    0.00445     3.28456
      C    2   -0.08603      0.99964     2.07611    0.01028     3.08603
      N    3   -0.34739      0.99973     2.83669    0.01097     3.84739
      C    4   -0.00934      0.99959     1.99649    0.01327     3.00934
      C    5   -0.19136      0.99960     2.18183    0.00993     3.19136
      C    6   -0.21217      0.99956     2.20019    0.01242     3.21217
      C    7   -0.08023      0.99949     2.06642    0.01431     3.08023
      C    8   -0.13710      0.99944     2.12684    0.01082     3.13710
      C    9   -0.12993      0.99953     2.11911    0.01128     3.12993
      C   10   -0.18727      0.99954     2.17701    0.01072     3.18727
      S   11    0.19984      4.99939     2.78154    0.01923     7.80016
      C   12   -0.19312      0.99960     2.18571    0.00781     3.19312
      C   13   -0.18476      0.99961     2.17704    0.00810     3.18476
      C   14   -0.12091      0.99961     2.11123    0.01007     3.12091
      C   15   -0.28506      0.99965     2.28054    0.00487     3.28506
      C   16   -0.27999      0.99965     2.27571    0.00463     3.27999
      H   17    0.09842      0.00000     0.40027    0.00131     0.40158
      H   18    0.09909      0.00000     0.39985    0.00106     0.40091
      H   19    0.09449      0.00000     0.40404    0.00146     0.40551
      H   20    0.08959      0.00000     0.40887    0.00153     0.41041
      H   21    0.07873      0.00000     0.41916    0.00211     0.42127
      H   22    0.17136      0.00000     0.32486    0.00377     0.32864
      H   23    0.09047      0.00000     0.40704    0.00249     0.40953
      H   24    0.09835      0.00000     0.40044    0.00121     0.40165
      H   25    0.10224      0.00000     0.39635    0.00141     0.39776
      H   26    0.11077      0.00000     0.38724    0.00199     0.38923
      H   27    0.10679      0.00000     0.39118    0.00203     0.39321
      H   28    0.10657      0.00000     0.39202    0.00141     0.39343
      H   29    0.10476      0.00000     0.39440    0.00083     0.39524
      H   30    0.10569      0.00000     0.39355    0.00076     0.39431
      H   31    0.09587      0.00000     0.40289    0.00124     0.40413
      H   32    0.10547      0.00000     0.39250    0.00203     0.39453
      H   33    0.09123      0.00000     0.40776    0.00101     0.40877
      H   34    0.10326      0.00000     0.39544    0.00130     0.39674
      H   35    0.09715      0.00000     0.40076    0.00209     0.40285
      H   36    0.09345      0.00000     0.40564    0.00092     0.40655
      H   37    0.09737      0.00000     0.40171    0.00092     0.40263
      H   38    0.10017      0.00000     0.39894    0.00089     0.39983
      H   39    0.09924      0.00000     0.39984    0.00092     0.40076
      H   40    0.09635      0.00000     0.40277    0.00087     0.40365
      H   41    0.09249      0.00000     0.40655    0.00096     0.40751
 =======================================================================
   * Total *   -0.00000     19.99331    45.80700    0.19968    66.00000

 Normal termination of Gaussian 16 at Thu Dec 10 23:37:05 2020.
