 Gaussian 16, Revision A.03,

 -----------------------------------------------------------
 # opt freq B3LYP/6-31G(d) empiricaldispersion=gd3bj scf=xqc
 -----------------------------------------------------------

 -------------------------------
 CID_116929026_JID_2032_neutraal
 -------------------------------
 Symbolic Z-matrix:
 Charge =  0 Multiplicity = 1

 SCF Done:  E(RB3LYP) =  -520.056306413     A.U. after   14 cycles
 SCF Done:  E(RB3LYP) =  -520.060587268     A.U. after   12 cycles
 SCF Done:  E(RB3LYP) =  -520.062057716     A.U. after   12 cycles
 SCF Done:  E(RB3LYP) =  -520.063144132     A.U. after   12 cycles
 SCF Done:  E(RB3LYP) =  -520.063481112     A.U. after   12 cycles
 SCF Done:  E(RB3LYP) =  -520.063590804     A.U. after   10 cycles
 SCF Done:  E(RB3LYP) =  -520.063611523     A.U. after   10 cycles
 SCF Done:  E(RB3LYP) =  -520.063619224     A.U. after   10 cycles
 SCF Done:  E(RB3LYP) =  -520.063619524     A.U. after    9 cycles
 SCF Done:  E(RB3LYP) =  -520.063619905     A.U. after    7 cycles
 SCF Done:  E(RB3LYP) =  -520.063620589     A.U. after    7 cycles
 SCF Done:  E(RB3LYP) =  -520.063620748     A.U. after    7 cycles
 SCF Done:  E(RB3LYP) =  -520.063620918     A.U. after    7 cycles
 Optimization completed.
    -- Stationary point found.
 Normal termination of Gaussian 16 at Wed Dec  9 16:46:00 2020.

 --------------------------------------------------------------------
 #N Geom=AllCheck Guess=TCheck SCRF=Check GenChk RB3LYP/6-31G(d) Freq
 --------------------------------------------------------------------

 Structure from the checkpoint file:  "JID_2032.chk"
 -------------------------------
 CID_116929026_JID_2032_neutraal
 -------------------------------
 Charge =  0 Multiplicity = 1

 SCF Done:  E(RB3LYP) =  -520.063620918     A.U. after    1 cycles

  Exact polarizability: 135.721   0.851 107.287   7.484   4.757  83.589
 Approx polarizability: 171.489  -2.452 172.925  13.539   9.342 122.531

                      1                      2                      3
                      A                      A                      A
 Frequencies --     31.1671                62.4999                85.4365
 Red. masses --      3.6823                 3.2503                 3.7046
 Frc consts  --      0.0021                 0.0075                 0.0159
 IR Inten    --      0.0477                 0.4592                 1.3956

                      4                      5                      6
                      A                      A                      A
 Frequencies --    121.2746               133.6735               206.8401
 Red. masses --      2.6896                 1.1245                 3.6140
 Frc consts  --      0.0233                 0.0118                 0.0911
 IR Inten    --      2.2192                 0.1538                 1.3452

                      7                      8                      9
                      A                      A                      A
 Frequencies --    216.1862               243.3069               264.0217
 Red. masses --      3.2671                 1.9362                 1.4627
 Frc consts  --      0.0900                 0.0675                 0.0601
 IR Inten    --      3.2145                14.1522                31.8866

                     10                     11                     12
                      A                      A                      A
 Frequencies --    305.7049               334.5899               359.3084
 Red. masses --      3.5342                 1.9228                 1.9706
 Frc consts  --      0.1946                 0.1268                 0.1499
 IR Inten    --      0.9357                 0.2486                22.8013

                     13                     14                     15
                      A                      A                      A
 Frequencies --    394.5163               416.5442               514.6770
 Red. masses --      2.4882                 2.8885                 3.2739
 Frc consts  --      0.2282                 0.2953                 0.5110
 IR Inten    --      0.8470                 3.2071                 6.3237

                     16                     17                     18
                      A                      A                      A
 Frequencies --    624.4958               634.0769               668.6646
 Red. masses --      4.1536                 4.4299                 4.2884
 Frc consts  --      0.9544                 1.0494                 1.1297
 IR Inten    --      0.5184                 0.1716                 0.9084

                     19                     20                     21
                      A                      A                      A
 Frequencies --    727.6102               770.4825               798.4693
 Red. masses --      3.2852                 3.4076                 1.1725
 Frc consts  --      1.0247                 1.1919                 0.4404
 IR Inten    --      1.3632                 0.1327                29.6636

                     22                     23                     24
                      A                      A                      A
 Frequencies --    806.1993               841.6435               860.1899
 Red. masses --      1.1163                 1.3646                 1.7503
 Frc consts  --      0.4275                 0.5695                 0.7630
 IR Inten    --     10.3636                 0.8961                66.8512

                     25                     26                     27
                      A                      A                      A
 Frequencies --    867.8133               916.8724               949.5356
 Red. masses --      1.4647                 1.7794                 2.3756
 Frc consts  --      0.6499                 0.8813                 1.2620
 IR Inten    --     50.0039                 9.5949                 8.9184

                     28                     29                     30
                      A                      A                      A
 Frequencies --    961.1185               973.5154               990.4424
 Red. masses --      1.5114                 2.4843                 3.1568
 Frc consts  --      0.8226                 1.3872                 1.8246
 IR Inten    --     11.2279                 4.0916                 3.4819

                     31                     32                     33
                      A                      A                      A
 Frequencies --   1019.8716              1031.2481              1041.5162
 Red. masses --      2.2281                 1.7469                 1.6420
 Frc consts  --      1.3655                 1.0946                 1.0494
 IR Inten    --      0.1614                10.2490                27.4544

                     34                     35                     36
                      A                      A                      A
 Frequencies --   1053.3327              1066.0073              1080.6796
 Red. masses --      1.5432                 1.5148                 2.6252
 Frc consts  --      1.0088                 1.0142                 1.8064
 IR Inten    --     25.2752                 2.3143                13.3024

                     37                     38                     39
                      A                      A                      A
 Frequencies --   1081.6642              1088.5309              1182.9487
 Red. masses --      1.4547                 1.3955                 1.2543
 Frc consts  --      1.0028                 0.9743                 1.0342
 IR Inten    --      2.4000                 0.7513                 4.0242

                     40                     41                     42
                      A                      A                      A
 Frequencies --   1206.1093              1224.1646              1240.5947
 Red. masses --      1.3719                 1.6982                 1.9352
 Frc consts  --      1.1759                 1.4994                 1.7548
 IR Inten    --      2.0215                 6.5651                 3.7276

                     43                     44                     45
                      A                      A                      A
 Frequencies --   1262.3708              1277.4494              1293.7942
 Red. masses --      4.0022                 2.0134                 1.5545
 Frc consts  --      3.7577                 1.9358                 1.5331
 IR Inten    --     17.1962                 1.4530                 8.0191

                     46                     47                     48
                      A                      A                      A
 Frequencies --   1302.8720              1377.1888              1397.1423
 Red. masses --      1.7746                 1.8283                 1.5689
 Frc consts  --      1.7749                 2.0431                 1.8043
 IR Inten    --      1.5305                 6.3441                 0.6873

                     49                     50                     51
                      A                      A                      A
 Frequencies --   1412.8769              1445.0534              1449.6367
 Red. masses --      2.6430                 1.2925                 1.5780
 Frc consts  --      3.1085                 1.5902                 1.9537
 IR Inten    --      0.9129                 1.2401                26.3574

                     52                     53                     54
                      A                      A                      A
 Frequencies --   1492.2697              1502.8824              1507.1990
 Red. masses --      1.0915                 1.0431                 1.0968
 Frc consts  --      1.4321                 1.3881                 1.4680
 IR Inten    --      3.5936                 6.1007                 4.4453

                     55                     56                     57
                      A                      A                      A
 Frequencies --   1522.6048              1532.2156              1541.5765
 Red. masses --      1.1048                 1.2277                 1.2139
 Frc consts  --      1.5090                 1.6982                 1.6997
 IR Inten    --      6.1782                 2.2791                 6.6354

                     58                     59                     60
                      A                      A                      A
 Frequencies --   1617.9422              1672.1066              1688.2660
 Red. masses --      7.3379                 6.1427                 1.0906
 Frc consts  --     11.3175                10.1189                 1.8314
 IR Inten    --     19.6956                 9.2008                33.3386

                     61                     62                     63
                      A                      A                      A
 Frequencies --   2952.4620              3042.0999              3045.2422
 Red. masses --      1.0729                 1.0383                 1.0730
 Frc consts  --      5.5101                 5.6614                 5.8627
 IR Inten    --     85.7319                37.6101                 1.4191

                     64                     65                     66
                      A                      A                      A
 Frequencies --   3049.9308              3090.5281              3099.3886
 Red. masses --      1.0795                 1.1014                 1.0978
 Frc consts  --      5.9164                 6.1983                 6.2132
 IR Inten    --     69.4908                19.4758                 6.8956

                     67                     68                     69
                      A                      A                      A
 Frequencies --   3139.6195              3142.4624              3145.5431
 Red. masses --      1.0991                 1.0532                 1.0599
 Frc consts  --      6.3833                 6.1280                 6.1788
 IR Inten    --     12.9192                19.3842                18.8083

                     70                     71                     72
                      A                      A                      A
 Frequencies --   3223.4115              3239.0819              3257.3054
 Red. masses --      1.1168                 1.1129                 1.0928
 Frc consts  --      6.8370                 6.8794                 6.8315
 IR Inten    --      3.2529                13.1418                 9.8695

                     73                     74                     75
                      A                      A                      A
 Frequencies --   3270.5920              3465.7660              3553.6490
 Red. masses --      1.1009                 1.0495                 1.0926
 Frc consts  --      6.9380                 7.4276                 8.1293
 IR Inten    --      2.7123                 2.0161                 0.7942

 - Thermochemistry -
 -------------------
 Temperature   298.150 Kelvin.  Pressure   1.00000 Atm.
 Atom     1 has atomic number  6 and mass  12.00000

 Molecular mass:   165.11536 amu.
 Principal axes and moments of inertia in atomic units:
                           1         2         3
     Eigenvalues --   936.834953565.423923705.86015
           X            0.99997   0.00611   0.00509
           Y           -0.00636   0.99873   0.05006
           Z           -0.00478  -0.05009   0.99873
 This molecule is an asymmetric top.
 Rotational symmetry number  1.
 Warning -- assumption of classical behavior for rotation
           may cause significant error
 Rotational temperatures (Kelvin)      0.09245     0.02429     0.02337
 Rotational constants (GHZ):           1.92642     0.50618     0.48700
 Zero-point vibrational energy     618529.6 (Joules/Mol)
                                  147.83212 (Kcal/Mol)
 Warning -- explicit consideration of  15 degrees of freedom as
           vibrations may cause significant error
 Vibrational temperatures:     44.84    89.92   122.92   174.49   192.33
          (Kelvin)            297.60   311.04   350.06   379.87   439.84
                              481.40   516.96   567.62   599.31   740.51
                              898.51   912.30   962.06  1046.87  1108.55
                             1148.82  1159.94  1210.94  1237.62  1248.59
                             1319.17  1366.17  1382.84  1400.67  1425.03
                             1467.37  1483.74  1498.51  1515.51  1533.75
                             1554.86  1556.27  1566.15  1702.00  1735.32
                             1761.30  1784.94  1816.27  1837.96  1861.48
                             1874.54  1981.47  2010.18  2032.81  2079.11
                             2085.70  2147.04  2162.31  2168.52  2190.69
                             2204.52  2217.98  2327.86  2405.79  2429.04
                             4247.93  4376.90  4381.42  4388.17  4446.58
                             4459.33  4517.21  4521.30  4525.73  4637.77
                             4660.32  4686.54  4705.65  4986.46  5112.91

 Zero-point correction=                           0.235585 (Hartree/Particle)
 Thermal correction to Energy=                    0.247831
 Thermal correction to Enthalpy=                  0.248776
 Thermal correction to Gibbs Free Energy=         0.196576
 Sum of electronic and zero-point Energies=           -519.828035
 Sum of electronic and thermal Energies=              -519.815790
 Sum of electronic and thermal Enthalpies=            -519.814845
 Sum of electronic and thermal Free Energies=         -519.867045

                     E (Thermal)             CV                S
                      KCal/Mol        Cal/Mol-Kelvin    Cal/Mol-Kelvin
 Total                  155.517             46.284            109.864
 Electronic               0.000              0.000              0.000
 Translational            0.889              2.981             41.213
 Rotational               0.889              2.981             30.893
 Vibrational            153.739             40.322             37.758
 Vibration     1          0.594              1.983              5.754
 Vibration     2          0.597              1.972              4.377
 Vibration     3          0.601              1.959              3.762
 Vibration     4          0.609              1.931              3.080
 Vibration     5          0.613              1.920              2.892
 Vibration     6          0.641              1.830              2.071
 Vibration     7          0.645              1.816              1.991
 Vibration     8          0.659              1.774              1.779
 Vibration     9          0.671              1.739              1.635
 Vibration    10          0.696              1.663              1.385
 Vibration    11          0.716              1.606              1.238
 Vibration    12          0.734              1.556              1.125
 Vibration    13          0.761              1.482              0.983
 Vibration    14          0.780              1.434              0.904
 Vibration    15          0.870              1.217              0.622

 Optimization completed.
    -- Stationary point found.
 Normal termination of Gaussian 16 at Wed Dec  9 16:51:42 2020.

 ----------------------------------------------------------------------
 # B3LYP/6-311++G(d,p) empiricaldispersion=gd3bj scf=xqc pop=npa geom=c
 heck
 ----------------------------------------------------------------------

 ---------------------------------------
 CID_116929026_JID_2032_Energie_neutraal
 ---------------------------------------
 Structure from the checkpoint file:  "JID_2032.chk"
 Charge =  0 Multiplicity = 1

 SCF Done:  E(RB3LYP) =  -520.213531170     A.U. after   14 cycles
 Normal termination of Gaussian 16 at Wed Dec  9 16:53:57 2020.

 ----------------------------------------------------------------------
 # B3LYP/6-311++G(d,p) empiricaldispersion=gd3bj scf=xqc pop=npa geom=c
 heck
 ----------------------------------------------------------------------

 -------------------------------------
 CID_116929026_JID_2032_Energie_kation
 -------------------------------------
 Structure from the checkpoint file:  "JID_2032.chk"
 Charge =  1 Multiplicity = 2

 SCF Done:  E(UB3LYP) =  -519.932586593     A.U. after   22 cycles
 Normal termination of Gaussian 16 at Wed Dec  9 16:59:01 2020.
 Gaussian 16:  ES64L-G16RevA.03 25-Dec-2016

 ----------------------------------------------------------------------
 # B3LYP/6-311++G(d,p) empiricaldispersion=gd3bj scf=xqc pop=npa geom=c
 heck
 ----------------------------------------------------------------------

 ------------------------------------
 CID_116929026_JID_2032_Energie_anion
 ------------------------------------
 Structure from the checkpoint file:  "JID_2032.chk"
 Charge = -1 Multiplicity = 2

                         Standard orientation:
 ---------------------------------------------------------------------
 Center     Atomic      Atomic             Coordinates (Angstroms)
 Number     Number       Type             X           Y           Z
 ---------------------------------------------------------------------
      1          6           0        3.572960    1.438561    0.439475
      2          6           0        2.663613    0.347550   -0.000713
      3          6           0        2.824713   -0.988273   -0.215322
      4          6           0        1.549316   -1.493669   -0.639135
      5          6           0        0.689623   -0.435198   -0.658110
      6          8           0        1.364031    0.699427   -0.267069
      7          6           0       -0.754867   -0.289872   -0.983612
      8          6           0       -1.718661   -0.272040    0.209640
      9          6           0       -1.459955   -1.174807    1.386783
     10          6           0       -1.279549    0.319112    1.529750
     11          6           0       -3.163281   -0.044701   -0.195655
     12          7           0       -3.312700    1.256771   -0.856160
     13          1           0        3.647252    2.231087   -0.315479
     14          1           0        3.224194    1.904164    1.369895
     15          1           0        4.574991    1.037055    0.613664
     16          1           0        3.742770   -1.545992   -0.091621
     17          1           0        1.303510   -2.512893   -0.903811
     18          1           0       -0.915846    0.627978   -1.559184
     19          1           0       -1.036768   -1.125688   -1.637158
     20          1           0       -2.311790   -1.640809    1.875760
     21          1           0       -0.562557   -1.786132    1.362273
     22          1           0       -0.270059    0.708279    1.606854
     23          1           0       -2.017621    0.866416    2.112117
     24          1           0       -3.469169   -0.818285   -0.913355
     25          1           0       -3.802167   -0.170810    0.697212
     26          1           0       -4.281133    1.397811   -1.137236
     27          1           0       -3.092427    1.995028   -0.188876
 ---------------------------------------------------------------------

 SCF Done:  E(UB3LYP) =  -520.197530687     A.U. after   32 cycles

 The electronic state is 2-A.
 Alpha  occ. eigenvalues --  -19.08277 -14.18875 -10.12651 -10.12395 -10.09189
 Alpha  occ. eigenvalues --  -10.08615 -10.07814 -10.07799 -10.06941 -10.06928
 Alpha  occ. eigenvalues --  -10.06796 -10.06703  -1.00662  -0.79214  -0.75409
 Alpha  occ. eigenvalues --   -0.70094  -0.69290  -0.63755  -0.58489  -0.55322
 Alpha  occ. eigenvalues --   -0.50622  -0.49748  -0.45544  -0.44568  -0.40405
 Alpha  occ. eigenvalues --   -0.40152  -0.38155  -0.36017  -0.35051  -0.33904
 Alpha  occ. eigenvalues --   -0.33225  -0.32222  -0.30804  -0.29702  -0.29324
 Alpha  occ. eigenvalues --   -0.28735  -0.28374  -0.27190  -0.26298  -0.24610
 Alpha  occ. eigenvalues --   -0.19429  -0.18218  -0.17980  -0.14455  -0.11802
 Alpha  occ. eigenvalues --    0.04425
 Alpha virt. eigenvalues --    0.05759   0.07252   0.08093   0.08328   0.08826
 Alpha virt. eigenvalues --    0.09436   0.10361   0.10673   0.10989   0.11200
 Alpha virt. eigenvalues --    0.12105   0.12431   0.13222   0.13852   0.14056

  Beta  occ. eigenvalues --  -19.08269 -14.18833 -10.12651 -10.12394 -10.09162
  Beta  occ. eigenvalues --  -10.08616 -10.07806 -10.07757 -10.06936 -10.06920
  Beta  occ. eigenvalues --  -10.06781 -10.06681  -1.00649  -0.79168  -0.75365
  Beta  occ. eigenvalues --   -0.70080  -0.69271  -0.63722  -0.58424  -0.55265
  Beta  occ. eigenvalues --   -0.50585  -0.49715  -0.45516  -0.44533  -0.40379
  Beta  occ. eigenvalues --   -0.40116  -0.38108  -0.35982  -0.35016  -0.33869
  Beta  occ. eigenvalues --   -0.33166  -0.32184  -0.30768  -0.29670  -0.29296
  Beta  occ. eigenvalues --   -0.28713  -0.28343  -0.27167  -0.26279  -0.24585
  Beta  occ. eigenvalues --   -0.19408  -0.18207  -0.17963  -0.14411  -0.11787
  Beta virt. eigenvalues --    0.06618   0.07225   0.07666   0.08516   0.08882
  Beta virt. eigenvalues --    0.09466   0.09722   0.10667   0.11009   0.11254
  Beta virt. eigenvalues --    0.11625   0.12363   0.12807   0.13543   0.14147

 Mulliken charges and spin densities:
               1          2
     1  C    3.172668  -3.828994
     2  C   -1.516312   1.654449
     3  C   -1.068759   0.946700
     4  C   -0.153678  -0.170089
     5  C   -0.013452   0.748182
     6  O    0.002028   0.047598
     7  C   -0.106848  -1.114652
     8  C   -1.053444   1.967191
     9  C    0.721265  -1.369921
    10  C   -0.006635  -0.388767
    11  C    1.696085  -2.403590
    12  N   -0.564022   0.248186
    13  H   -0.113998   0.269896
    14  H   -0.149556   0.299678
    15  H   -0.622252   0.793344
    16  H   -0.746217   0.912031
    17  H   -0.106106   0.262623
    18  H    0.249055  -0.022851
    19  H    0.113809   0.055564
    20  H    0.047790   0.096669
    21  H    0.239267  -0.103468
    22  H    0.181610  -0.029413
    23  H   -0.316758   0.487602
    24  H   -0.179065   0.335527
    25  H   -0.421644   0.559537
    26  H   -0.209048   0.458986
    27  H   -0.075780   0.287982
 Sum of Mulliken charges =  -1.00000   1.00000

 Dipole moment (field-independent basis, Debye):
    X=              0.5482    Y=             -3.0019    Z=             -0.7107  Tot=              3.1333
 Quadrupole moment (field-independent basis, Debye-Ang):
   XX=           -177.5415   YY=           -105.3157   ZZ=           -105.7996
   XY=              6.0678   XZ=             -3.9832   YZ=             -0.2437

 Summary of Natural Population Analysis:

                                       Natural Population
                Natural  -----------------------------------------------
    Atom  No    Charge         Core      Valence    Rydberg      Total
 -----------------------------------------------------------------------
      C    1   -0.30588      0.99963     2.30033    0.00592     3.30588
      C    2    0.15078      0.99947     1.83538    0.01436     2.84922
      C    3   -0.15244      0.99949     2.14364    0.00931     3.15244
      C    4   -0.15238      0.99948     2.14391    0.00898     3.15238
      C    5    0.15412      0.99946     1.83191    0.01451     2.84588
      O    6   -0.24475      0.99985     3.23683    0.00807     4.24475
      C    7   -0.21117      0.99954     2.20308    0.00855     3.21117
      C    8   -0.04280      0.99955     2.02990    0.01336     3.04280
      C    9   -0.19819      0.99958     2.19083    0.00779     3.19819
      C   10   -0.19921      0.99958     2.19033    0.00929     3.19921
      C   11   -0.08139      0.99957     2.06911    0.01271     3.08139
      N   12   -0.42468      0.99977     2.91409    0.01082     3.92468
      H   13    0.10631      0.00000     0.39238    0.00132     0.39369
      H   14    0.10703      0.00000     0.39163    0.00134     0.39297
      H   15    0.11081      0.00000     0.38715    0.00203     0.38919
      H   16    0.10858      0.00000     0.39024    0.00118     0.39142
      H   17    0.10643      0.00000     0.39278    0.00079     0.39357
      H   18    0.12053      0.00000     0.37750    0.00196     0.37947
      H   19    0.10569      0.00000     0.39323    0.00108     0.39431
      H   20    0.10081      0.00000     0.39816    0.00103     0.39919
      H   21    0.10566      0.00000     0.39324    0.00110     0.39434
      H   22    0.10869      0.00000     0.38999    0.00132     0.39131
      H   23    0.10253      0.00000     0.39624    0.00123     0.39747
      H   24    0.08921      0.00000     0.40947    0.00132     0.41079
      H   25    0.08307      0.00000     0.41408    0.00285     0.41693
      H   26    0.17833      0.00000     0.31835    0.00333     0.32167
      H   27    0.17428      0.00000     0.32317    0.00255     0.32572
 =======================================================================
   * Total *    0.00000     11.99497    32.85695    0.14808    45.00000

 Normal termination of Gaussian 16 at Wed Dec  9 17:07:00 2020.
