 Gaussian 16, Revision A.03,

 -----------------------------------------------------------
 # opt freq B3LYP/6-31G(d) empiricaldispersion=gd3bj scf=xqc
 -----------------------------------------------------------

 -------------------------------
 CID_144385139_JID_6291_neutraal
 -------------------------------
 Symbolic Z-matrix:
 Charge =  0 Multiplicity = 1

 SCF Done:  E(RB3LYP) =  -673.722522674     A.U. after   15 cycles
 SCF Done:  E(RB3LYP) =  -673.726756243     A.U. after   12 cycles
 SCF Done:  E(RB3LYP) =  -673.727667653     A.U. after   12 cycles
 SCF Done:  E(RB3LYP) =  -673.728779974     A.U. after   13 cycles
 SCF Done:  E(RB3LYP) =  -673.729618537     A.U. after   12 cycles
 SCF Done:  E(RB3LYP) =  -673.730741528     A.U. after   14 cycles
 SCF Done:  E(RB3LYP) =  -673.731448325     A.U. after   14 cycles
 SCF Done:  E(RB3LYP) =  -673.731618972     A.U. after   12 cycles
 SCF Done:  E(RB3LYP) =  -673.731765198     A.U. after   11 cycles
 SCF Done:  E(RB3LYP) =  -673.731797186     A.U. after   11 cycles
 SCF Done:  E(RB3LYP) =  -673.731907442     A.U. after   10 cycles
 SCF Done:  E(RB3LYP) =  -673.731908621     A.U. after   11 cycles
 SCF Done:  E(RB3LYP) =  -673.731912999     A.U. after   10 cycles
 SCF Done:  E(RB3LYP) =  -673.731913704     A.U. after    9 cycles
 SCF Done:  E(RB3LYP) =  -673.731913722     A.U. after    6 cycles
 Optimization completed.
    -- Stationary point found.
 Normal termination of Gaussian 16 at Thu Dec 10 22:13:21 2020.

 --------------------------------------------------------------------
 #N Geom=AllCheck Guess=TCheck SCRF=Check GenChk RB3LYP/6-31G(d) Freq
 --------------------------------------------------------------------

 Structure from the checkpoint file:  "JID_6291.chk"
 -------------------------------
 CID_144385139_JID_6291_neutraal
 -------------------------------
 Charge =  0 Multiplicity = 1

 SCF Done:  E(RB3LYP) =  -673.731913722     A.U. after    1 cycles

  Exact polarizability: 191.076  -5.903 152.049   4.518 -10.796 103.172
 Approx polarizability: 252.695  -3.367 244.195   2.596 -29.276 165.050

                      1                      2                      3
                      A                      A                      A
 Frequencies --     20.4382                31.5848                45.4323
 Red. masses --      3.6448                 3.5752                 3.9543
 Frc consts  --      0.0009                 0.0021                 0.0048
 IR Inten    --      0.0521                 0.0921                 1.5302

                      4                      5                      6
                      A                      A                      A
 Frequencies --     77.6110                83.1074                96.7464
 Red. masses --      3.3657                 3.9686                 3.5182
 Frc consts  --      0.0119                 0.0161                 0.0194
 IR Inten    --      0.5795                 0.4705                 0.8698

                      7                      8                      9
                      A                      A                      A
 Frequencies --    138.5821               167.5524               185.9246
 Red. masses --      3.8066                 2.9603                 1.2330
 Frc consts  --      0.0431                 0.0490                 0.0251
 IR Inten    --      0.1680                 0.2835                 0.2467

                     10                     11                     12
                      A                      A                      A
 Frequencies --    250.7253               266.8757               277.1151
 Red. masses --      4.4182                 3.2037                 3.7441
 Frc consts  --      0.1636                 0.1344                 0.1694
 IR Inten    --      1.4958                 1.3905                 6.8813

                     13                     14                     15
                      A                      A                      A
 Frequencies --    292.4950               324.7953               369.6299
 Red. masses --      3.2795                 4.1215                 4.0261
 Frc consts  --      0.1653                 0.2562                 0.3241
 IR Inten    --      1.4256                 1.3096                 5.1453

                     16                     17                     18
                      A                      A                      A
 Frequencies --    419.8331               476.8821               487.0627
 Red. masses --      3.0507                 3.2459                 2.9551
 Frc consts  --      0.3168                 0.4349                 0.4130
 IR Inten    --      0.3442                 3.8105                 5.4661

                     19                     20                     21
                      A                      A                      A
 Frequencies --    507.6278               561.6752               627.9263
 Red. masses --      3.5420                 4.1588                 2.1460
 Frc consts  --      0.5378                 0.7730                 0.4985
 IR Inten    --      3.7658                28.5074                60.4434

                     22                     23                     24
                      A                      A                      A
 Frequencies --    633.6056               644.9994               671.2779
 Red. masses --      3.0599                 1.8490                 3.5487
 Frc consts  --      0.7238                 0.4532                 0.9422
 IR Inten    --      8.6093                29.7296                 4.6945

                     25                     26                     27
                      A                      A                      A
 Frequencies --    719.4667               736.8582               752.4746
 Red. masses --      2.2107                 1.4374                 1.6877
 Frc consts  --      0.6742                 0.4598                 0.5630
 IR Inten    --     12.5184                 2.6705                43.6690

                     28                     29                     30
                      A                      A                      A
 Frequencies --    757.7957               791.3963               821.6000
 Red. masses --      3.1689                 1.4713                 1.5477
 Frc consts  --      1.0722                 0.5429                 0.6155
 IR Inten    --     24.0738                 4.2351                11.1576

                     31                     32                     33
                      A                      A                      A
 Frequencies --    837.4194               845.8889               871.5165
 Red. masses --      1.6368                 2.8335                 1.2438
 Frc consts  --      0.6763                 1.1945                 0.5566
 IR Inten    --      5.2869                 3.8155                 0.2731

                     34                     35                     36
                      A                      A                      A
 Frequencies --    897.6642               923.2826               932.3847
 Red. masses --      2.6925                 3.1163                 1.3501
 Frc consts  --      1.2783                 1.5652                 0.6915
 IR Inten    --      3.5671                 0.5765                43.2201

                     37                     38                     39
                      A                      A                      A
 Frequencies --    942.8248               956.4537               982.0427
 Red. masses --      1.6929                 2.9199                 1.3355
 Frc consts  --      0.8866                 1.5738                 0.7589
 IR Inten    --      8.1439                44.9269                 0.2544

                     40                     41                     42
                      A                      A                      A
 Frequencies --    992.2552              1002.5737              1022.5790
 Red. masses --      1.6581                 1.2466                 6.0719
 Frc consts  --      0.9618                 0.7382                 3.7408
 IR Inten    --      1.4748                 0.2879                 1.7460

                     43                     44                     45
                      A                      A                      A
 Frequencies --   1048.5057              1064.6416              1073.8143
 Red. masses --      1.5360                 2.1752                 1.2513
 Frc consts  --      0.9949                 1.4526                 0.8501
 IR Inten    --     13.8424                 4.9333                 4.1424

                     46                     47                     48
                      A                      A                      A
 Frequencies --   1091.2932              1098.2399              1109.6212
 Red. masses --      1.5139                 1.3488                 1.8100
 Frc consts  --      1.0623                 0.9585                 1.3130
 IR Inten    --      0.6893                 2.2180                 6.2339

                     49                     50                     51
                      A                      A                      A
 Frequencies --   1123.9532              1125.6701              1158.6478
 Red. masses --      1.3540                 1.1939                 2.8860
 Frc consts  --      1.0078                 0.8914                 2.2827
 IR Inten    --      0.9503                 1.7907                 6.9125

                     52                     53                     54
                      A                      A                      A
 Frequencies --   1195.1095              1213.8873              1221.1717
 Red. masses --      1.0958                 1.9230                 1.3445
 Frc consts  --      0.9222                 1.6695                 1.1813
 IR Inten    --      0.0092                 1.3473                 6.5724

                     55                     56                     57
                      A                      A                      A
 Frequencies --   1221.9414              1242.9816              1293.5487
 Red. masses --      1.3560                 2.2634                 2.3998
 Frc consts  --      1.1929                 2.0604                 2.3658
 IR Inten    --      0.2379                 5.2508                96.3019

                     58                     59                     60
                      A                      A                      A
 Frequencies --   1306.5855              1314.4617              1330.1747
 Red. masses --      2.4128                 1.5148                 1.6866
 Frc consts  --      2.4269                 1.5421                 1.7583
 IR Inten    --    143.0117                12.4873                 0.0574

                     61                     62                     63
                      A                      A                      A
 Frequencies --   1362.1167              1369.7983              1438.4936
 Red. masses --      1.8351                 1.9013                 1.2404
 Frc consts  --      2.0060                 2.1019                 1.5122
 IR Inten    --      3.5374                 0.0263                10.4675

                     64                     65                     66
                      A                      A                      A
 Frequencies --   1462.2061              1474.0160              1478.6356
 Red. masses --      1.6429                 1.6248                 1.0912
 Frc consts  --      2.0696                 2.0799                 1.4056
 IR Inten    --     90.1316               162.5031                 2.7122

                     67                     68                     69
                      A                      A                      A
 Frequencies --   1480.0999              1498.9685              1510.0728
 Red. masses --      1.3506                 2.1810                 1.0487
 Frc consts  --      1.7432                 2.8872                 1.4090
 IR Inten    --     60.6631                 8.9380                 6.8445

                     70                     71                     72
                      A                      A                      A
 Frequencies --   1518.9390              1529.2998              1546.6134
 Red. masses --      1.4462                 1.0577                 2.1794
 Frc consts  --      1.9659                 1.4574                 3.0715
 IR Inten    --     14.6948                 7.2798                17.3041

                     73                     74                     75
                      A                      A                      A
 Frequencies --   1645.1389              1666.9569              1737.7298
 Red. masses --      5.6479                 5.5261                 5.0964
 Frc consts  --      9.0062                 9.0473                 9.0673
 IR Inten    --      0.8206                 7.9379                 5.8188

                     76                     77                     78
                      A                      A                      A
 Frequencies --   1769.1129              3047.1799              3051.3669
 Red. masses --      7.7868                 1.0378                 1.0830
 Frc consts  --     14.3588                 5.6773                 5.9410
 IR Inten    --    315.2206                18.4929                11.6622

                     79                     80                     81
                      A                      A                      A
 Frequencies --   3100.2822              3137.4017              3156.6431
 Red. masses --      1.0998                 1.1012                 1.0604
 Frc consts  --      6.2284                 6.3864                 6.2252
 IR Inten    --     16.8470                18.3703                 7.4001

                     82                     83                     84
                      A                      A                      A
 Frequencies --   3158.3941              3160.5957              3184.4475
 Red. masses --      1.0505                 1.0581                 1.0850
 Frc consts  --      6.1743                 6.2274                 6.4827
 IR Inten    --     15.4631                14.3507                 0.5083

                     85                     86                     87
                      A                      A                      A
 Frequencies --   3193.2220              3204.7053              3211.5156
 Red. masses --      1.0885                 1.0915                 1.0927
 Frc consts  --      6.5392                 6.6048                 6.6400
 IR Inten    --      9.1480                22.5197                21.2245

                     88                     89                     90
                      A                      A                      A
 Frequencies --   3215.6923              3220.5324              3234.0350
 Red. masses --      1.0970                 1.0900                 1.1158
 Frc consts  --      6.6832                 6.6612                 6.8756
 IR Inten    --     11.8102                10.5679                16.4941

                     91                     92                     93
                      A                      A                      A
 Frequencies --   3243.8401              3257.0292              3579.4734
 Red. masses --      1.1197                 1.1161                 1.0756
 Frc consts  --      6.9417                 6.9757                 8.1198
 IR Inten    --      0.3670                 7.9084                19.7482

 - Thermochemistry -
 -------------------
 Temperature   298.150 Kelvin.  Pressure   1.00000 Atm.
 Atom     1 has atomic number  6 and mass  12.00000

 Molecular mass:   215.13101 amu.
 Principal axes and moments of inertia in atomic units:
                           1         2         3
     Eigenvalues --  1789.125675912.049976808.72760
           X            0.99995  -0.00574   0.00868
           Y            0.00555   0.99976   0.02124
           Z           -0.00880  -0.02119   0.99974
 This molecule is an asymmetric top.
 Rotational symmetry number  1.
 Warning -- assumption of classical behavior for rotation
           may cause significant error
 Rotational temperatures (Kelvin)      0.04841     0.01465     0.01272
 Rotational constants (GHZ):           1.00873     0.30526     0.26506
 Zero-point vibrational energy     738842.3 (Joules/Mol)
                                  176.58755 (Kcal/Mol)
 Warning -- explicit consideration of  20 degrees of freedom as
           vibrations may cause significant error
 Vibrational temperatures:     29.41    45.44    65.37   111.66   119.57
          (Kelvin)            139.20   199.39   241.07   267.50   360.74
                              383.97   398.71   420.84   467.31   531.81
                              604.05   686.13   700.77   730.36   808.13
                              903.45   911.62   928.01   965.82  1035.15
                             1060.17  1082.64  1090.30  1138.64  1182.10
                             1204.86  1217.05  1253.92  1291.54  1328.40
                             1341.49  1356.51  1376.12  1412.94  1427.63
                             1442.48  1471.26  1508.57  1531.78  1544.98
                             1570.13  1580.12  1596.50  1617.12  1619.59
                             1667.04  1719.50  1746.51  1756.99  1758.10
                             1788.37  1861.13  1879.89  1891.22  1913.82
                             1959.78  1970.83  2069.67  2103.79  2120.78
                             2127.43  2129.53  2156.68  2172.66  2185.41
                             2200.32  2225.23  2366.99  2398.38  2500.21
                             2545.36  4384.21  4390.24  4460.61  4514.02
                             4541.71  4544.22  4547.39  4581.71  4594.33
                             4610.86  4620.65  4626.66  4633.63  4653.05
                             4667.16  4686.14  5150.06

 Zero-point correction=                           0.281410 (Hartree/Particle)
 Thermal correction to Energy=                    0.296829
 Thermal correction to Enthalpy=                  0.297774
 Thermal correction to Gibbs Free Energy=         0.236715
 Sum of electronic and zero-point Energies=           -673.450504
 Sum of electronic and thermal Energies=              -673.435084
 Sum of electronic and thermal Enthalpies=            -673.434140
 Sum of electronic and thermal Free Energies=         -673.495199

                     E (Thermal)             CV                S
                      KCal/Mol        Cal/Mol-Kelvin    Cal/Mol-Kelvin
 Total                  186.263             58.650            128.510
 Electronic               0.000              0.000              0.000
 Translational            0.889              2.981             42.002
 Rotational               0.889              2.981             32.643
 Vibrational            184.486             52.689             53.865
 Vibration     1          0.593              1.986              6.591
 Vibration     2          0.594              1.983              5.727
 Vibration     3          0.595              1.979              5.007
 Vibration     4          0.599              1.964              3.950
 Vibration     5          0.600              1.961              3.816
 Vibration     6          0.603              1.951              3.519
 Vibration     7          0.614              1.915              2.823
 Vibration     8          0.624              1.882              2.463
 Vibration     9          0.632              1.859              2.268
 Vibration    10          0.663              1.762              1.725
 Vibration    11          0.672              1.734              1.616
 Vibration    12          0.678              1.716              1.551
 Vibration    13          0.688              1.688              1.459
 Vibration    14          0.709              1.626              1.286
 Vibration    15          0.742              1.535              1.081
 Vibration    16          0.783              1.427              0.893
 Vibration    17          0.833              1.301              0.719
 Vibration    18          0.843              1.279              0.691
 Vibration    19          0.863              1.233              0.639
 Vibration    20          0.917              1.114              0.520

                           ! Non-Optimized Parameters !
 Normal termination of Gaussian 16 at Thu Dec 10 22:24:18 2020.

 ----------------------------------------------------------------------
 # B3LYP/6-311++G(d,p) empiricaldispersion=gd3bj scf=xqc pop=npa geom=c
 heck
 ----------------------------------------------------------------------

 ---------------------------------------
 CID_144385139_JID_6291_Energie_neutraal
 ---------------------------------------
 Structure from the checkpoint file:  "JID_6291.chk"
 Charge =  0 Multiplicity = 1

 SCF Done:  E(RB3LYP) =  -673.917719302     A.U. after   15 cycles
 Normal termination of Gaussian 16 at Thu Dec 10 22:28:53 2020.

 ----------------------------------------------------------------------
 # B3LYP/6-311++G(d,p) empiricaldispersion=gd3bj scf=xqc pop=npa geom=c
 heck
 ----------------------------------------------------------------------

 -------------------------------------
 CID_144385139_JID_6291_Energie_kation
 -------------------------------------
 Structure from the checkpoint file:  "JID_6291.chk"
 Charge =  1 Multiplicity = 2

 SCF Done:  E(UB3LYP) =  -673.606780680     A.U. after   30 cycles
 Normal termination of Gaussian 16 at Thu Dec 10 22:43:51 2020.
 Gaussian 16:  ES64L-G16RevA.03 25-Dec-2016

 ----------------------------------------------------------------------
 # B3LYP/6-311++G(d,p) empiricaldispersion=gd3bj scf=xqc pop=npa geom=c
 heck
 ----------------------------------------------------------------------

 ------------------------------------
 CID_144385139_JID_6291_Energie_anion
 ------------------------------------
 Structure from the checkpoint file:  "JID_6291.chk"
 Charge = -1 Multiplicity = 2

                         Standard orientation:
 ---------------------------------------------------------------------
 Center     Atomic      Atomic             Coordinates (Angstroms)
 Number     Number       Type             X           Y           Z
 ---------------------------------------------------------------------
      1          6           0        0.009386    1.963807    1.605487
      2          6           0       -0.117098    1.679394    0.132772
      3          6           0       -0.465048    2.608136   -0.760903
      4          6           0        0.162337    0.248365   -0.309584
      5          6           0        1.643789   -0.127243   -0.232083
      6          6           0        2.636395    0.856025   -0.310742
      7          6           0        3.986520    0.507370   -0.282106
      8          6           0        4.365182   -0.831109   -0.178450
      9          6           0        3.382283   -1.818692   -0.110697
     10          6           0        2.032159   -1.469757   -0.138650
     11          7           0       -0.620526   -0.719587    0.462064
     12          6           0       -1.986974   -0.877986    0.469538
     13          8           0       -2.530352   -1.522698    1.363067
     14          6           0       -2.769847   -0.271857   -0.648041
     15          6           0       -4.034623   -1.003553   -1.060716
     16          6           0       -4.143899    0.266666   -0.284206
     17          1           0       -0.144401    3.024894    1.819499
     18          1           0        1.000750    1.675566    1.976723
     19          1           0       -0.727426    1.388761    2.178918
     20          1           0       -0.560718    2.374343   -1.818755
     21          1           0       -0.667720    3.635315   -0.469873
     22          1           0       -0.136320    0.154527   -1.360340
     23          1           0        2.348298    1.898683   -0.398305
     24          1           0        4.742714    1.285410   -0.338992
     25          1           0        5.416680   -1.102487   -0.153038
     26          1           0        3.664385   -2.865302   -0.037316
     27          1           0        1.273496   -2.244913   -0.097237
     28          1           0       -0.188845   -1.076201    1.307114
     29          1           0       -2.229339    0.261256   -1.419835
     30          1           0       -4.286145   -0.997691   -2.117079
     31          1           0       -4.235211   -1.929428   -0.532148
     32          1           0       -4.417823    0.188316    0.762752
     33          1           0       -4.469246    1.170246   -0.790774
 ---------------------------------------------------------------------

 SCF Done:  E(UB3LYP) =  -673.905745738     A.U. after   33 cycles
 SCF Done:  E(UB3LYP) =  -673.905745738     a.u. after    1 cycles

 The electronic state is 2-A.
 Alpha  occ. eigenvalues --  -18.99291 -14.24245 -10.18088 -10.13172 -10.09360
 Alpha  occ. eigenvalues --  -10.09327 -10.09150 -10.08735 -10.08676 -10.08275
 Alpha  occ. eigenvalues --  -10.08022 -10.07978 -10.07908 -10.07810 -10.07693
 Alpha  occ. eigenvalues --  -10.06939  -0.94560  -0.83765  -0.77295  -0.76404
 Alpha  occ. eigenvalues --   -0.71846  -0.66794  -0.65378  -0.60635  -0.59474
 Alpha  occ. eigenvalues --   -0.56903  -0.51703  -0.51401  -0.50063  -0.46537
 Alpha  occ. eigenvalues --   -0.44872  -0.43437  -0.43056  -0.39505  -0.38122
 Alpha  occ. eigenvalues --   -0.37237  -0.36890  -0.35516  -0.35019  -0.33800
 Alpha  occ. eigenvalues --   -0.32945  -0.32649  -0.31432  -0.30611  -0.29043
 Alpha  occ. eigenvalues --   -0.28568  -0.27776  -0.27580  -0.26192  -0.25489
 Alpha  occ. eigenvalues --   -0.24844  -0.22033  -0.20442  -0.17785  -0.17012
 Alpha  occ. eigenvalues --   -0.16502  -0.16334  -0.15304   0.04213
 Alpha virt. eigenvalues --    0.05933   0.06623   0.07162   0.07414   0.07625
 Alpha virt. eigenvalues --    0.08000   0.08318   0.08884   0.09270   0.09720
 Alpha virt. eigenvalues --    0.10149   0.10262   0.10886   0.11267   0.12303

  Beta  occ. eigenvalues --  -18.99289 -14.24242 -10.18085 -10.13166 -10.09357
  Beta  occ. eigenvalues --  -10.09309 -10.09095 -10.08722 -10.08663 -10.08276
  Beta  occ. eigenvalues --  -10.07994 -10.07952 -10.07905 -10.07754 -10.07673
  Beta  occ. eigenvalues --  -10.06901  -0.94553  -0.83746  -0.77268  -0.76335
  Beta  occ. eigenvalues --   -0.71814  -0.66699  -0.65320  -0.60590  -0.59420
  Beta  occ. eigenvalues --   -0.56867  -0.51660  -0.51362  -0.49956  -0.46498
  Beta  occ. eigenvalues --   -0.44818  -0.43397  -0.43006  -0.39457  -0.38057
  Beta  occ. eigenvalues --   -0.37181  -0.36833  -0.35475  -0.34984  -0.33770
  Beta  occ. eigenvalues --   -0.32912  -0.32616  -0.31409  -0.30568  -0.28993
  Beta  occ. eigenvalues --   -0.28534  -0.27743  -0.27487  -0.26119  -0.25437
  Beta  occ. eigenvalues --   -0.24804  -0.22008  -0.20417  -0.17763  -0.16928
  Beta  occ. eigenvalues --   -0.16441  -0.16224  -0.15125
  Beta virt. eigenvalues --    0.06375   0.06885   0.07166   0.07485   0.07694
  Beta virt. eigenvalues --    0.08058   0.08218   0.08673   0.09102   0.09640
  Beta virt. eigenvalues --    0.09993   0.10283   0.10558   0.11060   0.11580

 Mulliken charges and spin densities:
               1          2
     1  C   -0.302262  -0.447067
     2  C   -1.797014   2.591317
     3  C    1.988045  -2.797748
     4  C    1.792270  -1.961280
     5  C    0.777546  -0.292180
     6  C   -2.787692   1.967970
     7  C    0.038257  -0.201582
     8  C    0.895636  -1.290537
     9  C   -0.040794  -0.235107
    10  C    0.696458  -0.534216
    11  N   -0.052211  -0.020045
    12  C   -0.086361  -0.464304
    13  O   -0.332176  -0.002988
    14  C    0.366047   0.321392
    15  C   -0.122590  -0.294632
    16  C   -0.220760  -0.250137
    17  H   -0.117592   0.267779
    18  H    0.159656  -0.002608
    19  H    0.074958   0.121333
    20  H   -0.334741   0.491307
    21  H   -0.260085   0.386216
    22  H   -0.303035   0.533691
    23  H    0.003760   0.202764
    24  H   -0.492785   0.674869
    25  H   -0.388928   0.536177
    26  H   -0.265940   0.436760
    27  H    0.056007   0.121611
    28  H    0.340563  -0.070393
    29  H   -0.281278   0.542888
    30  H   -0.184888   0.334926
    31  H    0.146733   0.029578
    32  H    0.130123   0.050097
    33  H   -0.094926   0.254149
 Sum of Mulliken charges =  -1.00000   1.00000

 Dipole moment (field-independent basis, Debye):
    X=             -1.8282    Y=             -1.0725    Z=              3.1192  Tot=              3.7712
 Quadrupole moment (field-independent basis, Debye-Ang):
   XX=           -182.7312   YY=           -138.8814   ZZ=           -136.1361
   XY=              2.3903   XZ=             -1.2307   YZ=              6.7592

 Summary of Natural Population Analysis:

                                       Natural Population
                Natural  -----------------------------------------------
    Atom  No    Charge         Core      Valence    Rydberg      Total
 -----------------------------------------------------------------------
      C    1   -0.30586      0.99960     2.30025    0.00601     3.30586
      C    2   -0.00674      0.99951     1.99502    0.01221     3.00674
      C    3   -0.18497      0.99946     2.17631    0.00920     3.18497
      C    4   -0.03103      0.99949     2.01614    0.01540     3.03103
      C    5   -0.01206      0.99949     2.00107    0.01150     3.01206
      C    6   -0.10216      0.99951     2.09333    0.00932     3.10216
      C    7   -0.09375      0.99956     2.08389    0.01030     3.09375
      C    8   -0.09614      0.99956     2.08637    0.01021     3.09614
      C    9   -0.09903      0.99956     2.08992    0.00955     3.09903
      C   10   -0.10191      0.99951     2.09259    0.00982     3.10191
      N   11   -0.31746      0.99967     2.80815    0.00963     3.81746
      C   12    0.34602      0.99964     1.63106    0.02328     2.65398
      O   13   -0.33464      0.99988     3.32983    0.00493     4.33464
      C   14   -0.16441      0.99955     2.15400    0.01086     3.16441
      C   15   -0.18662      0.99962     2.17873    0.00827     3.18662
      C   16   -0.18476      0.99962     2.17705    0.00809     3.18476
      H   17    0.10440      0.00000     0.39478    0.00082     0.39560
      H   18    0.10608      0.00000     0.39291    0.00101     0.39392
      H   19    0.10660      0.00000     0.39241    0.00099     0.39340
      H   20    0.09808      0.00000     0.39960    0.00232     0.40192
      H   21    0.09481      0.00000     0.40408    0.00111     0.40519
      H   22    0.11322      0.00000     0.38405    0.00273     0.38678
      H   23    0.10750      0.00000     0.39084    0.00166     0.39250
      H   24    0.10119      0.00000     0.39762    0.00119     0.39881
      H   25    0.10093      0.00000     0.39770    0.00137     0.39907
      H   26    0.10000      0.00000     0.39908    0.00091     0.40000
      H   27    0.10533      0.00000     0.39347    0.00120     0.39467
      H   28    0.19476      0.00000     0.30291    0.00233     0.30524
      H   29    0.11544      0.00000     0.38174    0.00282     0.38456
      H   30    0.10449      0.00000     0.39452    0.00099     0.39551
      H   31    0.10953      0.00000     0.38947    0.00100     0.39047
      H   32    0.10841      0.00000     0.39057    0.00102     0.39159
      H   33    0.10476      0.00000     0.39432    0.00092     0.39524
 =======================================================================
   * Total *    0.00000     15.99324    41.81379    0.19297    58.00000

 Normal termination of Gaussian 16 at Thu Dec 10 23:00:38 2020.
