 Gaussian 16, Revision A.03,

 -----------------------------------------------------------
 # opt freq B3LYP/6-31G(d) empiricaldispersion=gd3bj scf=xqc
 -----------------------------------------------------------

 -------------------------------
 CID_81496053_JID_10039_neutraal
 -------------------------------
 Symbolic Z-matrix:
 Charge =  0 Multiplicity = 1

 SCF Done:  E(RB3LYP) =  -896.623282625     A.U. after   15 cycles
 SCF Done:  E(RB3LYP) =  -896.627785666     A.U. after   12 cycles
 SCF Done:  E(RB3LYP) =  -896.628991991     A.U. after   12 cycles
 SCF Done:  E(RB3LYP) =  -896.630362982     A.U. after   13 cycles
 SCF Done:  E(RB3LYP) =  -896.631160916     A.U. after   12 cycles
 SCF Done:  E(RB3LYP) =  -896.631587463     A.U. after   13 cycles
 SCF Done:  E(RB3LYP) =  -896.631827385     A.U. after   12 cycles
 SCF Done:  E(RB3LYP) =  -896.632006371     A.U. after   13 cycles
 SCF Done:  E(RB3LYP) =  -896.632078596     A.U. after   12 cycles
 SCF Done:  E(RB3LYP) =  -896.632109446     A.U. after   11 cycles
 SCF Done:  E(RB3LYP) =  -896.632137174     A.U. after    9 cycles
 SCF Done:  E(RB3LYP) =  -896.632137232     A.U. after    9 cycles
 SCF Done:  E(RB3LYP) =  -896.632137401     A.U. after    7 cycles
 SCF Done:  E(RB3LYP) =  -896.632137484     A.U. after    7 cycles
 SCF Done:  E(RB3LYP) =  -896.632137522     A.U. after    6 cycles
 Optimization completed.
    -- Stationary point found.
 Normal termination of Gaussian 16 at Mon Dec 14 17:33:50 2020.

 --------------------------------------------------------------------
 #N Geom=AllCheck Guess=TCheck SCRF=Check GenChk RB3LYP/6-31G(d) Freq
 --------------------------------------------------------------------

 Structure from the checkpoint file:  "JID_10039.chk"
 -------------------------------
 CID_81496053_JID_10039_neutraal
 -------------------------------
 Charge =  0 Multiplicity = 1

 SCF Done:  E(RB3LYP) =  -896.632137522     A.U. after    1 cycles

  Exact polarizability: 180.673 -24.533 178.300  -0.402   5.650 143.626
 Approx polarizability: 248.420 -42.444 278.415  -0.557  20.741 245.934

                      1                      2                      3
                      A                      A                      A
 Frequencies --     12.4374                24.1325                27.2804
 Red. masses --      3.5965                 1.2266                 6.2753
 Frc consts  --      0.0003                 0.0004                 0.0028
 IR Inten    --      0.4251                 0.2765                 0.6798

                      4                      5                      6
                      A                      A                      A
 Frequencies --     32.9793                45.2798                70.4973
 Red. masses --      3.9791                 4.0816                 5.0932
 Frc consts  --      0.0025                 0.0049                 0.0149
 IR Inten    --      0.4417                 0.1823                 6.0987

                      7                      8                      9
                      A                      A                      A
 Frequencies --    104.5956               117.8593               155.2341
 Red. masses --      4.6760                 3.4045                 4.5557
 Frc consts  --      0.0301                 0.0279                 0.0647
 IR Inten    --      1.4584                 0.9657                 3.5820

                     10                     11                     12
                      A                      A                      A
 Frequencies --    192.0256               219.7476               250.8107
 Red. masses --      2.8950                 4.4198                 3.7968
 Frc consts  --      0.0629                 0.1257                 0.1407
 IR Inten    --      0.9443                 0.3602                 0.1663

                     13                     14                     15
                      A                      A                      A
 Frequencies --    275.0479               298.5343               324.2302
 Red. masses --      2.9000                 6.1878                 3.1921
 Frc consts  --      0.1293                 0.3249                 0.1977
 IR Inten    --      1.3046                 0.7477                 0.0671

                     16                     17                     18
                      A                      A                      A
 Frequencies --    340.0001               361.0999               376.2395
 Red. masses --      4.1080                 2.9812                 2.7731
 Frc consts  --      0.2798                 0.2290                 0.2313
 IR Inten    --      0.2667                 2.9048                 0.8375

                     19                     20                     21
                      A                      A                      A
 Frequencies --    418.8944               427.0203               478.7355
 Red. masses --      3.0319                 3.2563                 3.9931
 Frc consts  --      0.3135                 0.3498                 0.5392
 IR Inten    --      0.0995                 5.3866                 5.4337

                     22                     23                     24
                      A                      A                      A
 Frequencies --    493.8169               535.7662               551.2510
 Red. masses --      3.2249                 3.8572                 3.3726
 Frc consts  --      0.4633                 0.6523                 0.6038
 IR Inten    --     17.9698                 1.6152                 0.4834

                     25                     26                     27
                      A                      A                      A
 Frequencies --    593.5847               628.2882               646.4000
 Red. masses --      2.1157                 2.2902                 2.9196
 Frc consts  --      0.4392                 0.5327                 0.7187
 IR Inten    --     56.1903                50.3516                29.5080

                     28                     29                     30
                      A                      A                      A
 Frequencies --    661.4449               691.0520               707.5091
 Red. masses --      5.6855                 7.4563                 4.8016
 Frc consts  --      1.4656                 2.0980                 1.4161
 IR Inten    --      0.5883                 0.5999                 2.3806

                     31                     32                     33
                      A                      A                      A
 Frequencies --    723.1097               736.1042               757.5413
 Red. masses --      3.7428                 3.1633                 3.9783
 Frc consts  --      1.1531                 1.0099                 1.3451
 IR Inten    --      1.5558                50.7074                 1.6876

                     34                     35                     36
                      A                      A                      A
 Frequencies --    778.4620               801.0950               837.9119
 Red. masses --      3.4151                 2.5957                 1.8302
 Frc consts  --      1.2194                 0.9815                 0.7571
 IR Inten    --     16.5681                17.3194                 7.9870

                     37                     38                     39
                      A                      A                      A
 Frequencies --    841.2666               856.1691               862.8690
 Red. masses --      2.3598                 3.1334                 1.3524
 Frc consts  --      0.9840                 1.3533                 0.5933
 IR Inten    --      3.6903                 0.4925                 1.7066

                     40                     41                     42
                      A                      A                      A
 Frequencies --    921.2571               946.1955               954.0737
 Red. masses --      2.3671                 1.6012                 1.4493
 Frc consts  --      1.1837                 0.8446                 0.7773
 IR Inten    --      3.3017                 1.8582                 1.6060

                     43                     44                     45
                      A                      A                      A
 Frequencies --    963.2986               978.1877               984.5178
 Red. masses --      1.5917                 1.5494                 2.6377
 Frc consts  --      0.8702                 0.8735                 1.5063
 IR Inten    --      1.0552                 1.1438                 2.0382

                     46                     47                     48
                      A                      A                      A
 Frequencies --   1016.6937              1022.1365              1045.6474
 Red. masses --      2.3708                 1.4145                 2.9217
 Frc consts  --      1.4439                 0.8707                 1.8822
 IR Inten    --      3.3107                 0.8712                 3.3509

                     49                     50                     51
                      A                      A                      A
 Frequencies --   1064.5744              1076.3491              1077.9380
 Red. masses --      6.3558                 1.6370                 3.4006
 Frc consts  --      4.2439                 1.1174                 2.3280
 IR Inten    --      2.2127                 6.9352                 1.6202

                     52                     53                     54
                      A                      A                      A
 Frequencies --   1113.1880              1129.6126              1150.8839
 Red. masses --      2.8178                 2.5658                 1.3256
 Frc consts  --      2.0573                 1.9290                 1.0345
 IR Inten    --     28.7156                11.9145                 5.0689

                     55                     56                     57
                      A                      A                      A
 Frequencies --   1181.4466              1194.6332              1207.1146
 Red. masses --      2.2868                 1.2830                 1.3011
 Frc consts  --      1.8806                 1.0788                 1.1170
 IR Inten    --    258.5691                18.6250                 2.1038

                     58                     59                     60
                      A                      A                      A
 Frequencies --   1220.1096              1229.4514              1234.7114
 Red. masses --      1.2639                 2.4190                 1.3839
 Frc consts  --      1.1086                 2.1543                 1.2430
 IR Inten    --      0.7726                 1.0175                 4.8101

                     61                     62                     63
                      A                      A                      A
 Frequencies --   1246.1920              1279.7329              1296.2164
 Red. masses --      2.7157                 3.2012                 1.3385
 Frc consts  --      2.4848                 3.0888                 1.3250
 IR Inten    --      2.6931                 3.1936                12.7004

                     64                     65                     66
                      A                      A                      A
 Frequencies --   1306.8009              1326.4052              1330.7883
 Red. masses --      1.2498                 1.8580                 1.5959
 Frc consts  --      1.2575                 1.9259                 1.6652
 IR Inten    --      3.1472                 4.4057                 5.6881

                     67                     68                     69
                      A                      A                      A
 Frequencies --   1354.5647              1364.5195              1372.8843
 Red. masses --      1.9857                 1.5589                 1.8150
 Frc consts  --      2.1467                 1.7101                 2.0156
 IR Inten    --      2.0423                34.6992                 4.3402

                     70                     71                     72
                      A                      A                      A
 Frequencies --   1379.5722              1388.2596              1418.8293
 Red. masses --      1.8617                 1.5433                 2.8858
 Frc consts  --      2.0876                 1.7524                 3.4227
 IR Inten    --      5.3070                 8.4797                16.7419

                     73                     74                     75
                      A                      A                      A
 Frequencies --   1441.7098              1443.1621              1463.4404
 Red. masses --      2.1686                 1.2479                 2.4320
 Frc consts  --      2.6557                 1.5313                 3.0688
 IR Inten    --     70.8755                 0.0923                 1.7550

                     76                     77                     78
                      A                      A                      A
 Frequencies --   1490.1184              1498.4483              1512.4769
 Red. masses --      3.0062                 1.0983                 1.1218
 Frc consts  --      3.9329                 1.4530                 1.5120
 IR Inten    --     30.3577                 6.7819                 4.6304

                     79                     80                     81
                      A                      A                      A
 Frequencies --   1517.1520              1524.1659              1525.1712
 Red. masses --      1.0489                 1.1112                 1.1690
 Frc consts  --      1.4224                 1.5210                 1.6022
 IR Inten    --      5.8244                 5.4002                 8.9499

                     82                     83                     84
                      A                      A                      A
 Frequencies --   1537.2954              1562.4814              1567.2947
 Red. masses --      1.1985                 6.2276                 2.5227
 Frc consts  --      1.6689                 8.9578                 3.6510
 IR Inten    --      3.3395                27.8441                20.3236

                     85                     86                     87
                      A                      A                      A
 Frequencies --   1580.3076              1637.1989              1679.1161
 Red. masses --      8.2719                 5.6942                 5.8116
 Frc consts  --     12.1714                 8.9927                 9.6540
 IR Inten    --     24.1517                 0.4235                 0.8138

                     88                     89                     90
                      A                      A                      A
 Frequencies --   1843.2440              3037.0826              3042.8793
 Red. masses --     10.0211                 1.0720                 1.0397
 Frc consts  --     20.0601                 5.8257                 5.6717
 IR Inten    --    229.6701                20.2818                32.9036

                     91                     92                     93
                      A                      A                      A
 Frequencies --   3044.2698              3045.2104              3061.0846
 Red. masses --      1.0799                 1.0650                 1.0691
 Frc consts  --      5.8966                 5.8191                 5.9022
 IR Inten    --      2.0931                19.3237                23.9628

                     94                     95                     96
                      A                      A                      A
 Frequencies --   3088.8705              3098.4861              3099.1848
 Red. masses --      1.0587                 1.0973                 1.0973
 Frc consts  --      5.9513                 6.2066                 6.2098
 IR Inten    --     13.5084                20.6918                 6.0533

                     97                     98                     99
                      A                      A                      A
 Frequencies --   3114.1148              3126.6943              3129.2578
 Red. masses --      1.0923                 1.1021                 1.0994
 Frc consts  --      6.2413                 6.3481                 6.3430
 IR Inten    --     10.4305                16.3079                17.3009

                    100                    101                    102
                      A                      A                      A
 Frequencies --   3131.6024              3171.9491              3176.5191
 Red. masses --      1.1064                 1.0870                 1.0875
 Frc consts  --      6.3927                 6.4438                 6.4654
 IR Inten    --     10.1527                15.0864                11.4451

                    103                    104                    105
                      A                      A                      A
 Frequencies --   3190.5250              3196.1273              3686.1998
 Red. masses --      1.0939                 1.0943                 1.0641
 Frc consts  --      6.5604                 6.5862                 8.5189
 IR Inten    --     28.9645                 3.7950                59.6808

 - Thermochemistry -
 -------------------
 Temperature   298.150 Kelvin.  Pressure   1.00000 Atm.
 Atom     1 has atomic number  6 and mass  12.00000

 Molecular mass:   271.13208 amu.
 Principal axes and moments of inertia in atomic units:
                           1         2         3
     Eigenvalues --  4217.673687042.413689796.40868
           X            0.99979  -0.02044   0.00234
           Y            0.02046   0.99975  -0.00940
           Z           -0.00215   0.00945   0.99995
 This molecule is an asymmetric top.
 Rotational symmetry number  1.
 Warning -- assumption of classical behavior for rotation
           may cause significant error
 Rotational temperatures (Kelvin)      0.02054     0.01230     0.00884
 Rotational constants (GHZ):           0.42790     0.25627     0.18422
 Zero-point vibrational energy     803268.2 (Joules/Mol)
                                  191.98570 (Kcal/Mol)
 Warning -- explicit consideration of  25 degrees of freedom as
           vibrations may cause significant error
 Vibrational temperatures:     17.89    34.72    39.25    47.45    65.15
          (Kelvin)            101.43   150.49   169.57   223.35   276.28
                              316.17   360.86   395.73   429.52   466.49
                              489.18   519.54   541.32   602.70   614.39
                              688.79   710.49   770.85   793.13   854.04
                              903.97   930.03   951.67   994.27  1017.95
                             1040.39  1059.09  1089.93  1120.03  1152.60
                             1205.57  1210.39  1231.84  1241.48  1325.48
                             1361.36  1372.70  1385.97  1407.39  1416.50
                             1462.80  1470.63  1504.45  1531.69  1548.63
                             1550.91  1601.63  1625.26  1655.87  1699.84
                             1718.81  1736.77  1755.47  1768.91  1776.47
                             1792.99  1841.25  1864.97  1880.20  1908.40
                             1914.71  1948.92  1963.24  1975.27  1984.90
                             1997.40  2041.38  2074.30  2076.39  2105.56
                             2143.95  2155.93  2176.12  2182.84  2192.93
                             2194.38  2211.83  2248.06  2254.99  2273.71
                             2355.56  2415.87  2652.02  4369.68  4378.02
                             4380.03  4381.38  4404.22  4444.20  4458.03
                             4459.04  4480.52  4498.62  4502.30  4505.68
                             4563.73  4570.30  4590.45  4598.51  5303.62

 Zero-point correction=                           0.305949 (Hartree/Particle)
 Thermal correction to Energy=                    0.323691
 Thermal correction to Enthalpy=                  0.324635
 Thermal correction to Gibbs Free Energy=         0.256027
 Sum of electronic and zero-point Energies=           -896.326189
 Sum of electronic and thermal Energies=              -896.308447
 Sum of electronic and thermal Enthalpies=            -896.307503
 Sum of electronic and thermal Free Energies=         -896.376110

                     E (Thermal)             CV                S
                      KCal/Mol        Cal/Mol-Kelvin    Cal/Mol-Kelvin
 Total                  203.119             66.960            144.397
 Electronic               0.000              0.000              0.000
 Translational            0.889              2.981             42.691
 Rotational               0.889              2.981             34.031
 Vibrational            201.342             60.999             67.676
 Vibration     1          0.593              1.987              7.578
 Vibration     2          0.593              1.985              6.261
 Vibration     3          0.593              1.984              6.018
 Vibration     4          0.594              1.983              5.642
 Vibration     5          0.595              1.979              5.014
 Vibration     6          0.598              1.968              4.139
 Vibration     7          0.605              1.946              3.367
 Vibration     8          0.608              1.934              3.135
 Vibration     9          0.620              1.897              2.607
 Vibration    10          0.634              1.851              2.208
 Vibration    11          0.647              1.811              1.961
 Vibration    12          0.663              1.761              1.725
 Vibration    13          0.677              1.719              1.564
 Vibration    14          0.692              1.676              1.425
 Vibration    15          0.709              1.627              1.289
 Vibration    16          0.720              1.596              1.212
 Vibration    17          0.735              1.552              1.117
 Vibration    18          0.747              1.521              1.054
 Vibration    19          0.782              1.429              0.896
 Vibration    20          0.789              1.411              0.868
 Vibration    21          0.835              1.297              0.713
 Vibration    22          0.849              1.264              0.674
 Vibration    23          0.891              1.171              0.574
 Vibration    24          0.907              1.137              0.542
 Vibration    25          0.951              1.045              0.461

                           ! Non-Optimized Parameters !
 Normal termination of Gaussian 16 at Mon Dec 14 17:53:57 2020.

 ----------------------------------------------------------------------
 # B3LYP/6-311++G(d,p) empiricaldispersion=gd3bj scf=xqc pop=npa geom=c
 heck
 ----------------------------------------------------------------------

 ---------------------------------------
 CID_81496053_JID_10039_Energie_neutraal
 ---------------------------------------
 Structure from the checkpoint file:  "JID_10039.chk"
 Charge =  0 Multiplicity = 1

 SCF Done:  E(RB3LYP) =  -896.877475118     A.U. after   15 cycles
 Normal termination of Gaussian 16 at Mon Dec 14 18:02:49 2020.

 ----------------------------------------------------------------------
 # B3LYP/6-311++G(d,p) empiricaldispersion=gd3bj scf=xqc pop=npa geom=c
 heck
 ----------------------------------------------------------------------

 -------------------------------------
 CID_81496053_JID_10039_Energie_kation
 -------------------------------------
 Structure from the checkpoint file:  "JID_10039.chk"
 Charge =  1 Multiplicity = 2

 SCF Done:  E(UB3LYP) =  -896.577030627     A.U. after   28 cycles
 Normal termination of Gaussian 16 at Mon Dec 14 18:26:47 2020.
 Gaussian 16:  ES64L-G16RevA.03 25-Dec-2016

 ----------------------------------------------------------------------
 # B3LYP/6-311++G(d,p) empiricaldispersion=gd3bj scf=xqc pop=npa geom=c
 heck
 ----------------------------------------------------------------------

 ------------------------------------
 CID_81496053_JID_10039_Energie_anion
 ------------------------------------
 Structure from the checkpoint file:  "JID_10039.chk"
 Charge = -1 Multiplicity = 2

                         Standard orientation:
 ---------------------------------------------------------------------
 Center     Atomic      Atomic             Coordinates (Angstroms)
 Number     Number       Type             X           Y           Z
 ---------------------------------------------------------------------
      1          6           0        4.656349   -1.852480    1.274061
      2          6           0        3.746222   -0.883947    0.559102
      3          6           0        3.223422    0.234475    1.224313
      4          6           0        2.359465    1.115651    0.581748
      5          6           0        1.993546    0.908322   -0.754568
      6          6           0        2.512355   -0.202180   -1.421888
      7          6           0        3.378950   -1.084084   -0.774432
      8          6           0        1.034262    1.865784   -1.441777
      9          6           0       -0.202600    2.105934   -0.639173
     10          7           0       -0.566513    3.249637   -0.102114
     11          7           0       -1.730729    3.027750    0.618049
     12          6           0       -2.029005    1.755554    0.496756
     13          7           0       -1.100422    1.121957   -0.295222
     14          6           0       -1.024838   -0.310087   -0.562280
     15          6           0       -2.377933   -0.961769   -0.261801
     16          6           0       -2.927525   -0.489678    1.103319
     17          6           0       -3.201160    1.021191    1.064046
     18          6           0       -2.239230   -2.469053   -0.318521
     19          8           0       -1.201189   -3.080751   -0.440990
     20          8           0       -3.442445   -3.081284   -0.209667
     21          1           0        5.385427   -1.327676    1.901371
     22          1           0        4.086284   -2.521644    1.931727
     23          1           0        5.207526   -2.479533    0.566320
     24          1           0        3.498144    0.415003    2.261081
     25          1           0        1.957653    1.973370    1.115282
     26          1           0        2.237192   -0.383068   -2.458559
     27          1           0        3.769484   -1.943716   -1.313470
     28          1           0        1.498924    2.846310   -1.591375
     29          1           0        0.779111    1.477930   -2.436618
     30          1           0       -0.243466   -0.761087    0.055936
     31          1           0       -0.739635   -0.469671   -1.605438
     32          1           0       -3.108018   -0.675393   -1.031033
     33          1           0       -3.843039   -1.035581    1.343867
     34          1           0       -2.189385   -0.720828    1.882081
     35          1           0       -4.089558    1.214177    0.446658
     36          1           0       -3.422590    1.410734    2.061969
     37          1           0       -3.265009   -4.040261   -0.242960
 ---------------------------------------------------------------------

 SCF Done:  E(UB3LYP) =  -896.872459458     A.U. after   33 cycles
 SCF Done:  E(UB3LYP) =  -896.872459458     a.u. after    1 cycles

 The electronic state is 2-A.
 Alpha  occ. eigenvalues --  -19.07543 -19.02527 -14.28553 -14.22620 -14.22329
 Alpha  occ. eigenvalues --  -10.21576 -10.14303 -10.14180 -10.13289 -10.11333
 Alpha  occ. eigenvalues --  -10.10743 -10.10450 -10.10390 -10.10201 -10.09852
 Alpha  occ. eigenvalues --  -10.09445 -10.09388 -10.09311 -10.09294 -10.09268
 Alpha  occ. eigenvalues --   -1.01816  -0.96827  -0.93028  -0.83786  -0.78606
 Alpha  occ. eigenvalues --   -0.75688  -0.72704  -0.70723  -0.67569  -0.66761
 Alpha  occ. eigenvalues --   -0.64372  -0.60686  -0.58977  -0.55401  -0.53287
 Alpha  occ. eigenvalues --   -0.52801  -0.50699  -0.49535  -0.46659  -0.43648
 Alpha  occ. eigenvalues --   -0.41810  -0.41533  -0.39788  -0.39472  -0.38332
 Alpha  occ. eigenvalues --   -0.37760  -0.37493  -0.37243  -0.35934  -0.34530
 Alpha  occ. eigenvalues --   -0.34204  -0.34146  -0.33559  -0.32893  -0.32468
 Alpha  occ. eigenvalues --   -0.32029  -0.30465  -0.29131  -0.28570  -0.27602
 Alpha  occ. eigenvalues --   -0.26778  -0.26555  -0.26308  -0.26039  -0.23502
 Alpha  occ. eigenvalues --   -0.21655  -0.19802  -0.18984  -0.17713  -0.16798
 Alpha  occ. eigenvalues --   -0.16646  -0.15490   0.03685
 Alpha virt. eigenvalues --    0.05361   0.06026   0.06145   0.06315   0.06966
 Alpha virt. eigenvalues --    0.07528   0.07802   0.08320   0.08894   0.09364
 Alpha virt. eigenvalues --    0.09534   0.09858   0.10403   0.10944   0.11223

  Beta  occ. eigenvalues --  -19.07477 -19.02496 -14.28548 -14.22622 -14.22323
  Beta  occ. eigenvalues --  -10.21549 -10.14295 -10.14174 -10.13273 -10.11304
  Beta  occ. eigenvalues --  -10.10733 -10.10444 -10.10384 -10.10188 -10.09822
  Beta  occ. eigenvalues --  -10.09441 -10.09378 -10.09306 -10.09285 -10.09253
  Beta  occ. eigenvalues --   -1.01717  -0.96814  -0.92941  -0.83771  -0.78590
  Beta  occ. eigenvalues --   -0.75661  -0.72663  -0.70696  -0.67535  -0.66743
  Beta  occ. eigenvalues --   -0.64350  -0.60612  -0.58946  -0.55329  -0.53264
  Beta  occ. eigenvalues --   -0.52754  -0.50639  -0.49487  -0.46604  -0.43617
  Beta  occ. eigenvalues --   -0.41775  -0.41481  -0.39742  -0.39447  -0.38285
  Beta  occ. eigenvalues --   -0.37691  -0.37464  -0.37217  -0.35892  -0.34503
  Beta  occ. eigenvalues --   -0.34174  -0.34090  -0.33527  -0.32868  -0.32436
  Beta  occ. eigenvalues --   -0.31969  -0.30442  -0.29099  -0.28519  -0.27575
  Beta  occ. eigenvalues --   -0.26754  -0.26500  -0.26277  -0.26014  -0.23400
  Beta  occ. eigenvalues --   -0.21645  -0.19763  -0.18945  -0.17696  -0.16784
  Beta  occ. eigenvalues --   -0.16617  -0.15452
  Beta virt. eigenvalues --    0.05430   0.06054   0.06146   0.06439   0.07024
  Beta virt. eigenvalues --    0.07565   0.08048   0.08168   0.08574   0.09031
  Beta virt. eigenvalues --    0.09528   0.09672   0.10068   0.10541   0.11259

 Mulliken charges and spin densities:
               1          2
     1  C    0.565586  -1.243123
     2  C    0.392144  -0.154287
     3  C   -0.456052   0.134034
     4  C   -0.898904   0.632603
     5  C    0.682445   0.079235
     6  C   -0.307623   0.075761
     7  C   -0.280337  -0.098909
     8  C    0.528696  -1.526742
     9  C   -0.151813   0.196030
    10  N   -0.065181   0.071591
    11  N   -0.075239  -0.060797
    12  C    0.571779  -0.458980
    13  N    0.211947   0.022380
    14  C   -0.558093  -0.490543
    15  C    1.470514  -1.050834
    16  C   -0.379438   0.212848
    17  C   -0.870560   0.507319
    18  C   -0.225455  -0.030258
    19  O   -0.223928  -0.022378
    20  O   -0.206904   0.064151
    21  H    0.041639   0.091843
    22  H    0.001487   0.181989
    23  H    0.016638   0.114600
    24  H   -0.063463   0.244153
    25  H    0.145360   0.046786
    26  H   -0.262182   0.425864
    27  H   -0.154804   0.333704
    28  H    0.263968  -0.024675
    29  H   -0.131736   0.301675
    30  H    0.743182  -0.466351
    31  H   -0.076422   0.288692
    32  H   -0.549504   0.818142
    33  H   -0.098138   0.328580
    34  H   -0.161895   0.316075
    35  H   -0.011897   0.200592
    36  H    0.144985   0.056400
    37  H   -0.570803   0.882833
 Sum of Mulliken charges =  -1.00000   1.00000

 Dipole moment (field-independent basis, Debye):
    X=              5.5754    Y=              3.2133    Z=              1.5220  Tot=              6.6127
 Quadrupole moment (field-independent basis, Debye-Ang):
   XX=           -186.6885   YY=           -198.6981   ZZ=           -147.1086
   XY=            -11.3871   XZ=             -3.5318   YZ=             -5.2341

 Summary of Natural Population Analysis:

                                       Natural Population
                Natural  -----------------------------------------------
    Atom  No    Charge         Core      Valence    Rydberg      Total
 -----------------------------------------------------------------------
      C    1   -0.29190      0.99964     2.28740    0.00487     3.29190
      C    2   -0.01764      0.99952     2.00981    0.00832     3.01764
      C    3   -0.09738      0.99952     2.08909    0.00878     3.09738
      C    4   -0.09842      0.99951     2.09048    0.00843     3.09842
      C    5   -0.02074      0.99950     2.01071    0.01054     3.02074
      C    6   -0.09654      0.99951     2.08701    0.01002     3.09654
      C    7   -0.09661      0.99951     2.08728    0.00982     3.09661
      C    8   -0.23371      0.99959     2.21908    0.01504     3.23371
      C    9    0.23003      0.99961     1.75693    0.01342     2.76997
      N   10   -0.16660      0.99970     2.65479    0.01210     3.66660
      N   11   -0.17515      0.99968     2.65833    0.01714     3.67515
      C   12    0.18767      0.99960     1.79270    0.02003     2.81233
      N   13   -0.22622      0.99958     2.71305    0.01359     3.72622
      C   14   -0.08277      0.99959     2.07091    0.01226     3.08277
      C   15   -0.15996      0.99955     2.14809    0.01232     3.15996
      C   16   -0.18279      0.99962     2.17438    0.00879     3.18279
      C   17   -0.20980      0.99959     2.20138    0.00883     3.20980
      C   18    0.41492      0.99968     1.55983    0.02556     2.58508
      O   19   -0.30117      0.99987     3.29498    0.00631     4.30117
      O   20   -0.34321      0.99988     3.33650    0.00684     4.34321
      H   21    0.10111      0.00000     0.39778    0.00111     0.39889
      H   22    0.10648      0.00000     0.39221    0.00131     0.39352
      H   23    0.10199      0.00000     0.39705    0.00096     0.39801
      H   24    0.09902      0.00000     0.40009    0.00089     0.40098
      H   25    0.10640      0.00000     0.39203    0.00157     0.39360
      H   26    0.10227      0.00000     0.39648    0.00125     0.39773
      H   27    0.10080      0.00000     0.39831    0.00090     0.39920
      H   28    0.11931      0.00000     0.37935    0.00134     0.38069
      H   29    0.11049      0.00000     0.38807    0.00144     0.38951
      H   30    0.11121      0.00000     0.38629    0.00250     0.38879
      H   31    0.10908      0.00000     0.38922    0.00170     0.39092
      H   32    0.11733      0.00000     0.37944    0.00323     0.38267
      H   33    0.11367      0.00000     0.38502    0.00131     0.38633
      H   34    0.09934      0.00000     0.39933    0.00132     0.40066
      H   35    0.10945      0.00000     0.38910    0.00145     0.39055
      H   36    0.11328      0.00000     0.38555    0.00117     0.38672
      H   37    0.24715      0.00000     0.22891    0.02394     0.25285
 =======================================================================
   * Total *    0.00037     19.99224    51.72697    0.28043    71.99963

 Normal termination of Gaussian 16 at Mon Dec 14 18:56:04 2020.
