 Gaussian 16, Revision A.03,

 -----------------------------------------------------------
 # opt freq B3LYP/6-31G(d) empiricaldispersion=gd3bj scf=xqc
 -----------------------------------------------------------

 -------------------------------
 CID_101698277_JID_1210_neutraal
 -------------------------------
 Symbolic Z-matrix:
 Charge =  0 Multiplicity = 1

 SCF Done:  E(RB3LYP) =  -501.825756807     A.U. after   15 cycles
 SCF Done:  E(RB3LYP) =  -501.831857844     A.U. after   12 cycles
 SCF Done:  E(RB3LYP) =  -501.832174713     A.U. after   11 cycles
 SCF Done:  E(RB3LYP) =  -501.831994176     A.U. after   12 cycles
 SCF Done:  E(RB3LYP) =  -501.832253546     A.U. after   11 cycles
 SCF Done:  E(RB3LYP) =  -501.832261626     A.U. after   10 cycles
 SCF Done:  E(RB3LYP) =  -501.832264445     A.U. after   10 cycles
 SCF Done:  E(RB3LYP) =  -501.832264706     A.U. after    8 cycles
 SCF Done:  E(RB3LYP) =  -501.832264811     A.U. after    7 cycles
 Optimization completed.
    -- Stationary point found.

 1\1\GINC-NODE125\FOpt\RB3LYP\6-31G(d)\C9H14O2\VSC10255\08-Dec-2020\0\\
 # opt freq B3LYP/6-31G(d) empiricaldispersion=gd3bj scf=xqc\\CID_10169
 8277_JID_1210_neutraal\\0,1\C,0.9015312623,-0.0055931995,-0.0640468488
 \C,0.7116512198,-0.4842359333,1.3668873228\O,1.0926261198,0.5345204504
 ,2.3154495753\C,2.4165653721,0.6187806924,2.5945136509\O,3.25767234,-0
 .1155446017,2.1097283139\C,2.7344275835,1.6960828364,3.5549880519\C,1.
 8361284318,2.5226196347,4.0782672144\C,0.4368226244,2.9460189487,4.174
 6888824\C,1.5482582408,3.6577793345,4.9685694954\C,1.6106168901,3.4264

 Normal termination of Gaussian 16 at Tue Dec  8 19:24:21 2020.

 --------------------------------------------------------------------
 #N Geom=AllCheck Guess=TCheck SCRF=Check GenChk RB3LYP/6-31G(d) Freq
 --------------------------------------------------------------------

 Structure from the checkpoint file:  "JID_1210.chk"
 -------------------------------
 CID_101698277_JID_1210_neutraal
 -------------------------------
 Charge =  0 Multiplicity = 1

 SCF Done:  E(RB3LYP) =  -501.832264811     A.U. after    1 cycles

  Exact polarizability: 135.275  -7.028  95.472   0.309   5.854  76.720
 Approx polarizability: 166.814 -23.433 151.794  -2.287  15.460 107.049

                      1                      2                      3
                      A                      A                      A
 Frequencies --     39.8395                54.2921                83.1723
 Red. masses --      3.1798                 3.1673                 4.2792
 Frc consts  --      0.0030                 0.0055                 0.0174
 IR Inten    --      0.0799                 0.7626                 0.7102

                      4                      5                      6
                      A                      A                      A
 Frequencies --    100.7883               112.5388               191.1009
 Red. masses --      3.4087                 3.2707                 2.3232
 Frc consts  --      0.0204                 0.0244                 0.0500
 IR Inten    --      0.6782                 0.3978                 0.1068

                      7                      8                      9
                      A                      A                      A
 Frequencies --    208.8766               220.9571               229.0570
 Red. masses --      1.6289                 1.4205                 1.2951
 Frc consts  --      0.0419                 0.0409                 0.0400
 IR Inten    --      0.5842                 0.7820                 2.0370

                     10                     11                     12
                      A                      A                      A
 Frequencies --    249.8014               320.6079               351.9780
 Red. masses --      1.2358                 2.3815                 2.4662
 Frc consts  --      0.0454                 0.1442                 0.1800
 IR Inten    --      0.0453                 5.6354                 3.5053

                     13                     14                     15
                      A                      A                      A
 Frequencies --    365.7062               386.2290               448.2207
 Red. masses --      2.5674                 3.7885                 3.7266
 Frc consts  --      0.2023                 0.3330                 0.4411
 IR Inten    --      0.8784                 5.7182                 5.9581

                     16                     17                     18
                      A                      A                      A
 Frequencies --    459.9441               504.4268               677.4695
 Red. masses --      2.1473                 3.3466                 3.8905
 Frc consts  --      0.2676                 0.5017                 1.0520
 IR Inten    --      2.5503                 0.8808                 3.2816

                     19                     20                     21
                      A                      A                      A
 Frequencies --    724.8574               731.1526               793.5668
 Red. masses --      3.2895                 3.9976                 1.6326
 Frc consts  --      1.0183                 1.2591                 0.6058
 IR Inten    --      1.5358                 7.4090                 6.7760

                     22                     23                     24
                      A                      A                      A
 Frequencies --    834.7735               879.8312               884.7650
 Red. masses --      2.2759                 1.5069                 3.0216
 Frc consts  --      0.9344                 0.6873                 1.3936
 IR Inten    --      0.3867                17.2774                 7.2624

                     25                     26                     27
                      A                      A                      A
 Frequencies --    904.1669               942.8225               982.4190
 Red. masses --      1.4418                 2.6539                 1.3421
 Frc consts  --      0.6945                 1.3899                 0.7632
 IR Inten    --      1.8570                12.1723                 0.3150

                     28                     29                     30
                      A                      A                      A
 Frequencies --    992.9274              1012.8550              1038.1161
 Red. masses --      2.9944                 1.2541                 1.6810
 Frc consts  --      1.7394                 0.7580                 1.0673
 IR Inten    --      5.0190                 3.9315                11.0658

                     31                     32                     33
                      A                      A                      A
 Frequencies --   1059.3395              1067.8686              1080.2420
 Red. masses --      1.4495                 1.4435                 4.5519
 Frc consts  --      0.9583                 0.9698                 3.1296
 IR Inten    --      0.5059                 0.4590                80.9706

                     34                     35                     36
                      A                      A                      A
 Frequencies --   1134.7249              1170.6987              1209.7078
 Red. masses --      2.0378                 1.9507                 1.7397
 Frc consts  --      1.5460                 1.5752                 1.5000
 IR Inten    --     52.3564                10.3418                 8.9424

                     37                     38                     39
                      A                      A                      A
 Frequencies --   1274.6468              1297.6772              1305.0699
 Red. masses --      3.0755                 3.8835                 2.2862
 Frc consts  --      2.9440                 3.8531                 2.2942
 IR Inten    --      2.0497               455.8556                 3.5518

                     40                     41                     42
                      A                      A                      A
 Frequencies --   1344.0907              1364.0824              1419.8331
 Red. masses --      1.1552                 1.8087                 1.2917
 Frc consts  --      1.2296                 1.9829                 1.5342
 IR Inten    --     25.8188                 9.2427                14.9815

                     43                     44                     45
                      A                      A                      A
 Frequencies --   1432.1478              1443.5975              1446.6251
 Red. masses --      1.2601                 1.3292                 1.2453
 Frc consts  --      1.5227                 1.6320                 1.5354
 IR Inten    --      3.0371                 9.1795                 2.0903

                     46                     47                     48
                      A                      A                      A
 Frequencies --   1481.6495              1510.1493              1515.4156
 Red. masses --      1.1642                 1.0445                 1.0544
 Frc consts  --      1.5058                 1.4035                 1.4267
 IR Inten    --      5.9811                 0.1170                13.8107

                     49                     50                     51
                      A                      A                      A
 Frequencies --   1518.7542              1520.5873              1528.1576
 Red. masses --      1.0785                 1.0484                 1.0488
 Frc consts  --      1.4657                 1.4282                 1.4430
 IR Inten    --      5.6311                 5.9656                 6.6677

                     52                     53                     54
                      A                      A                      A
 Frequencies --   1536.0141              1538.8287              1790.5675
 Red. masses --      1.0656                 1.0566                11.0496
 Frc consts  --      1.4812                 1.4742                20.8727
 IR Inten    --      0.6780                 6.8731               247.4230

                     55                     56                     57
                      A                      A                      A
 Frequencies --   1835.3780              3040.6984              3044.6222
 Red. masses --     10.2061                 1.0352                 1.0356
 Frc consts  --     20.2564                 5.6393                 5.6561
 IR Inten    --     71.2205                24.8846                55.1925

                     58                     59                     60
                      A                      A                      A
 Frequencies --   3060.1108              3090.3055              3102.8243
 Red. masses --      1.0364                 1.0587                 1.1028
 Frc consts  --      5.7183                 5.9568                 6.2555
 IR Inten    --     18.8133                29.1312                 0.0881

                     61                     62                     63
                      A                      A                      A
 Frequencies --   3105.6842              3121.5158              3123.4969
 Red. masses --      1.1021                 1.0653                 1.1019
 Frc consts  --      6.2628                 6.1156                 6.3337
 IR Inten    --     50.4406                 8.5482                15.6613

                     64                     65                     66
                      A                      A                      A
 Frequencies --   3124.8171              3126.0521              3137.7553
 Red. masses --      1.1022                 1.0896                 1.1045
 Frc consts  --      6.3413                 6.2735                 6.4071
 IR Inten    --     27.8145                29.9086                10.8934

                     67                     68                     69
                      A                      A                      A
 Frequencies --   3157.6810              3197.2694              3199.4129
 Red. masses --      1.1062                 1.1155                 1.0902
 Frc consts  --      6.4984                 6.7184                 6.5751
 IR Inten    --     25.6157                 6.9438                 5.8885

 - Thermochemistry -
 -------------------
 Temperature   298.150 Kelvin.  Pressure   1.00000 Atm.
 Atom     1 has atomic number  6 and mass  12.00000

 Molecular mass:   154.09938 amu.
 Principal axes and moments of inertia in atomic units:
                           1         2         3
     Eigenvalues --   763.100243566.981033780.02346
           X            0.99988   0.01548  -0.00151
           Y           -0.01553   0.99907  -0.04010
           Z            0.00089   0.04012   0.99919
 This molecule is an asymmetric top.
 Rotational symmetry number  1.
 Warning -- assumption of classical behavior for rotation
           may cause significant error
 Rotational temperatures (Kelvin)      0.11350     0.02428     0.02291
 Rotational constants (GHZ):           2.36501     0.50596     0.47744
 Zero-point vibrational energy     563353.6 (Joules/Mol)
                                  134.64473 (Kcal/Mol)
 Warning -- explicit consideration of  17 degrees of freedom as
           vibrations may cause significant error
 Vibrational temperatures:     57.32    78.11   119.67   145.01   161.92
          (Kelvin)            274.95   300.53   317.91   329.56   359.41
                              461.28   506.42   526.17   555.70   644.89
                              661.76   725.76   974.73  1042.91  1051.97
                             1141.77  1201.05  1265.88  1272.98  1300.89
                             1356.51  1413.48  1428.60  1457.27  1493.62
                             1524.15  1536.42  1554.23  1632.62  1684.37
                             1740.50  1833.93  1867.07  1877.70  1933.85
                             1962.61  2042.82  2060.54  2077.01  2081.37
                             2131.76  2172.77  2180.35  2185.15  2187.79
                             2198.68  2209.98  2214.03  2576.23  2640.70
                             4374.89  4380.53  4402.82  4446.26  4464.27
                             4468.39  4491.16  4494.02  4495.91  4497.69
                             4514.53  4543.20  4600.16  4603.24

 Zero-point correction=                           0.214570 (Hartree/Particle)
 Thermal correction to Energy=                    0.227205
 Thermal correction to Enthalpy=                  0.228149
 Thermal correction to Gibbs Free Energy=         0.175134
 Sum of electronic and zero-point Energies=           -501.617695
 Sum of electronic and thermal Energies=              -501.605060
 Sum of electronic and thermal Enthalpies=            -501.604115
 Sum of electronic and thermal Free Energies=         -501.657131

                     E (Thermal)             CV                S
                      KCal/Mol        Cal/Mol-Kelvin    Cal/Mol-Kelvin
 Total                  142.573             45.448            111.581
 Electronic               0.000              0.000              0.000
 Translational            0.889              2.981             41.007
 Rotational               0.889              2.981             30.710
 Vibrational            140.796             39.486             39.865
 Vibration     1          0.594              1.981              5.267
 Vibration     2          0.596              1.976              4.655
 Vibration     3          0.600              1.961              3.815
 Vibration     4          0.604              1.948              3.439
 Vibration     5          0.607              1.939              3.225
 Vibration     6          0.634              1.852              2.217
 Vibration     7          0.642              1.827              2.053
 Vibration     8          0.648              1.809              1.951
 Vibration     9          0.652              1.797              1.886
 Vibration    10          0.663              1.763              1.732
 Vibration    11          0.706              1.634              1.307
 Vibration    12          0.729              1.571              1.157
 Vibration    13          0.739              1.543              1.098
 Vibration    14          0.755              1.500              1.015
 Vibration    15          0.807              1.365              0.801
 Vibration    16          0.818              1.339              0.766
 Vibration    17          0.860              1.240              0.647

                           ! Non-Optimized Parameters !

 1\1\GINC-NODE125\Freq\RB3LYP\6-31G(d)\C9H14O2\VSC10255\08-Dec-2020\0\\
 #N Geom=AllCheck Guess=TCheck SCRF=Check GenChk RB3LYP/6-31G(d) Freq\\
 CID_101698277_JID_1210_neutraal\\0,1\C,0.9015312623,-0.0055931995,-0.0
 640468488\C,0.7116512198,-0.4842359333,1.3668873228\O,1.0926261198,0.5
 345204504,2.3154495753\C,2.4165653721,0.6187806924,2.5945136509\O,3.25
 767234,-0.1155446017,2.1097283139\C,2.7344275835,1.6960828364,3.554988
 0519\C,1.8361284318,2.5226196347,4.0782672144\C,0.4368226244,2.9460189
 487,4.1746888824\C,1.5482582408,3.6577793345,4.9685694954\C,1.61061689

 Normal termination of Gaussian 16 at Tue Dec  8 19:28:53 2020.

 ----------------------------------------------------------------------
 # B3LYP/6-311++G(d,p) empiricaldispersion=gd3bj scf=xqc pop=npa geom=c
 heck
 ----------------------------------------------------------------------

 ---------------------------------------
 CID_101698277_JID_1210_Energie_neutraal
 ---------------------------------------
 Structure from the checkpoint file:  "JID_1210.chk"
 Charge =  0 Multiplicity = 1

 SCF Done:  E(RB3LYP) =  -501.976633512     A.U. after   14 cycles
 Normal termination of Gaussian 16 at Tue Dec  8 19:30:55 2020.

 ----------------------------------------------------------------------
 # B3LYP/6-311++G(d,p) empiricaldispersion=gd3bj scf=xqc pop=npa geom=c
 heck
 ----------------------------------------------------------------------

 -------------------------------------
 CID_101698277_JID_1210_Energie_kation
 -------------------------------------
 Structure from the checkpoint file:  "JID_1210.chk"
 Charge =  1 Multiplicity = 2

 SCF Done:  E(UB3LYP) =  -501.634570701     A.U. after   29 cycles
 Normal termination of Gaussian 16 at Tue Dec  8 19:36:47 2020.
 Gaussian 16:  ES64L-G16RevA.03 25-Dec-2016

 ------------------------------------
 CID_101698277_JID_1210_Energie_anion
 ------------------------------------
 Structure from the checkpoint file:  "JID_1210.chk"
 Charge = -1 Multiplicity = 2

                         Standard orientation:
 ---------------------------------------------------------------------
 Center     Atomic      Atomic             Coordinates (Angstroms)
 Number     Number       Type             X           Y           Z
 ---------------------------------------------------------------------
      1          6           0       -3.662041   -1.018927    0.611311
      2          6           0       -2.980723   -0.578907   -0.675123
      3          8           0       -1.577551   -0.317054   -0.462243
      4          6           0       -1.272005    0.906732    0.034528
      5          8           0       -2.101427    1.763611    0.278512
      6          6           0        0.178329    1.095592    0.246636
      7          6           0        1.097640    0.167033    0.008790
      8          6           0        1.412392   -1.190048   -0.444955
      9          6           0        2.516628   -0.220908    0.017179
     10          6           0        3.430133    0.374968   -1.042200
     11          6           0        3.180712   -0.486266    1.358980
     12          1           0       -3.156668   -1.891820    1.037407
     13          1           0       -4.705481   -1.287261    0.410171
     14          1           0       -3.649206   -0.208189    1.344350
     15          1           0       -2.996768   -1.370656   -1.428228
     16          1           0       -3.451470    0.319461   -1.082022
     17          1           0        0.447905    2.076196    0.628975
     18          1           0        1.145346   -2.023648    0.203028
     19          1           0        1.322474   -1.410506   -1.507635
     20          1           0        3.835350    1.337590   -0.708311
     21          1           0        4.274282   -0.296178   -1.242974
     22          1           0        2.894458    0.543743   -1.981734
     23          1           0        2.472945   -0.912336    2.077122
     24          1           0        4.016358   -1.187215    1.241982
     25          1           0        3.575912    0.442750    1.786849
 ---------------------------------------------------------------------

 SCF Done:  E(UB3LYP) =  -501.966952710     A.U. after   33 cycles
 SCF Done:  E(UB3LYP) =  -501.966952710     a.u. after    1 cycles

 The electronic state is 2-A.
 Alpha  occ. eigenvalues --  -19.02249 -18.95367 -10.14117 -10.10563 -10.07035
 Alpha  occ. eigenvalues --  -10.05377 -10.05168 -10.04938 -10.04891 -10.03968
 Alpha  occ. eigenvalues --  -10.03243  -0.96017  -0.87036  -0.75287  -0.65732
 Alpha  occ. eigenvalues --   -0.62377  -0.59339  -0.58053  -0.52871  -0.45912
 Alpha  occ. eigenvalues --   -0.43084  -0.40566  -0.36763  -0.35482  -0.34680
 Alpha  occ. eigenvalues --   -0.33502  -0.32260  -0.31455  -0.30948  -0.28728
 Alpha  occ. eigenvalues --   -0.28334  -0.27928  -0.26528  -0.26248  -0.24998
 Alpha  occ. eigenvalues --   -0.23428  -0.21730  -0.17029  -0.16783  -0.16514
 Alpha  occ. eigenvalues --   -0.13505  -0.12947   0.05126
 Alpha virt. eigenvalues --    0.07113   0.07490   0.08769   0.09514   0.09853
 Alpha virt. eigenvalues --    0.10158   0.11271   0.12024   0.12063   0.12847
 Alpha virt. eigenvalues --    0.13032   0.13364   0.14035   0.15603   0.16017

  Beta  occ. eigenvalues --  -19.02221 -18.95146 -10.13941 -10.10556 -10.07062
  Beta  occ. eigenvalues --  -10.05345 -10.05141 -10.04912 -10.04869 -10.03587
  Beta  occ. eigenvalues --  -10.03208  -0.95834  -0.86721  -0.74874  -0.65606
  Beta  occ. eigenvalues --   -0.62150  -0.59140  -0.57943  -0.52770  -0.45627
  Beta  occ. eigenvalues --   -0.42914  -0.40320  -0.36647  -0.35312  -0.34291
  Beta  occ. eigenvalues --   -0.33253  -0.32177  -0.31266  -0.30818  -0.28606
  Beta  occ. eigenvalues --   -0.28166  -0.27862  -0.26366  -0.25837  -0.24797
  Beta  occ. eigenvalues --   -0.23295  -0.21655  -0.16662  -0.16490  -0.16276
  Beta  occ. eigenvalues --   -0.12737  -0.12154
  Beta virt. eigenvalues --    0.07379   0.07857   0.09104   0.09709   0.09942
  Beta virt. eigenvalues --    0.10210   0.10513   0.11345   0.12042   0.12417
  Beta virt. eigenvalues --    0.12910   0.12993   0.13544   0.14069   0.15537

 Mulliken charges and spin densities:
               1          2
     1  C    0.353056  -0.705013
     2  C   -0.287027   0.102852
     3  O   -0.020356   0.021447
     4  C   -0.457786   0.193134
     5  O   -0.348122   0.070036
     6  C    0.080633   0.394726
     7  C    1.209140  -0.939447
     8  C    0.414499  -1.344135
     9  C   -1.445431   1.946323
    10  C   -0.546964  -0.081075
    11  C    0.492438  -1.115734
    12  H    0.082900   0.051029
    13  H   -0.342127   0.459916
    14  H    0.012758   0.154041
    15  H   -0.196684   0.339881
    16  H    0.197182  -0.040357
    17  H    0.137782   0.037870
    18  H    0.156999  -0.009721
    19  H   -0.153392   0.328038
    20  H    0.071969   0.053750
    21  H    0.043557   0.085666
    22  H    0.015604   0.121756
    23  H   -0.083551   0.219741
    24  H   -0.344466   0.482971
    25  H   -0.042609   0.172304
 Sum of Mulliken charges =  -1.00000   1.00000

 Dipole moment (field-independent basis, Debye):
    X=              0.8218    Y=              0.0538    Z=             -1.0007  Tot=              1.2960
 Quadrupole moment (field-independent basis, Debye-Ang):
   XX=           -133.7327   YY=            -94.2277   ZZ=            -88.8826
   XY=              5.0470   XZ=             -4.4355   YZ=             -2.0249

 Summary of Natural Population Analysis:

                                       Natural Population
                Natural  -----------------------------------------------
    Atom  No    Charge         Core      Valence    Rydberg      Total
 -----------------------------------------------------------------------
      C    1   -0.30013      0.99966     2.29537    0.00510     3.30013
      C    2   -0.01731      0.99958     2.00485    0.01287     3.01731
      O    3   -0.28659      0.99986     3.27764    0.00909     4.28659
      C    4    0.41187      0.99966     1.56435    0.02411     2.58813
      O    5   -0.30820      0.99987     3.30313    0.00519     4.30820
      C    6   -0.16270      0.99941     2.15426    0.00904     3.16270
      C    7    0.09979      0.99948     1.88867    0.01206     2.90021
      C    8   -0.20443      0.99958     2.19706    0.00780     3.20443
      C    9   -0.06142      0.99956     2.05128    0.01058     3.06142
      C   10   -0.27122      0.99962     2.26684    0.00475     3.27122
      C   11   -0.27386      0.99963     2.26807    0.00617     3.27386
      H   12    0.09761      0.00000     0.40134    0.00105     0.40239
      H   13    0.09716      0.00000     0.40139    0.00145     0.40284
      H   14    0.10697      0.00000     0.39208    0.00095     0.39303
      H   15    0.08524      0.00000     0.41339    0.00137     0.41476
      H   16    0.09232      0.00000     0.40643    0.00125     0.40768
      H   17    0.10041      0.00000     0.39853    0.00107     0.39959
      H   18    0.10489      0.00000     0.39383    0.00128     0.39511
      H   19    0.10714      0.00000     0.39079    0.00207     0.39286
      H   20    0.09467      0.00000     0.40420    0.00113     0.40533
      H   21    0.09352      0.00000     0.40543    0.00106     0.40648
      H   22    0.10089      0.00000     0.39814    0.00097     0.39911
      H   23    0.10129      0.00000     0.39778    0.00094     0.39871
      H   24    0.09590      0.00000     0.40253    0.00156     0.40410
      H   25    0.09619      0.00000     0.40278    0.00103     0.40381
 =======================================================================
   * Total *    0.00000     10.99592    30.88016    0.12392    42.00000

 Normal termination of Gaussian 16 at Tue Dec  8 19:43:35 2020.
