 Gaussian 16, Revision A.03,

 -----------------------------------------------------------
 # opt freq B3LYP/6-31G(d) empiricaldispersion=gd3bj scf=xqc
 -----------------------------------------------------------

 ------------------------------
 CID_80463548_JID_6225_neutraal
 ------------------------------
 Symbolic Z-matrix:
 Charge =  0 Multiplicity = 1

 SCF Done:  E(RB3LYP) =  -744.064192582     A.U. after   15 cycles
 SCF Done:  E(RB3LYP) =  -744.072115189     A.U. after   11 cycles
 SCF Done:  E(RB3LYP) =  -744.073164539     A.U. after   11 cycles
 SCF Done:  E(RB3LYP) =  -744.073883083     A.U. after   12 cycles
 SCF Done:  E(RB3LYP) =  -744.074447193     A.U. after   13 cycles
 SCF Done:  E(RB3LYP) =  -744.075266963     A.U. after   12 cycles
 SCF Done:  E(RB3LYP) =  -744.075799364     A.U. after   12 cycles
 SCF Done:  E(RB3LYP) =  -744.076221361     A.U. after   13 cycles
 SCF Done:  E(RB3LYP) =  -744.076442422     A.U. after   12 cycles
 SCF Done:  E(RB3LYP) =  -744.076574147     A.U. after   12 cycles
 SCF Done:  E(RB3LYP) =  -744.076620752     A.U. after    9 cycles
 SCF Done:  E(RB3LYP) =  -744.076621867     A.U. after    9 cycles
 SCF Done:  E(RB3LYP) =  -744.076622276     A.U. after    9 cycles
 SCF Done:  E(RB3LYP) =  -744.076622407     A.U. after    8 cycles
 SCF Done:  E(RB3LYP) =  -744.076622398     A.U. after    7 cycles
 Optimization completed.
    -- Stationary point found.
 Normal termination of Gaussian 16 at Thu Dec 10 21:23:36 2020.

 --------------------------------------------------------------------
 #N Geom=AllCheck Guess=TCheck SCRF=Check GenChk RB3LYP/6-31G(d) Freq
 --------------------------------------------------------------------

 Structure from the checkpoint file:  "JID_6225.chk"
 ------------------------------
 CID_80463548_JID_6225_neutraal
 ------------------------------
 Charge =  0 Multiplicity = 1

 SCF Done:  E(RB3LYP) =  -744.076622398     A.U. after    1 cycles

  Exact polarizability: 169.990   7.065 127.466  -2.905   4.704 102.333
 Approx polarizability: 214.167   8.180 198.758  -3.728  12.803 159.140

                      1                      2                      3
                      A                      A                      A
 Frequencies --     14.5280                25.8415                43.2275
 Red. masses --      3.1889                 5.2787                 4.5198
 Frc consts  --      0.0004                 0.0021                 0.0050
 IR Inten    --      0.0473                 0.7376                 0.0825

                      4                      5                      6
                      A                      A                      A
 Frequencies --     83.5530               111.7151               148.7313
 Red. masses --      4.2608                 4.0448                 2.9463
 Frc consts  --      0.0175                 0.0297                 0.0384
 IR Inten    --      0.3714                 0.8861                 3.2852

                      7                      8                      9
                      A                      A                      A
 Frequencies --    183.1624               195.2499               223.2120
 Red. masses --      2.8864                 3.2193                 1.1534
 Frc consts  --      0.0571                 0.0723                 0.0339
 IR Inten    --      0.3883                 0.5111                 0.0282

                     10                     11                     12
                      A                      A                      A
 Frequencies --    238.6906               253.0274               296.9241
 Red. masses --      3.0475                 1.1196                 2.3226
 Frc consts  --      0.1023                 0.0422                 0.1206
 IR Inten    --      2.8023                 1.7420                 1.2157

                     13                     14                     15
                      A                      A                      A
 Frequencies --    301.4195               322.7747               350.0300
 Red. masses --      3.3799                 2.1215                 3.3969
 Frc consts  --      0.1809                 0.1302                 0.2452
 IR Inten    --      0.6972                 0.4210                 0.1606

                     16                     17                     18
                      A                      A                      A
 Frequencies --    388.5630               418.4423               444.2689
 Red. masses --      5.5423                 3.0685                 4.3216
 Frc consts  --      0.4930                 0.3166                 0.5026
 IR Inten    --      1.5685                 9.8009                 3.2066

                     19                     20                     21
                      A                      A                      A
 Frequencies --    460.9093               477.9156               553.7534
 Red. masses --      3.5097                 3.6889                 3.7932
 Frc consts  --      0.4393                 0.4964                 0.6853
 IR Inten    --      1.0616                 8.2561                 7.4816

                     22                     23                     24
                      A                      A                      A
 Frequencies --    639.6779               721.3916               750.1997
 Red. masses --      3.0113                 7.3376                 3.7402
 Frc consts  --      0.7260                 2.2498                 1.2402
 IR Inten    --      2.9092                 1.0815                 7.1220

                     25                     26                     27
                      A                      A                      A
 Frequencies --    770.9803               788.7474               795.2210
 Red. masses --      2.8897                 3.8846                 3.6735
 Frc consts  --      1.0120                 1.4239                 1.3687
 IR Inten    --     10.2513                11.6711                34.0428

                     28                     29                     30
                      A                      A                      A
 Frequencies --    803.8888               835.1587               849.5035
 Red. masses --      1.1153                 1.8627                 2.8003
 Frc consts  --      0.4247                 0.7655                 1.1907
 IR Inten    --      2.1997                65.7588                 6.6115

                     31                     32                     33
                      A                      A                      A
 Frequencies --    855.3823               910.1284               922.1259
 Red. masses --      3.0217                 3.5138                 6.5420
 Frc consts  --      1.3026                 1.7149                 3.2775
 IR Inten    --      1.2678                15.5566                21.1037

                     34                     35                     36
                      A                      A                      A
 Frequencies --    956.7913               964.1966               971.2330
 Red. masses --      3.6390                 2.7825                 1.3814
 Frc consts  --      1.9627                 1.5241                 0.7677
 IR Inten    --      8.8612                21.3808                 2.5049

                     37                     38                     39
                      A                      A                      A
 Frequencies --    972.8907              1003.0281              1024.3359
 Red. masses --      1.4719                 2.0350                 5.8061
 Frc consts  --      0.8208                 1.2063                 3.5894
 IR Inten    --      2.5466                11.0701                 3.4955

                     40                     41                     42
                      A                      A                      A
 Frequencies --   1029.2883              1058.1800              1068.7276
 Red. masses --      3.1111                 1.3740                 3.6854
 Frc consts  --      1.9420                 0.9064                 2.4801
 IR Inten    --      4.0863                 5.4958                18.3161

                     43                     44                     45
                      A                      A                      A
 Frequencies --   1087.6910              1092.9291              1096.3513
 Red. masses --      1.8609                 1.3670                 2.1770
 Frc consts  --      1.2971                 0.9621                 1.5417
 IR Inten    --      3.4419                 1.0199                 4.7545

                     46                     47                     48
                      A                      A                      A
 Frequencies --   1123.8958              1134.7602              1142.7525
 Red. masses --      3.1790                 1.5560                 2.7350
 Frc consts  --      2.3659                 1.1805                 2.1043
 IR Inten    --     40.2543                 3.1522                56.5831

                     49                     50                     51
                      A                      A                      A
 Frequencies --   1185.8057              1208.3382              1212.6577
 Red. masses --      1.2856                 1.4318                 1.3184
 Frc consts  --      1.0651                 1.2317                 1.1423
 IR Inten    --      5.9982                 0.4367                 0.0679

                     52                     53                     54
                      A                      A                      A
 Frequencies --   1239.8967              1244.6725              1253.4213
 Red. masses --      1.4615                 2.7049                 1.8048
 Frc consts  --      1.3238                 2.4689                 1.6706
 IR Inten    --     11.6796                34.9139                59.3311

                     55                     56                     57
                      A                      A                      A
 Frequencies --   1265.7079              1306.2130              1321.0443
 Red. masses --      2.1481                 1.6684                 1.8066
 Frc consts  --      2.0276                 1.6772                 1.8576
 IR Inten    --     71.4418                17.0798                 0.7929

                     58                     59                     60
                      A                      A                      A
 Frequencies --   1324.6494              1331.2846              1374.8031
 Red. masses --      2.1280                 1.2527                 1.3182
 Frc consts  --      2.2000                 1.3081                 1.4679
 IR Inten    --      5.0334                 3.7422                 2.5156

                     61                     62                     63
                      A                      A                      A
 Frequencies --   1397.9746              1423.1618              1431.3340
 Red. masses --      2.5339                 1.2150                 2.4840
 Frc consts  --      2.9176                 1.4499                 2.9984
 IR Inten    --     34.1629                13.5871               106.8788

                     64                     65                     66
                      A                      A                      A
 Frequencies --   1450.0190              1488.3091              1503.2839
 Red. masses --      1.3162                 1.0857                 1.1769
 Frc consts  --      1.6306                 1.4169                 1.5671
 IR Inten    --     24.0752                 3.8239                 9.6917

                     67                     68                     69
                      A                      A                      A
 Frequencies --   1508.3936              1512.1223              1517.1670
 Red. masses --      1.0799                 1.2038                 1.0452
 Frc consts  --      1.4477                 1.6218                 1.4174
 IR Inten    --      5.4494                 7.3455                 3.2008

                     70                     71                     72
                      A                      A                      A
 Frequencies --   1521.6965              1523.1672              1530.8590
 Red. masses --      1.2729                 1.1111                 1.1562
 Frc consts  --      1.7366                 1.5188                 1.5965
 IR Inten    --      0.9310                 0.0617                11.4130

                     73                     74                     75
                      A                      A                      A
 Frequencies --   1534.3598              1546.3395              1562.6625
 Red. masses --      1.0934                 1.0598                 5.6514
 Frc consts  --      1.5166                 1.4931                 8.1309
 IR Inten    --     10.4165                11.4854                29.4860

                     76                     77                     78
                      A                      A                      A
 Frequencies --   1624.3314              3007.2091              3041.8354
 Red. masses --     10.2967                 1.0416                 1.0709
 Frc consts  --     16.0066                 5.5500                 5.8382
 IR Inten    --    100.7628                42.6832                42.0925

                     79                     80                     81
                      A                      A                      A
 Frequencies --   3056.5211              3060.6886              3069.2252
 Red. masses --      1.0350                 1.0855                 1.0968
 Frc consts  --      5.6972                 5.9910                 6.0875
 IR Inten    --     21.8778                21.6181                31.9951

                     82                     83                     84
                      A                      A                      A
 Frequencies --   3090.0608              3102.8260              3122.9130
 Red. masses --      1.0662                 1.0824                 1.1025
 Frc consts  --      5.9982                 6.1397                 6.3351
 IR Inten    --     12.8527                43.1833                22.8423

                     85                     86                     87
                      A                      A                      A
 Frequencies --   3128.8964              3130.8626              3134.5790
 Red. masses --      1.0959                 1.1029                 1.0994
 Frc consts  --      6.3212                 6.3694                 6.3647
 IR Inten    --     18.7522                21.0723                38.1612

                     88                     89                     90
                      A                      A                      A
 Frequencies --   3139.6791              3151.8126              3154.7264
 Red. masses --      1.1059                 1.0511                 1.0588
 Frc consts  --      6.4232                 6.1519                 6.2087
 IR Inten    --     19.0406                14.4033                12.7517

                     91                     92                     93
                      A                      A                      A
 Frequencies --   3235.4408              3248.1807              3511.3573
 Red. masses --      1.1197                 1.1168                 1.0742
 Frc consts  --      6.9060                 6.9422                 7.8035
 IR Inten    --      0.1504                10.1090                 5.8151

 - Thermochemistry -
 -------------------
 Temperature   298.150 Kelvin.  Pressure   1.00000 Atm.
 Atom     1 has atomic number  6 and mass  12.00000

 Molecular mass:   223.13208 amu.
 Principal axes and moments of inertia in atomic units:
                           1         2         3
     Eigenvalues --  1644.371266145.049246960.71523
           X            0.99990   0.01429  -0.00039
           Y           -0.01428   0.99979   0.01495
           Z            0.00060  -0.01495   0.99989
 This molecule is an asymmetric top.
 Rotational symmetry number  1.
 Warning -- assumption of classical behavior for rotation
           may cause significant error
 Rotational temperatures (Kelvin)      0.05267     0.01409     0.01244
 Rotational constants (GHZ):           1.09753     0.29369     0.25928
 Zero-point vibrational energy     739506.8 (Joules/Mol)
                                  176.74637 (Kcal/Mol)
 Warning -- explicit consideration of  21 degrees of freedom as
           vibrations may cause significant error
 Vibrational temperatures:     20.90    37.18    62.19   120.21   160.73
          (Kelvin)            213.99   263.53   280.92   321.15   343.42
                              364.05   427.21   433.68   464.40   503.62
                              559.06   602.05   639.20   663.15   687.61
                              796.73   920.35  1037.92  1079.37  1109.27
                             1134.83  1144.15  1156.62  1201.61  1222.25
                             1230.70  1309.47  1326.73  1376.61  1387.26
                             1397.39  1399.77  1443.13  1473.79  1480.92
                             1522.48  1537.66  1564.94  1572.48  1577.41
                             1617.04  1632.67  1644.17  1706.11  1738.53
                             1744.74  1783.93  1790.81  1803.39  1821.07
                             1879.35  1900.69  1905.88  1915.42  1978.04
                             2011.37  2047.61  2059.37  2086.25  2141.34
                             2162.89  2170.24  2175.61  2182.86  2189.38
                             2191.50  2202.56  2207.60  2224.84  2248.32
                             2337.05  4326.70  4376.52  4397.65  4403.65
                             4415.93  4445.91  4464.27  4493.18  4501.78
                             4504.61  4509.96  4517.30  4534.76  4538.95
                             4655.08  4673.41  5052.06

 Zero-point correction=                           0.281663 (Hartree/Particle)
 Thermal correction to Energy=                    0.296761
 Thermal correction to Enthalpy=                  0.297705
 Thermal correction to Gibbs Free Energy=         0.237245
 Sum of electronic and zero-point Energies=           -743.794959
 Sum of electronic and thermal Energies=              -743.779861
 Sum of electronic and thermal Enthalpies=            -743.778917
 Sum of electronic and thermal Free Energies=         -743.839377

                     E (Thermal)             CV                S
                      KCal/Mol        Cal/Mol-Kelvin    Cal/Mol-Kelvin
 Total                  186.220             57.379            127.249
 Electronic               0.000              0.000              0.000
 Translational            0.889              2.981             42.110
 Rotational               0.889              2.981             32.620
 Vibrational            184.443             51.418             52.519
 Vibration     1          0.593              1.986              7.269
 Vibration     2          0.593              1.985              6.125
 Vibration     3          0.595              1.980              5.105
 Vibration     4          0.600              1.960              3.806
 Vibration     5          0.607              1.940              3.239
 Vibration     6          0.618              1.904              2.688
 Vibration     7          0.631              1.863              2.296
 Vibration     8          0.636              1.846              2.177
 Vibration     9          0.649              1.806              1.933
 Vibration    10          0.657              1.781              1.813
 Vibration    11          0.664              1.758              1.709
 Vibration    12          0.691              1.679              1.434
 Vibration    13          0.693              1.671              1.409
 Vibration    14          0.708              1.630              1.296
 Vibration    15          0.727              1.575              1.166
 Vibration    16          0.757              1.495              1.006
 Vibration    17          0.781              1.430              0.897
 Vibration    18          0.804              1.374              0.813
 Vibration    19          0.819              1.337              0.763
 Vibration    20          0.834              1.299              0.716
 Vibration    21          0.909              1.131              0.536

                           ! Non-Optimized Parameters !
 Normal termination of Gaussian 16 at Thu Dec 10 21:35:40 2020.

 ----------------------------------------------------------------------
 # B3LYP/6-311++G(d,p) empiricaldispersion=gd3bj scf=xqc pop=npa geom=c
 heck
 ----------------------------------------------------------------------

 --------------------------------------
 CID_80463548_JID_6225_Energie_neutraal
 --------------------------------------
 Structure from the checkpoint file:  "JID_6225.chk"
 Charge =  0 Multiplicity = 1

 SCF Done:  E(RB3LYP) =  -744.280905776     A.U. after   15 cycles
 Normal termination of Gaussian 16 at Thu Dec 10 21:41:36 2020.

 ----------------------------------------------------------------------
 # B3LYP/6-311++G(d,p) empiricaldispersion=gd3bj scf=xqc pop=npa geom=c
 heck
 ----------------------------------------------------------------------

 ------------------------------------
 CID_80463548_JID_6225_Energie_kation
 ------------------------------------
 Structure from the checkpoint file:  "JID_6225.chk"
 Charge =  1 Multiplicity = 2

 SCF Done:  E(UB3LYP) =  -743.972520961     A.U. after   24 cycles
 Normal termination of Gaussian 16 at Thu Dec 10 21:55:06 2020.
 Gaussian 16:  ES64L-G16RevA.03 25-Dec-2016

 ----------------------------------------------------------------------
 # B3LYP/6-311++G(d,p) empiricaldispersion=gd3bj scf=xqc pop=npa geom=c
 heck
 ----------------------------------------------------------------------

 -----------------------------------
 CID_80463548_JID_6225_Energie_anion
 -----------------------------------
 Structure from the checkpoint file:  "JID_6225.chk"
 Charge = -1 Multiplicity = 2

                         Standard orientation:
 ---------------------------------------------------------------------
 Center     Atomic      Atomic             Coordinates (Angstroms)
 Number     Number       Type             X           Y           Z
 ---------------------------------------------------------------------
      1          6           0        2.650863    2.025329    0.454159
      2          6           0        3.020841    0.604206    0.078042
      3          6           0        4.192292    0.368431   -0.860796
      4          6           0        4.334518    0.026594    0.591267
      5          6           0        1.880838   -0.334549   -0.024586
      6          7           0        1.995321   -1.567063   -0.465356
      7          8           0        0.679029   -2.074102   -0.364369
      8          6           0       -0.077035   -1.080981    0.118617
      9          7           0        0.594147    0.011782    0.350077
     10          6           0       -1.544023   -1.290534    0.271598
     11          6           0       -2.343494   -0.826201   -0.998798
     12          6           0       -3.477407    0.083208   -0.459147
     13          6           0       -3.433550   -0.170209    1.065422
     14          7           0       -2.056930   -0.530918    1.421841
     15          8           0       -3.351867    1.445940   -0.846806
     16          6           0       -2.244562    2.162557   -0.332109
     17          1           0        2.145157    2.059183    1.424199
     18          1           0        1.978821    2.469613   -0.287993
     19          1           0        3.552694    2.643068    0.512452
     20          1           0        4.100623   -0.448119   -1.569786
     21          1           0        4.698820    1.252441   -1.238291
     22          1           0        4.938386    0.672377    1.222963
     23          1           0        4.335930   -1.022464    0.869504
     24          1           0       -1.719744   -2.360045    0.435509
     25          1           0       -1.718331   -0.267853   -1.700205
     26          1           0       -2.745981   -1.689383   -1.535299
     27          1           0       -4.444777   -0.207225   -0.877995
     28          1           0       -3.778516    0.688685    1.646983
     29          1           0       -4.091319   -1.016889    1.303476
     30          1           0       -1.489238    0.307569    1.527030
     31          1           0       -2.324035    2.331087    0.752571
     32          1           0       -1.282918    1.672712   -0.536186
     33          1           0       -2.256313    3.136828   -0.827496
 ---------------------------------------------------------------------

 SCF Done:  E(UB3LYP) =  -744.269147123     A.U. after   33 cycles
 SCF Done:  E(UB3LYP) =  -744.269147123     a.u. after    1 cycles

 The electronic state is 2-A.
 Alpha  occ. eigenvalues --  -19.10910 -19.02850 -14.25201 -14.21449 -14.20574
 Alpha  occ. eigenvalues --  -10.16580 -10.13694 -10.12493 -10.12090 -10.11316
 Alpha  occ. eigenvalues --  -10.10841 -10.09637 -10.08733 -10.08667 -10.07545
 Alpha  occ. eigenvalues --  -10.07188  -1.05702  -0.94003  -0.84209  -0.82969
 Alpha  occ. eigenvalues --   -0.78957  -0.75378  -0.66963  -0.64887  -0.63057
 Alpha  occ. eigenvalues --   -0.58930  -0.56042  -0.53927  -0.51818  -0.49386
 Alpha  occ. eigenvalues --   -0.48284  -0.46481  -0.43203  -0.40899  -0.40595
 Alpha  occ. eigenvalues --   -0.38813  -0.38205  -0.37417  -0.35782  -0.34422
 Alpha  occ. eigenvalues --   -0.33635  -0.32526  -0.32384  -0.30594  -0.29966
 Alpha  occ. eigenvalues --   -0.29613  -0.28431  -0.27702  -0.27210  -0.26450
 Alpha  occ. eigenvalues --   -0.26035  -0.24249  -0.23932  -0.22214  -0.21631
 Alpha  occ. eigenvalues --   -0.20188  -0.19643  -0.17311  -0.16624  -0.13500
 Alpha  occ. eigenvalues --    0.04369
 Alpha virt. eigenvalues --    0.05806   0.06520   0.07223   0.08131   0.08604
 Alpha virt. eigenvalues --    0.08697   0.08989   0.09946   0.10270   0.10838
 Alpha virt. eigenvalues --    0.11483   0.11711   0.11889   0.12624   0.13142

  Beta  occ. eigenvalues --  -19.10788 -19.02851 -14.25073 -14.21463 -14.20569
  Beta  occ. eigenvalues --  -10.16422 -10.13654 -10.12477 -10.12094 -10.11295
  Beta  occ. eigenvalues --  -10.10846 -10.09611 -10.08713 -10.08654 -10.07500
  Beta  occ. eigenvalues --  -10.07166  -1.05498  -0.93995  -0.84123  -0.82912
  Beta  occ. eigenvalues --   -0.78897  -0.75212  -0.66916  -0.64797  -0.63018
  Beta  occ. eigenvalues --   -0.58880  -0.55955  -0.53765  -0.51770  -0.49314
  Beta  occ. eigenvalues --   -0.48211  -0.46393  -0.43145  -0.40864  -0.40482
  Beta  occ. eigenvalues --   -0.38383  -0.38160  -0.37371  -0.35725  -0.34347
  Beta  occ. eigenvalues --   -0.33577  -0.32485  -0.32328  -0.30559  -0.29897
  Beta  occ. eigenvalues --   -0.29533  -0.28373  -0.27638  -0.27160  -0.26413
  Beta  occ. eigenvalues --   -0.25953  -0.23957  -0.23807  -0.22112  -0.21590
  Beta  occ. eigenvalues --   -0.19978  -0.19573  -0.17286  -0.16133  -0.13453
  Beta virt. eigenvalues --    0.06413   0.07008   0.07665   0.08053   0.08409
  Beta virt. eigenvalues --    0.08886   0.09052   0.09302   0.10364   0.10681
  Beta virt. eigenvalues --    0.11016   0.11655   0.11891   0.12019   0.12883

 Mulliken charges and spin densities:
               1          2
     1  C    0.167563  -0.746804
     2  C   -0.085204   1.198913
     3  C   -0.124380  -0.404542
     4  C    0.006114  -0.467730
     5  C    0.279441  -0.893631
     6  N   -0.419298   0.102701
     7  O    0.202103   0.015139
     8  C    0.324322  -0.603225
     9  N    0.023913  -0.023198
    10  C   -0.830163   0.905507
    11  C    0.459913  -1.069057
    12  C   -0.619619   0.595859
    13  C    0.720068  -1.152882
    14  N   -0.052034  -0.020230
    15  O   -0.092080  -0.008046
    16  C    0.039371  -0.481217
    17  H    0.007309   0.167309
    18  H   -0.036507   0.198791
    19  H   -0.322117   0.462831
    20  H    0.111905   0.072450
    21  H   -0.002974   0.154282
    22  H   -0.132971   0.283664
    23  H    0.144963   0.025291
    24  H   -0.121703   0.384556
    25  H    0.076850   0.142964
    26  H   -0.335680   0.495010
    27  H   -0.458404   0.699875
    28  H   -0.085560   0.263143
    29  H   -0.313278   0.468117
    30  H    0.244086  -0.024710
    31  H   -0.079034   0.220144
    32  H    0.377138  -0.176886
    33  H   -0.074053   0.215611
 Sum of Mulliken charges =  -1.00000   1.00000

 Dipole moment (field-independent basis, Debye):
    X=              2.8919    Y=              0.5803    Z=              0.0648  Tot=              2.9502
 Quadrupole moment (field-independent basis, Debye-Ang):
   XX=           -183.5854   YY=           -142.4686   ZZ=           -124.7887
   XY=            -12.4168   XZ=             -4.1898   YZ=             -2.5658

 Summary of Natural Population Analysis:

                                       Natural Population
                Natural  -----------------------------------------------
    Atom  No    Charge         Core      Valence    Rydberg      Total
 -----------------------------------------------------------------------
      C    1   -0.27692      0.99964     2.27088    0.00640     3.27692
      C    2   -0.06672      0.99953     2.05563    0.01155     3.06672
      C    3   -0.18700      0.99960     2.17854    0.00885     3.18700
      C    4   -0.18453      0.99961     2.17622    0.00871     3.18453
      C    5    0.18707      0.99958     1.79465    0.01870     2.81293
      N    6   -0.08904      0.99966     2.57848    0.01091     3.58904
      O    7   -0.15884      0.99985     3.15097    0.00802     4.15884
      C    8    0.31621      0.99958     1.66506    0.01915     2.68379
      N    9   -0.28654      0.99966     2.77871    0.00817     3.78654
      C   10   -0.04430      0.99956     2.03077    0.01397     3.04430
      C   11   -0.20564      0.99961     2.19726    0.00878     3.20564
      C   12    0.06012      0.99954     1.92416    0.01619     2.93988
      C   13   -0.10748      0.99962     2.09639    0.01148     3.10748
      N   14   -0.33562      0.99976     2.82425    0.01161     3.83562
      O   15   -0.30050      0.99988     3.29083    0.00979     4.30050
      C   16   -0.10599      0.99959     2.09741    0.00899     3.10599
      H   17    0.10627      0.00000     0.39264    0.00109     0.39373
      H   18    0.10361      0.00000     0.39521    0.00118     0.39639
      H   19    0.09891      0.00000     0.39985    0.00124     0.40109
      H   20    0.11038      0.00000     0.38851    0.00111     0.38962
      H   21    0.10178      0.00000     0.39732    0.00089     0.39822
      H   22    0.10202      0.00000     0.39695    0.00103     0.39798
      H   23    0.10820      0.00000     0.39081    0.00099     0.39180
      H   24    0.10645      0.00000     0.39172    0.00183     0.39355
      H   25    0.10788      0.00000     0.39104    0.00108     0.39212
      H   26    0.11020      0.00000     0.38756    0.00224     0.38980
      H   27    0.09661      0.00000     0.40155    0.00184     0.40339
      H   28    0.10149      0.00000     0.39759    0.00092     0.39851
      H   29    0.09755      0.00000     0.40076    0.00169     0.40245
      H   30    0.18112      0.00000     0.31442    0.00446     0.31888
      H   31    0.07551      0.00000     0.42295    0.00154     0.42449
      H   32    0.08837      0.00000     0.40971    0.00192     0.41163
      H   33    0.08938      0.00000     0.40950    0.00113     0.41062
 =======================================================================
   * Total *   -0.00000     15.99426    43.79830    0.20744    60.00000

 Normal termination of Gaussian 16 at Thu Dec 10 22:13:44 2020.
