 Gaussian 16, Revision A.03,

 -----------------------------------------------------------
 # opt freq B3LYP/6-31G(d) empiricaldispersion=gd3bj scf=xqc
 -----------------------------------------------------------

 ------------------------------
 CID_82383594_JID_8678_neutraal
 ------------------------------
 Symbolic Z-matrix:
 Charge =  0 Multiplicity = 1

 SCF Done:  E(RB3LYP) =  -874.923325869     A.U. after   16 cycles
 SCF Done:  E(RB3LYP) =  -874.928852548     A.U. after   13 cycles
 SCF Done:  E(RB3LYP) =  -874.928409243     A.U. after   13 cycles
 SCF Done:  E(RB3LYP) =  -874.930395796     A.U. after   12 cycles
 SCF Done:  E(RB3LYP) =  -874.930479460     A.U. after   12 cycles
 SCF Done:  E(RB3LYP) =  -874.930800928     A.U. after   11 cycles
 SCF Done:  E(RB3LYP) =  -874.930881449     A.U. after   11 cycles
 SCF Done:  E(RB3LYP) =  -874.930915270     A.U. after   11 cycles
 SCF Done:  E(RB3LYP) =  -874.930932520     A.U. after    9 cycles
 SCF Done:  E(RB3LYP) =  -874.930942132     A.U. after   10 cycles
 SCF Done:  E(RB3LYP) =  -874.930943694     A.U. after    9 cycles
 SCF Done:  E(RB3LYP) =  -874.930944013     A.U. after    7 cycles
 SCF Done:  E(RB3LYP) =  -874.930944120     A.U. after    7 cycles
 Optimization completed.
    -- Stationary point found.
 Normal termination of Gaussian 16 at Fri Dec 11 21:29:54 2020.

 --------------------------------------------------------------------
 #N Geom=AllCheck Guess=TCheck SCRF=Check GenChk RB3LYP/6-31G(d) Freq
 --------------------------------------------------------------------

 Structure from the checkpoint file:  "JID_8678.chk"
 ------------------------------
 CID_82383594_JID_8678_neutraal
 ------------------------------
 Charge =  0 Multiplicity = 1

 SCF Done:  E(RB3LYP) =  -874.930944120     A.U. after    1 cycles

  Exact polarizability: 204.662  -2.211 158.334 -11.313   1.958  88.047
 Approx polarizability: 295.800 -17.926 262.028 -24.419  14.249 141.588

                      1                      2                      3
                      A                      A                      A
 Frequencies --     15.8468                40.7384                63.2262
 Red. masses --      1.0365                 5.8296                 6.0039
 Frc consts  --      0.0002                 0.0057                 0.0141
 IR Inten    --      0.1307                 1.0285                 2.5663

                      4                      5                      6
                      A                      A                      A
 Frequencies --     71.9792                87.2282               103.0142
 Red. masses --      3.8104                 4.1771                 5.0029
 Frc consts  --      0.0116                 0.0187                 0.0313
 IR Inten    --      7.8379                 1.5107                 0.2533

                      7                      8                      9
                      A                      A                      A
 Frequencies --    145.0737               169.7927               186.3180
 Red. masses --      6.6945                 3.2670                 5.8759
 Frc consts  --      0.0830                 0.0555                 0.1202
 IR Inten    --      0.6722                 2.5029                 0.9451

                     10                     11                     12
                      A                      A                      A
 Frequencies --    210.4293               230.5001               240.4995
 Red. masses --      3.8261                 1.4895                 2.8201
 Frc consts  --      0.0998                 0.0466                 0.0961
 IR Inten    --      1.0407                 3.2796                 5.4970

                     13                     14                     15
                      A                      A                      A
 Frequencies --    270.2427               310.9900               343.5267
 Red. masses --      4.4571                 4.7595                 3.4015
 Frc consts  --      0.1918                 0.2712                 0.2365
 IR Inten    --      1.0582                 4.2947                10.2227

                     16                     17                     18
                      A                      A                      A
 Frequencies --    354.1412               362.0072               375.2474
 Red. masses --      1.8839                 2.2972                 4.1310
 Frc consts  --      0.1392                 0.1774                 0.3427
 IR Inten    --    159.1944               105.3140                 8.0270

                     19                     20                     21
                      A                      A                      A
 Frequencies --    386.9222               431.2723               470.6534
 Red. masses --      4.7746                 5.9579                 4.8954
 Frc consts  --      0.4211                 0.6529                 0.6389
 IR Inten    --      0.8038                 5.7162                 2.0867

                     22                     23                     24
                      A                      A                      A
 Frequencies --    485.2771               500.2272               554.7410
 Red. masses --      3.8233                 1.2243                 4.4282
 Frc consts  --      0.5305                 0.1805                 0.8029
 IR Inten    --      6.4217                60.9503                 3.8924

                     25                     26                     27
                      A                      A                      A
 Frequencies --    564.0096               580.8121               620.8245
 Red. masses --      1.2275                 3.4651                 4.7819
 Frc consts  --      0.2301                 0.6887                 1.0859
 IR Inten    --     85.9724                 8.5896                 8.3540

                     28                     29                     30
                      A                      A                      A
 Frequencies --    669.9236               682.9962               704.5593
 Red. masses --      5.3162                 7.7764                 5.4192
 Frc consts  --      1.4057                 2.1373                 1.5850
 IR Inten    --     39.4445                 0.5853                14.8693

                     31                     32                     33
                      A                      A                      A
 Frequencies --    721.3058               749.7508               752.9059
 Red. masses --      6.5216                 4.6825                 5.3819
 Frc consts  --      1.9991                 1.5508                 1.7975
 IR Inten    --      5.6085                 9.4451                16.9738

                     34                     35                     36
                      A                      A                      A
 Frequencies --    781.6704               789.9783               824.0302
 Red. masses --      5.9828                 8.3948                 1.5426
 Frc consts  --      2.1538                 3.0867                 0.6172
 IR Inten    --     18.3254                 9.7383                30.4710

                     37                     38                     39
                      A                      A                      A
 Frequencies --    853.9038               897.4267               917.9686
 Red. masses --      8.8161                 4.5779                 1.4293
 Frc consts  --      3.7874                 2.1723                 0.7096
 IR Inten    --     40.3923                 4.5358                 1.4086

                     40                     41                     42
                      A                      A                      A
 Frequencies --    941.7818              1014.2495              1037.5483
 Red. masses --      1.3315                 2.4299                 2.1604
 Frc consts  --      0.6958                 1.4728                 1.3703
 IR Inten    --      0.7608                28.9917                42.0635

                     43                     44                     45
                      A                      A                      A
 Frequencies --   1062.1568              1077.5666              1077.8092
 Red. masses --      2.7849                 5.8445                 1.4944
 Frc consts  --      1.8511                 3.9984                 1.0228
 IR Inten    --     85.4569                37.0020                 3.8970

                     46                     47                     48
                      A                      A                      A
 Frequencies --   1112.8250              1167.4214              1183.1954
 Red. masses --      3.1423                 2.6336                 1.3360
 Frc consts  --      2.2927                 2.1147                 1.1020
 IR Inten    --    195.7884                13.4220                 6.4265

                     49                     50                     51
                      A                      A                      A
 Frequencies --   1191.0358              1221.9763              1241.5261
 Red. masses --      1.4297                 1.3799                 2.1528
 Frc consts  --      1.1949                 1.2140                 1.9551
 IR Inten    --     10.1595                 6.2572                 9.0426

                     52                     53                     54
                      A                      A                      A
 Frequencies --   1266.4178              1305.3054              1319.7164
 Red. masses --      1.9489                 3.3793                 1.7315
 Frc consts  --      1.8416                 3.3923                 1.7767
 IR Inten    --     20.2583               124.6099                77.9983

                     55                     56                     57
                      A                      A                      A
 Frequencies --   1357.5973              1363.5635              1395.0120
 Red. masses --      7.5088                 3.6612                 3.9186
 Frc consts  --      8.1539                 4.0108                 4.4930
 IR Inten    --     35.4107                 4.1677                11.3562

                     58                     59                     60
                      A                      A                      A
 Frequencies --   1444.2125              1464.7066              1495.5763
 Red. masses --      1.2473                 3.8631                 1.2776
 Frc consts  --      1.5328                 4.8830                 1.6837
 IR Inten    --      1.3604                 7.1864                30.1746

                     61                     62                     63
                      A                      A                      A
 Frequencies --   1515.4326              1519.4780              1520.5637
 Red. masses --      1.0470                 1.0670                 2.2439
 Frc consts  --      1.4166                 1.4515                 3.0567
 IR Inten    --      7.5681                 1.1141               113.4083

                     64                     65                     66
                      A                      A                      A
 Frequencies --   1532.1647              1532.7962              1552.0497
 Red. masses --      1.1535                 1.4227                 3.3671
 Frc consts  --      1.5954                 1.9693                 4.7788
 IR Inten    --     10.0063                59.0568               101.8480

                     67                     68                     69
                      A                      A                      A
 Frequencies --   1577.9743              1606.8554              1646.2193
 Red. masses --      2.9104                 2.1619                 6.7006
 Frc consts  --      4.2698                 3.2888                10.6989
 IR Inten    --    135.1443                78.2668                17.1039

                     70                     71                     72
                      A                      A                      A
 Frequencies --   1674.3929              1695.5867              1828.2564
 Red. masses --      5.8611                 2.9361                 9.3623
 Frc consts  --      9.6815                 4.9734                18.4376
 IR Inten    --     66.9651               473.6057               419.0614

                     73                     74                     75
                      A                      A                      A
 Frequencies --   3033.0955              3042.6142              3094.1726
 Red. masses --      1.0367                 1.0372                 1.1011
 Frc consts  --      5.6192                 5.6572                 6.2109
 IR Inten    --     64.9609                41.0976                21.1585

                     76                     77                     78
                      A                      A                      A
 Frequencies --   3103.9354              3122.9549              3157.8526
 Red. masses --      1.1020                 1.1010                 1.1023
 Frc consts  --      6.2554                 6.3264                 6.4762
 IR Inten    --     31.1891                18.3054                24.5293

                     79                     80                     81
                      A                      A                      A
 Frequencies --   3181.9638              3200.5942              3227.2360
 Red. masses --      1.0893                 1.0906                 1.0913
 Frc consts  --      6.4979                 6.5820                 6.6968
 IR Inten    --     20.3529                 5.6913                12.3827

                     82                     83                     84
                      A                      A                      A
 Frequencies --   3588.4884              3706.3430              3709.8288
 Red. masses --      1.0450                 1.0672                 1.1014
 Frc consts  --      7.9282                 8.6372                 8.9308
 IR Inten    --     93.6488               105.4906                44.5565

 - Thermochemistry -
 -------------------
 Temperature   298.150 Kelvin.  Pressure   1.00000 Atm.
 Atom     1 has atomic number  6 and mass  12.00000

 Molecular mass:   248.07971 amu.
 Principal axes and moments of inertia in atomic units:
                           1         2         3
     Eigenvalues --  2686.636715734.275717230.67628
           X            0.99985   0.01593  -0.00664
           Y           -0.01617   0.99920  -0.03653
           Z            0.00605   0.03663   0.99931
 This molecule is an asymmetric top.
 Rotational symmetry number  1.
 Warning -- assumption of classical behavior for rotation
           may cause significant error
 Rotational temperatures (Kelvin)      0.03224     0.01510     0.01198
 Rotational constants (GHZ):           0.67175     0.31473     0.24960
 Zero-point vibrational energy     607906.4 (Joules/Mol)
                                  145.29311 (Kcal/Mol)
 Warning -- explicit consideration of  26 degrees of freedom as
           vibrations may cause significant error
 Vibrational temperatures:     22.80    58.61    90.97   103.56   125.50
          (Kelvin)            148.21   208.73   244.29   268.07   302.76
                              331.64   346.03   388.82   447.45   494.26
                              509.53   520.85   539.90   556.69   620.50
                              677.17   698.21   719.72   798.15   811.48
                              835.66   893.23   963.87   982.68  1013.70
                             1037.80  1078.72  1083.26  1124.65  1136.60
                             1185.60  1228.58  1291.20  1320.75  1355.01
                             1459.28  1492.80  1528.21  1550.38  1550.73
                             1601.11  1679.66  1702.35  1713.63  1758.15
                             1786.28  1822.09  1878.04  1898.78  1953.28
                             1961.86  2007.11  2077.90  2107.39  2151.80
                             2180.37  2186.19  2187.75  2204.44  2205.35
                             2233.05  2270.35  2311.91  2368.54  2409.08
                             2439.57  2630.45  4363.95  4377.64  4451.82
                             4465.87  4493.24  4543.45  4578.14  4604.94
                             4643.27  5163.03  5332.60  5337.62

 Zero-point correction=                           0.231539 (Hartree/Particle)
 Thermal correction to Energy=                    0.248367
 Thermal correction to Enthalpy=                  0.249311
 Thermal correction to Gibbs Free Energy=         0.185747
 Sum of electronic and zero-point Energies=           -874.699405
 Sum of electronic and thermal Energies=              -874.682578
 Sum of electronic and thermal Enthalpies=            -874.681633
 Sum of electronic and thermal Free Energies=         -874.745198

                     E (Thermal)             CV                S
                      KCal/Mol        Cal/Mol-Kelvin    Cal/Mol-Kelvin
 Total                  155.852             62.870            133.782
 Electronic               0.000              0.000              0.000
 Translational            0.889              2.981             42.426
 Rotational               0.889              2.981             33.077
 Vibrational            154.075             56.909             58.279
 Vibration     1          0.593              1.986              7.096
 Vibration     2          0.594              1.981              5.223
 Vibration     3          0.597              1.972              4.354
 Vibration     4          0.598              1.967              4.098
 Vibration     5          0.601              1.958              3.721
 Vibration     6          0.605              1.947              3.396
 Vibration     7          0.616              1.908              2.736
 Vibration     8          0.625              1.880              2.438
 Vibration     9          0.632              1.859              2.264
 Vibration    10          0.643              1.825              2.040
 Vibration    11          0.652              1.794              1.875
 Vibration    12          0.658              1.778              1.799
 Vibration    13          0.674              1.728              1.595
 Vibration    14          0.700              1.653              1.357
 Vibration    15          0.722              1.588              1.196
 Vibration    16          0.730              1.567              1.148
 Vibration    17          0.736              1.551              1.113
 Vibration    18          0.746              1.523              1.058
 Vibration    19          0.755              1.498              1.012
 Vibration    20          0.792              1.402              0.855
 Vibration    21          0.828              1.315              0.736
 Vibration    22          0.841              1.283              0.696
 Vibration    23          0.856              1.250              0.658
 Vibration    24          0.910              1.129              0.534
 Vibration    25          0.920              1.109              0.516
 Vibration    26          0.938              1.073              0.484

                           ! Non-Optimized Parameters !
 Normal termination of Gaussian 16 at Fri Dec 11 21:42:29 2020.

 ----------------------------------------------------------------------
 # B3LYP/6-311++G(d,p) empiricaldispersion=gd3bj scf=xqc pop=npa geom=c
 heck
 ----------------------------------------------------------------------

 --------------------------------------
 CID_82383594_JID_8678_Energie_neutraal
 --------------------------------------
 Structure from the checkpoint file:  "JID_8678.chk"
 Charge =  0 Multiplicity = 1

 SCF Done:  E(RB3LYP) =  -875.184227277     A.U. after   16 cycles
 Normal termination of Gaussian 16 at Fri Dec 11 21:48:26 2020.

 ----------------------------------------------------------------------
 # B3LYP/6-311++G(d,p) empiricaldispersion=gd3bj scf=xqc pop=npa geom=c
 heck
 ----------------------------------------------------------------------

 ------------------------------------
 CID_82383594_JID_8678_Energie_kation
 ------------------------------------
 Structure from the checkpoint file:  "JID_8678.chk"
 Charge =  1 Multiplicity = 2

 SCF Done:  E(UB3LYP) =  -874.901496043     A.U. after   28 cycles
 Normal termination of Gaussian 16 at Fri Dec 11 22:03:26 2020.
 Gaussian 16:  ES64L-G16RevA.03 25-Dec-2016

 ----------------------------------------------------------------------
 # B3LYP/6-311++G(d,p) empiricaldispersion=gd3bj scf=xqc pop=npa geom=c
 heck
 ----------------------------------------------------------------------

 -----------------------------------
 CID_82383594_JID_8678_Energie_anion
 -----------------------------------
 Structure from the checkpoint file:  "JID_8678.chk"
 Charge = -1 Multiplicity = 2

                         Standard orientation:
 ---------------------------------------------------------------------
 Center     Atomic      Atomic             Coordinates (Angstroms)
 Number     Number       Type             X           Y           Z
 ---------------------------------------------------------------------
      1          6           0       -4.222621   -1.934076    0.929644
      2          6           0       -3.203762   -0.944197    0.419459
      3          6           0       -1.869790   -1.324459    0.230532
      4          6           0       -0.908184   -0.427029   -0.233249
      5          6           0       -1.288544    0.889260   -0.560739
      6          6           0       -2.608968    1.289851   -0.357854
      7          6           0       -3.547287    0.376738    0.128719
      8          8           0       -0.320702    1.679488   -1.100381
      9          6           0       -0.518247    3.083765   -1.062042
     10          6           0        0.493048   -0.861999   -0.372197
     11          7           0        0.751808   -1.971367   -1.023201
     12          8           0        2.178604   -2.138009   -0.929842
     13          6           0        2.689877   -1.119489   -0.236749
     14          6           0        1.680563   -0.252166    0.161280
     15          6           0        1.817539    0.927563    0.985894
     16          8           0        0.937757    1.618610    1.459309
     17          8           0        3.146405    1.222894    1.224593
     18          7           0        4.019226   -1.130138   -0.003122
     19          1           0       -4.361636   -2.764872    0.226687
     20          1           0       -3.914365   -2.371089    1.887202
     21          1           0       -5.197162   -1.458566    1.078514
     22          1           0       -1.554072   -2.336492    0.466710
     23          1           0       -2.917949    2.302626   -0.588021
     24          1           0       -4.572299    0.707169    0.278581
     25          1           0       -1.319524    3.398508   -1.743375
     26          1           0       -0.743263    3.416653   -0.042737
     27          1           0        0.423188    3.526596   -1.391980
     28          1           0        3.130938    2.003082    1.808000
     29          1           0        4.595939   -1.726679   -0.578324
     30          1           0        4.414720   -0.272831    0.357386
 ---------------------------------------------------------------------

 SCF Done:  E(UB3LYP) =  -875.177306203     A.U. after   33 cycles
 SCF Done:  E(UB3LYP) =  -875.177306203     a.u. after    1 cycles

 The electronic state is 2-A.
 Alpha  occ. eigenvalues --  -19.09766 -19.05582 -19.05098 -18.99593 -14.24344
 Alpha  occ. eigenvalues --  -14.23716 -10.19411 -10.18439 -10.13244 -10.12591
 Alpha  occ. eigenvalues --  -10.11118 -10.08231 -10.07884 -10.07864 -10.07427
 Alpha  occ. eigenvalues --  -10.07191 -10.07089 -10.06928  -1.03448  -0.99212
 Alpha  occ. eigenvalues --   -0.96941  -0.90324  -0.83949  -0.77944  -0.75065
 Alpha  occ. eigenvalues --   -0.68516  -0.67940  -0.65386  -0.62320  -0.57533
 Alpha  occ. eigenvalues --   -0.56417  -0.53544  -0.50267  -0.49133  -0.47320
 Alpha  occ. eigenvalues --   -0.44245  -0.43347  -0.41379  -0.39719  -0.38473
 Alpha  occ. eigenvalues --   -0.37842  -0.37417  -0.36675  -0.35452  -0.34400
 Alpha  occ. eigenvalues --   -0.33485  -0.33357  -0.33143  -0.32689  -0.30557
 Alpha  occ. eigenvalues --   -0.29710  -0.28997  -0.27609  -0.26957  -0.25950
 Alpha  occ. eigenvalues --   -0.24233  -0.23400  -0.22080  -0.20995  -0.20703
 Alpha  occ. eigenvalues --   -0.19875  -0.17419  -0.15226  -0.12588  -0.12034
 Alpha  occ. eigenvalues --    0.04287
 Alpha virt. eigenvalues --    0.06137   0.06455   0.06882   0.07584   0.08477
 Alpha virt. eigenvalues --    0.08677   0.08982   0.09984   0.10894   0.10916
 Alpha virt. eigenvalues --    0.11150   0.11791   0.12229   0.12794   0.13203

  Beta  occ. eigenvalues --  -19.09760 -19.05521 -19.05094 -18.99547 -14.24248
  Beta  occ. eigenvalues --  -14.23635 -10.19364 -10.18435 -10.13232 -10.12581
  Beta  occ. eigenvalues --  -10.11072 -10.08229 -10.07912 -10.07804 -10.07413
  Beta  occ. eigenvalues --  -10.07104 -10.07050 -10.06851  -1.03403  -0.99113
  Beta  occ. eigenvalues --   -0.96926  -0.90227  -0.83840  -0.77814  -0.74962
  Beta  occ. eigenvalues --   -0.68411  -0.67892  -0.65227  -0.62282  -0.57452
  Beta  occ. eigenvalues --   -0.56284  -0.53358  -0.50184  -0.49023  -0.47257
  Beta  occ. eigenvalues --   -0.44181  -0.43268  -0.41289  -0.39655  -0.38389
  Beta  occ. eigenvalues --   -0.37773  -0.37334  -0.36611  -0.35413  -0.34332
  Beta  occ. eigenvalues --   -0.33408  -0.33281  -0.33096  -0.32580  -0.30491
  Beta  occ. eigenvalues --   -0.29677  -0.28935  -0.27469  -0.26886  -0.25903
  Beta  occ. eigenvalues --   -0.24068  -0.23314  -0.21929  -0.20831  -0.20562
  Beta  occ. eigenvalues --   -0.19664  -0.17336  -0.14764  -0.12376  -0.11776
  Beta virt. eigenvalues --    0.06287   0.06889   0.07345   0.07705   0.08537
  Beta virt. eigenvalues --    0.08860   0.08983   0.09192   0.10050   0.10977
  Beta virt. eigenvalues --    0.11062   0.11162   0.12406   0.12552   0.12820

 Mulliken charges and spin densities:
               1          2
     1  C   -0.521288   0.021942
     2  C    0.225025   0.070100
     3  C   -0.126467   0.078204
     4  C    1.439944   0.032256
     5  C   -0.629959   0.205911
     6  C   -0.167473   0.127563
     7  C   -0.550782  -0.399110
     8  O   -0.054409   0.008697
     9  C   -0.124700  -0.171469
    10  C    0.006233   0.080255
    11  N   -0.489032   0.034443
    12  O    0.172488  -0.021958
    13  C   -0.691882   0.777005
    14  C    1.125604  -1.446206
    15  C    0.426077  -0.802044
    16  O   -0.317343   0.013977
    17  O   -0.259169   0.049034
    18  N   -0.277607  -0.045766
    19  H    0.143248   0.006628
    20  H    0.146077   0.002227
    21  H    0.126277   0.005503
    22  H    0.194545  -0.008148
    23  H    0.054035   0.076356
    24  H    0.065135   0.028416
    25  H   -0.002346   0.130318
    26  H    0.190029  -0.022029
    27  H   -0.062518   0.225703
    28  H   -0.261186   0.559386
    29  H   -0.598908   0.897052
    30  H   -0.179648   0.485752
 Sum of Mulliken charges =  -1.00000   1.00000

 Dipole moment (field-independent basis, Debye):
    X=             -9.4469    Y=              0.8841    Z=             -0.0451  Tot=              9.4883
 Quadrupole moment (field-independent basis, Debye-Ang):
   XX=           -181.5372   YY=           -133.9348   ZZ=           -129.9753
   XY=              4.3909   XZ=             -2.9879   YZ=            -10.4172

 Summary of Natural Population Analysis:

                                       Natural Population
                Natural  -----------------------------------------------
    Atom  No    Charge         Core      Valence    Rydberg      Total
 -----------------------------------------------------------------------
      C    1   -0.28816      0.99964     2.28407    0.00444     3.28816
      C    2   -0.04220      0.99952     2.03480    0.00789     3.04220
      C    3   -0.06248      0.99949     2.05547    0.00752     3.06248
      C    4   -0.04199      0.99944     2.03301    0.00954     3.04199
      C    5    0.18254      0.99935     1.80518    0.01293     2.81746
      C    6   -0.13964      0.99953     2.13172    0.00840     3.13964
      C    7   -0.07403      0.99953     2.06523    0.00927     3.07403
      O    8   -0.27025      0.99985     3.26108    0.00932     4.27025
      C    9   -0.09952      0.99960     2.09169    0.00822     3.09952
      C   10    0.11497      0.99955     1.86881    0.01667     2.88503
      N   11   -0.07988      0.99967     2.56906    0.01114     3.57988
      O   12   -0.18374      0.99985     3.17596    0.00794     4.18374
      C   13    0.29759      0.99950     1.68526    0.01765     2.70241
      C   14   -0.16875      0.99936     2.15805    0.01134     3.16875
      C   15    0.40156      0.99963     1.57521    0.02360     2.59844
      O   16   -0.31158      0.99987     3.30596    0.00575     4.31158
      O   17   -0.36339      0.99988     3.35620    0.00731     4.36339
      N   18   -0.38495      0.99969     2.87643    0.00883     3.88495
      H   19    0.09966      0.00000     0.39934    0.00100     0.40034
      H   20    0.09986      0.00000     0.39915    0.00099     0.40014
      H   21    0.09729      0.00000     0.40188    0.00083     0.40271
      H   22    0.10182      0.00000     0.39711    0.00107     0.39818
      H   23    0.10123      0.00000     0.39752    0.00124     0.39877
      H   24    0.09261      0.00000     0.40632    0.00108     0.40739
      H   25    0.07753      0.00000     0.42070    0.00177     0.42247
      H   26    0.09066      0.00000     0.40788    0.00146     0.40934
      H   27    0.09336      0.00000     0.40558    0.00106     0.40664
      H   28    0.24397      0.00000     0.24743    0.00860     0.25603
      H   29    0.20144      0.00000     0.29022    0.00834     0.29856
      H   30    0.21445      0.00000     0.27785    0.00770     0.28555
 =======================================================================
   * Total *   -0.00000     17.99295    46.78418    0.22287    65.00000

 Normal termination of Gaussian 16 at Fri Dec 11 22:21:30 2020.
