 Gaussian 16, Revision A.03,

 -----------------------------------------------------------
 # opt freq B3LYP/6-31G(d) empiricaldispersion=gd3bj scf=xqc
 -----------------------------------------------------------

 -------------------------------
 CID_104461544_JID_6893_neutraal
 -------------------------------
 Symbolic Z-matrix:
 Charge =  0 Multiplicity = 1

 SCF Done:  E(RB3LYP) =  -690.997185320     A.U. after   15 cycles
 SCF Done:  E(RB3LYP) =  -691.002448287     A.U. after   12 cycles
 SCF Done:  E(RB3LYP) =  -691.002076782     A.U. after   14 cycles
 SCF Done:  E(RB3LYP) =  -691.003109249     A.U. after   11 cycles
 SCF Done:  E(RB3LYP) =  -691.003168401     A.U. after   11 cycles
 SCF Done:  E(RB3LYP) =  -691.003296587     A.U. after   11 cycles
 SCF Done:  E(RB3LYP) =  -691.003351136     A.U. after   11 cycles
 SCF Done:  E(RB3LYP) =  -691.003381553     A.U. after   11 cycles
 SCF Done:  E(RB3LYP) =  -691.003399984     A.U. after   10 cycles
 SCF Done:  E(RB3LYP) =  -691.003406170     A.U. after    9 cycles
 SCF Done:  E(RB3LYP) =  -691.003409408     A.U. after    8 cycles
 SCF Done:  E(RB3LYP) =  -691.003410023     A.U. after    9 cycles
 SCF Done:  E(RB3LYP) =  -691.003410331     A.U. after    8 cycles
 SCF Done:  E(RB3LYP) =  -691.003410374     A.U. after    6 cycles
 Optimization completed.
    -- Stationary point found.
 Normal termination of Gaussian 16 at Sun Dec 13 16:06:26 2020.

 --------------------------------------------------------------------
 #N Geom=AllCheck Guess=TCheck SCRF=Check GenChk RB3LYP/6-31G(d) Freq
 --------------------------------------------------------------------

 Structure from the checkpoint file:  "JID_6893.chk"
 -------------------------------
 CID_104461544_JID_6893_neutraal
 -------------------------------
 Charge =  0 Multiplicity = 1

 SCF Done:  E(RB3LYP) =  -691.003410374     A.U. after    1 cycles

  Exact polarizability: 217.685  -4.067 156.765   7.248  -3.160  95.569
 Approx polarizability: 279.909  -6.514 248.087   9.761  -0.784 147.058

 ******    1 imaginary frequencies (negative Signs) ******

                      1                      2                      3
                      A                      A                      A
 Frequencies --    -10.3626                22.3901                26.3677
 Red. masses --      1.0141                 4.1534                 4.3020
 Frc consts  --      0.0001                 0.0012                 0.0018
 IR Inten    --      0.1787                 0.0074                 0.1889

                      4                      5                      6
                      A                      A                      A
 Frequencies --     39.0994                42.9644                71.2411
 Red. masses --      1.0210                 3.3922                 3.4970
 Frc consts  --      0.0009                 0.0037                 0.0105
 IR Inten    --      0.4812                 2.0792                 1.4610

                      7                      8                      9
                      A                      A                      A
 Frequencies --     92.3073               132.6369               152.6945
 Red. masses --      4.7002                 2.8866                 4.1023
 Frc consts  --      0.0236                 0.0299                 0.0564
 IR Inten    --      1.0375                 1.8787                 0.4847

                     10                     11                     12
                      A                      A                      A
 Frequencies --    171.1738               190.1970               204.2419
 Red. masses --      3.4698                 2.6636                 3.0518
 Frc consts  --      0.0599                 0.0568                 0.0750
 IR Inten    --      5.1548                12.8124                 7.1713

                     13                     14                     15
                      A                      A                      A
 Frequencies --    228.9501               257.0403               284.6125
 Red. masses --      3.0157                 2.6913                 2.9814
 Frc consts  --      0.0931                 0.1048                 0.1423
 IR Inten    --      0.5088                 0.2378                 4.4841

                     16                     17                     18
                      A                      A                      A
 Frequencies --    304.8346               345.8630               393.3977
 Red. masses --      1.1602                 6.0078                 4.8216
 Frc consts  --      0.0635                 0.4234                 0.4396
 IR Inten    --     48.0032                 4.8536                 3.0854

                     19                     20                     21
                      A                      A                      A
 Frequencies --    411.7285               455.9082               467.9049
 Red. masses --      2.9142                 2.7037                 3.5429
 Frc consts  --      0.2911                 0.3311                 0.4570
 IR Inten    --      0.8886                19.9902                 5.2175

                     22                     23                     24
                      A                      A                      A
 Frequencies --    513.3536               519.9844               533.5063
 Red. masses --      3.8745                 2.6701                 3.4066
 Frc consts  --      0.6016                 0.4254                 0.5713
 IR Inten    --      2.3342                 2.8283                 2.2631

                     25                     26                     27
                      A                      A                      A
 Frequencies --    552.1819               599.6276               632.3713
 Red. masses --      4.3478                 2.6368                 3.0048
 Frc consts  --      0.7811                 0.5586                 0.7080
 IR Inten    --      6.1569                32.3542                32.9857

                     28                     29                     30
                      A                      A                      A
 Frequencies --    680.0157               720.0974               775.7352
 Red. masses --      2.3668                 2.1328                 3.9522
 Frc consts  --      0.6448                 0.6516                 1.4012
 IR Inten    --     28.7588                16.2739                38.7154

                     31                     32                     33
                      A                      A                      A
 Frequencies --    821.3510               878.5482               881.1244
 Red. masses --      1.6637                 1.3878                 1.7033
 Frc consts  --      0.6613                 0.6311                 0.7791
 IR Inten    --     26.4379               125.7679                33.2216

                     34                     35                     36
                      A                      A                      A
 Frequencies --    889.5500               912.1182               922.4033
 Red. masses --      2.0644                 1.4049                 1.7770
 Frc consts  --      0.9625                 0.6887                 0.8908
 IR Inten    --      5.4528                12.0247                 7.4459

                     37                     38                     39
                      A                      A                      A
 Frequencies --    932.7362               971.3760               981.0712
 Red. masses --      1.4312                 3.0146                 1.8122
 Frc consts  --      0.7336                 1.6759                 1.0277
 IR Inten    --      3.2877                 6.3808                 4.9889

                     40                     41                     42
                      A                      A                      A
 Frequencies --   1014.2461              1022.1788              1030.1194
 Red. masses --      1.1301                 5.0820                 1.5652
 Frc consts  --      0.6850                 3.1285                 0.9786
 IR Inten    --     25.4722                 1.9813                 2.6831

                     43                     44                     45
                      A                      A                      A
 Frequencies --   1036.4879              1049.4023              1075.5067
 Red. masses --      3.4493                 1.5013                 1.5070
 Frc consts  --      2.1833                 0.9741                 1.0270
 IR Inten    --      6.0794                 0.6384                 6.3772

                     46                     47                     48
                      A                      A                      A
 Frequencies --   1076.5565              1091.2621              1129.3358
 Red. masses --      1.5354                 2.9932                 2.6924
 Frc consts  --      1.0484                 2.1001                 2.0232
 IR Inten    --      8.9774                11.4860                 9.8203

                     49                     50                     51
                      A                      A                      A
 Frequencies --   1161.5878              1174.9162              1185.3692
 Red. masses --      1.9765                 1.5875                 1.3253
 Frc consts  --      1.5712                 1.2911                 1.0971
 IR Inten    --     18.8920                12.1291                 2.7631

                     52                     53                     54
                      A                      A                      A
 Frequencies --   1203.7117              1251.2420              1294.2315
 Red. masses --      1.4429                 1.3866                 2.2035
 Frc consts  --      1.2318                 1.2790                 2.1747
 IR Inten    --      0.8407                86.9574                34.9272

                     55                     56                     57
                      A                      A                      A
 Frequencies --   1309.3803              1322.7816              1333.7737
 Red. masses --      1.4874                 1.4493                 1.3188
 Frc consts  --      1.5025                 1.4941                 1.3822
 IR Inten    --      3.5491                 0.5558                 2.9543

                     58                     59                     60
                      A                      A                      A
 Frequencies --   1350.2038              1364.4940              1383.6867
 Red. masses --      1.1995                 3.8557                 2.0104
 Frc consts  --      1.2884                 4.2296                 2.2678
 IR Inten    --     13.6176                 1.9701               250.2974

                     61                     62                     63
                      A                      A                      A
 Frequencies --   1415.0991              1441.4680              1441.6493
 Red. masses --      1.6933                 1.2799                 1.3823
 Frc consts  --      1.9978                 1.5669                 1.6927
 IR Inten    --     99.6887                 6.3673                16.7287

                     64                     65                     66
                      A                      A                      A
 Frequencies --   1444.8333              1478.9537              1481.8311
 Red. masses --      1.3324                 2.1708                 2.0666
 Frc consts  --      1.6388                 2.7976                 2.6736
 IR Inten    --      1.7390                 4.2504                10.2565

                     67                     68                     69
                      A                      A                      A
 Frequencies --   1492.4876              1517.8256              1518.0433
 Red. masses --      1.9412                 1.0838                 1.0479
 Frc consts  --      2.5477                 1.4711                 1.4228
 IR Inten    --     79.6249                15.1864                 1.9688

                     70                     71                     72
                      A                      A                      A
 Frequencies --   1518.3804              1528.1587              1529.9982
 Red. masses --      1.0521                 1.1879                 1.0884
 Frc consts  --      1.4291                 1.6344                 1.5012
 IR Inten    --      7.0051                13.9551                 0.3876

                     73                     74                     75
                      A                      A                      A
 Frequencies --   1536.4734              1658.9003              1662.3319
 Red. masses --      1.3297                 5.4734                 5.6620
 Frc consts  --      1.8494                 8.8746                 9.2184
 IR Inten    --      4.6169                12.0945                22.4528

                     76                     77                     78
                      A                      A                      A
 Frequencies --   1694.0408              1758.7749              1767.3953
 Red. masses --      1.0939                 6.5696                 7.3784
 Frc consts  --      1.8496                11.9732                13.5793
 IR Inten    --     27.1447                87.8574               246.7747

                     79                     80                     81
                      A                      A                      A
 Frequencies --   2962.6180              3035.7406              3042.1470
 Red. masses --      1.0715                 1.0709                 1.0890
 Frc consts  --      5.5412                 5.8148                 5.9378
 IR Inten    --     67.8167                36.8570                36.4302

                     82                     83                     84
                      A                      A                      A
 Frequencies --   3043.2857              3044.8886              3100.6417
 Red. masses --      1.0398                 1.0397                 1.0965
 Frc consts  --      5.6737                 5.6794                 6.2110
 IR Inten    --     32.0482                28.3084                15.1292

                     85                     86                     87
                      A                      A                      A
 Frequencies --   3101.2448              3119.4978              3125.9304
 Red. masses --      1.0972                 1.0913                 1.1028
 Frc consts  --      6.2177                 6.2570                 6.3491
 IR Inten    --     24.5172                 5.9832                16.5060

                     88                     89                     90
                      A                      A                      A
 Frequencies --   3130.0276              3147.2855              3156.3359
 Red. masses --      1.1022                 1.0908                 1.0877
 Frc consts  --      6.3622                 6.3659                 6.3846
 IR Inten    --     15.2612                13.3681                24.1999

                     91                     92                     93
                      A                      A                      A
 Frequencies --   3168.3173              3194.6820              3209.8311
 Red. masses --      1.0898                 1.0896                 1.0905
 Frc consts  --      6.4456                 6.5518                 6.6199
 IR Inten    --     21.7784                11.2318                 3.5338

                     94                     95                     96
                      A                      A                      A
 Frequencies --   3465.9625              3554.1187              3577.2979
 Red. masses --      1.0495                 1.0929                 1.0753
 Frc consts  --      7.4282                 8.1339                 8.1075
 IR Inten    --      5.2163                 0.9114                20.3408

 - Thermochemistry -
 -------------------
 Temperature   298.150 Kelvin.  Pressure   1.00000 Atm.
 Atom     1 has atomic number  6 and mass  12.00000

 Molecular mass:   218.14191 amu.
 Principal axes and moments of inertia in atomic units:
                           1         2         3
     Eigenvalues --  1979.267778148.421229593.77809
           X            0.99999  -0.00020   0.00536
           Y            0.00035   0.99964  -0.02693
           Z           -0.00535   0.02693   0.99962
 This molecule is an asymmetric top.
 Rotational symmetry number  1.
 Warning -- assumption of classical behavior for rotation
           may cause significant error
 Rotational temperatures (Kelvin)      0.04376     0.01063     0.00903
 Rotational constants (GHZ):           0.91182     0.22148     0.18812
    1 imaginary frequencies ignored.
 Zero-point vibrational energy     765249.2 (Joules/Mol)
                                  182.89895 (Kcal/Mol)
 Warning -- explicit consideration of  25 degrees of freedom as
           vibrations may cause significant error
 Vibrational temperatures:     32.21    37.94    56.26    61.82   102.50
          (Kelvin)            132.81   190.83   219.69   246.28   273.65
                              293.86   329.41   369.82   409.49   438.59
                              497.62   566.01   592.39   655.95   673.21
                              738.60   748.14   767.60   794.47   862.73
                              909.84   978.39  1036.06  1116.11  1181.74
                             1264.03  1267.74  1279.86  1312.33  1327.13
                             1342.00  1397.59  1411.54  1459.27  1470.69
                             1482.11  1491.27  1509.86  1547.41  1548.92
                             1570.08  1624.86  1671.27  1690.44  1705.48
                             1731.87  1800.26  1862.11  1883.91  1903.19
                             1919.00  1942.64  1963.20  1990.82  2036.01
                             2073.95  2074.21  2078.79  2127.88  2132.02
                             2147.36  2183.81  2184.13  2184.61  2198.68
                             2201.33  2210.64  2386.79  2391.72  2437.35
                             2530.48  2542.89  4262.55  4367.75  4376.97
                             4378.61  4380.92  4461.13  4462.00  4488.26
                             4497.52  4503.41  4528.24  4541.26  4558.50
                             4596.43  4618.23  4986.75  5113.58  5146.93

 Zero-point correction=                           0.291468 (Hartree/Particle)
 Thermal correction to Energy=                    0.308115
 Thermal correction to Enthalpy=                  0.309059
 Thermal correction to Gibbs Free Energy=         0.244456
 Sum of electronic and zero-point Energies=           -690.711942
 Sum of electronic and thermal Energies=              -690.695295
 Sum of electronic and thermal Enthalpies=            -690.694351
 Sum of electronic and thermal Free Energies=         -690.758955

                     E (Thermal)             CV                S
                      KCal/Mol        Cal/Mol-Kelvin    Cal/Mol-Kelvin
 Total                  193.345             60.829            135.969
 Electronic               0.000              0.000              0.000
 Translational            0.889              2.981             42.043
 Rotational               0.889              2.981             33.403
 Vibrational            191.568             54.868             60.523
 Vibration     1          0.593              1.985              6.410
 Vibration     2          0.593              1.985              6.085
 Vibration     3          0.594              1.981              5.304
 Vibration     4          0.595              1.980              5.117
 Vibration     5          0.598              1.968              4.119
 Vibration     6          0.602              1.955              3.611
 Vibration     7          0.613              1.921              2.907
 Vibration     8          0.619              1.900              2.638
 Vibration     9          0.626              1.878              2.423
 Vibration    10          0.634              1.853              2.226
 Vibration    11          0.640              1.834              2.095
 Vibration    12          0.652              1.797              1.887
 Vibration    13          0.667              1.751              1.682
 Vibration    14          0.683              1.702              1.506
 Vibration    15          0.696              1.665              1.390
 Vibration    16          0.724              1.584              1.185
 Vibration    17          0.761              1.484              0.987
 Vibration    18          0.776              1.445              0.921
 Vibration    19          0.814              1.348              0.778
 Vibration    20          0.825              1.321              0.743
 Vibration    21          0.868              1.220              0.626
 Vibration    22          0.875              1.206              0.610
 Vibration    23          0.888              1.176              0.579
 Vibration    24          0.908              1.135              0.540
 Vibration    25          0.958              1.033              0.450

                           ! Non-Optimized Parameters !
 Normal termination of Gaussian 16 at Sun Dec 13 16:16:23 2020.

 ----------------------------------------------------------------------
 # B3LYP/6-311++G(d,p) empiricaldispersion=gd3bj scf=xqc pop=npa geom=c
 heck
 ----------------------------------------------------------------------

 ---------------------------------------
 CID_104461544_JID_6893_Energie_neutraal
 ---------------------------------------
 Structure from the checkpoint file:  "JID_6893.chk"
 Charge =  0 Multiplicity = 1

 SCF Done:  E(RB3LYP) =  -691.205151815     A.U. after   16 cycles
 Normal termination of Gaussian 16 at Sun Dec 13 16:21:50 2020.

 ----------------------------------------------------------------------
 # B3LYP/6-311++G(d,p) empiricaldispersion=gd3bj scf=xqc pop=npa geom=c
 heck
 ----------------------------------------------------------------------

 -------------------------------------
 CID_104461544_JID_6893_Energie_kation
 -------------------------------------
 Structure from the checkpoint file:  "JID_6893.chk"
 Charge =  1 Multiplicity = 2

 SCF Done:  E(UB3LYP) =  -690.904013832     A.U. after   33 cycles
 SCF Done:  E(UB3LYP) =  -690.904013833     a.u. after    1 cycles
 Normal termination of Gaussian 16 at Sun Dec 13 16:37:47 2020.
 Gaussian 16:  ES64L-G16RevA.03 25-Dec-2016

 ----------------------------------------------------------------------
 # B3LYP/6-311++G(d,p) empiricaldispersion=gd3bj scf=xqc pop=npa geom=c
 heck
 ----------------------------------------------------------------------

 ------------------------------------
 CID_104461544_JID_6893_Energie_anion
 ------------------------------------
 Structure from the checkpoint file:  "JID_6893.chk"
 Charge = -1 Multiplicity = 2

                         Standard orientation:
 ---------------------------------------------------------------------
 Center     Atomic      Atomic             Coordinates (Angstroms)
 Number     Number       Type             X           Y           Z
 ---------------------------------------------------------------------
      1          6           0        1.681057    3.126574   -0.648400
      2          6           0        2.006216    1.687186   -0.329504
      3          6           0        3.272740    1.325375    0.139268
      4          6           0        3.615356   -0.009194    0.390186
      5          6           0        2.651278   -0.995326    0.175290
      6          6           0        1.366239   -0.657341   -0.259800
      7          6           0        1.053859    0.681028   -0.519239
      8          6           0        0.399082   -1.776219   -0.512243
      9          8           0        0.771242   -2.834133   -1.010584
     10          7           0       -0.928161   -1.565073   -0.214151
     11          6           0       -1.493931   -0.671933    0.797318
     12          6           0       -2.615451    0.159851    0.241224
     13          6           0       -3.854296    0.180395    0.735661
     14          6           0       -4.979146    1.012986    0.191592
     15          7           0       -6.135603    0.156230   -0.103205
     16          6           0        5.005421   -0.371452    0.854235
     17          1           0        2.227378    3.814228    0.005598
     18          1           0        1.954204    3.374250   -1.682490
     19          1           0        0.610857    3.329292   -0.536612
     20          1           0        4.015823    2.102877    0.307420
     21          1           0        2.884725   -2.042408    0.341395
     22          1           0        0.068960    0.942817   -0.895275
     23          1           0       -1.496563   -2.369021   -0.456754
     24          1           0       -1.854790   -1.258953    1.653055
     25          1           0       -0.685469   -0.036075    1.166976
     26          1           0       -2.368536    0.768559   -0.629686
     27          1           0       -4.112414   -0.451714    1.585985
     28          1           0       -5.299621    1.732822    0.958004
     29          1           0       -4.613190    1.605932   -0.665664
     30          1           0       -6.920900    0.728433   -0.408817
     31          1           0       -5.906345   -0.459587   -0.881916
     32          1           0        5.701961   -0.424763    0.007466
     33          1           0        5.401112    0.373258    1.553394
     34          1           0        5.018685   -1.346553    1.350564
 ---------------------------------------------------------------------

 SCF Done:  E(UB3LYP) =  -691.201274824     A.U. after   33 cycles
 SCF Done:  E(UB3LYP) =  -691.201274824     a.u. after    1 cycles

 The electronic state is 2-A.
 Alpha  occ. eigenvalues --  -18.96113 -14.21765 -14.19261 -10.14331 -10.10693
 Alpha  occ. eigenvalues --  -10.09585 -10.07267 -10.07127 -10.06985 -10.06913
 Alpha  occ. eigenvalues --  -10.06797 -10.06780 -10.05417 -10.05327 -10.05091
 Alpha  occ. eigenvalues --  -10.04845  -0.91413  -0.80634  -0.78357  -0.74805
 Alpha  occ. eigenvalues --   -0.68820  -0.67641  -0.65721  -0.60859  -0.59127
 Alpha  occ. eigenvalues --   -0.57588  -0.53618  -0.52123  -0.46909  -0.45714
 Alpha  occ. eigenvalues --   -0.44824  -0.40231  -0.39303  -0.37726  -0.37305
 Alpha  occ. eigenvalues --   -0.36864  -0.35791  -0.32752  -0.32596  -0.32168
 Alpha  occ. eigenvalues --   -0.31883  -0.31591  -0.30098  -0.29810  -0.29262
 Alpha  occ. eigenvalues --   -0.29029  -0.28472  -0.27179  -0.26949  -0.24800
 Alpha  occ. eigenvalues --   -0.23603  -0.23271  -0.22983  -0.16738  -0.15109
 Alpha  occ. eigenvalues --   -0.14719  -0.13908  -0.13466  -0.12726   0.04273
 Alpha virt. eigenvalues --    0.05730   0.06827   0.07756   0.08720   0.08831
 Alpha virt. eigenvalues --    0.09183   0.09473   0.09805   0.10152   0.10486
 Alpha virt. eigenvalues --    0.11214   0.11395   0.11762   0.12105   0.12368

  Beta  occ. eigenvalues --  -18.95959 -14.21745 -14.19203 -10.14215 -10.10696
  Beta  occ. eigenvalues --  -10.09570 -10.07269 -10.07123 -10.07005 -10.06866
  Beta  occ. eigenvalues --  -10.06789 -10.06739 -10.05276 -10.05223 -10.05031
  Beta  occ. eigenvalues --  -10.04635  -0.91140  -0.80517  -0.78256  -0.74587
  Beta  occ. eigenvalues --   -0.68703  -0.67543  -0.65451  -0.60763  -0.58948
  Beta  occ. eigenvalues --   -0.57445  -0.53498  -0.51750  -0.46839  -0.45610
  Beta  occ. eigenvalues --   -0.44666  -0.40157  -0.39196  -0.37659  -0.37178
  Beta  occ. eigenvalues --   -0.36738  -0.35615  -0.32631  -0.32491  -0.32083
  Beta  occ. eigenvalues --   -0.31852  -0.31507  -0.30015  -0.29718  -0.29136
  Beta  occ. eigenvalues --   -0.28934  -0.28124  -0.27105  -0.26746  -0.24626
  Beta  occ. eigenvalues --   -0.23451  -0.22985  -0.22683  -0.16405  -0.14789
  Beta  occ. eigenvalues --   -0.14621  -0.13405  -0.12762  -0.12076
  Beta virt. eigenvalues --    0.06683   0.07016   0.07749   0.07950   0.08777
  Beta virt. eigenvalues --    0.09008   0.09208   0.09592   0.10008   0.10389
  Beta virt. eigenvalues --    0.10861   0.11237   0.11449   0.11833   0.12164

 Mulliken charges and spin densities:
               1          2
     1  C   -0.441414  -0.083410
     2  C    0.589542   0.021911
     3  C   -1.015779   0.213918
     4  C    0.833993  -0.000531
     5  C   -0.733423  -0.007617
     6  C    0.130809   0.156340
     7  C   -0.048162   0.103693
     8  C   -0.249074   0.017377
     9  O   -0.377525   0.053244
    10  N   -0.084363   0.015611
    11  C   -0.866863   0.008972
    12  C    0.344427   0.248481
    13  C   -0.501503   0.252376
    14  C    0.735578  -1.375982
    15  N   -0.371602   0.037356
    16  C   -0.386493   0.000970
    17  H    0.138206  -0.007867
    18  H    0.122820   0.030468
    19  H    0.083856   0.048347
    20  H    0.090945  -0.012687
    21  H    0.179216  -0.003523
    22  H    0.105382   0.002136
    23  H    0.291578  -0.001269
    24  H    0.156182   0.003467
    25  H    0.172264  -0.000885
    26  H    0.223366  -0.105187
    27  H    0.118797   0.001181
    28  H   -0.158825   0.305827
    29  H   -0.215222   0.353082
    30  H   -0.329352   0.571966
    31  H    0.066864   0.133366
    32  H    0.142620   0.010572
    33  H    0.118971   0.008621
    34  H    0.134183  -0.000324
 Sum of Mulliken charges =  -1.00000   1.00000

 Dipole moment (field-independent basis, Debye):
    X=              7.8462    Y=              1.1305    Z=              2.3300  Tot=              8.2625
 Quadrupole moment (field-independent basis, Debye-Ang):
   XX=           -215.7640   YY=           -129.1818   ZZ=           -113.6039
   XY=             15.7008   XZ=              0.8436   YZ=             -5.5470

 Summary of Natural Population Analysis:

                                       Natural Population
                Natural  -----------------------------------------------
    Atom  No    Charge         Core      Valence    Rydberg      Total
 -----------------------------------------------------------------------
      C    1   -0.28910      0.99964     2.28459    0.00487     3.28910
      C    2   -0.02380      0.99952     2.01646    0.00782     3.02380
      C    3   -0.06531      0.99947     2.05752    0.00831     3.06531
      C    4   -0.02044      0.99952     2.01311    0.00781     3.02044
      C    5   -0.07712      0.99949     2.06950    0.00813     3.07712
      C    6   -0.03484      0.99946     2.02559    0.00979     3.03484
      C    7   -0.08608      0.99949     2.07919    0.00740     3.08608
      C    8    0.35436      0.99962     1.62437    0.02165     2.64564
      O    9   -0.31512      0.99988     3.30899    0.00625     4.31512
      N   10   -0.32037      0.99967     2.81097    0.00974     3.82037
      C   11   -0.10367      0.99960     2.09488    0.00919     3.10367
      C   12   -0.08987      0.99950     2.07985    0.01052     3.08987
      C   13   -0.08776      0.99951     2.07754    0.01070     3.08776
      C   14   -0.10522      0.99962     2.09241    0.01320     3.10522
      N   15   -0.42121      0.99977     2.91013    0.01130     3.92121
      C   16   -0.28917      0.99964     2.28495    0.00458     3.28917
      H   17    0.09744      0.00000     0.40165    0.00091     0.40256
      H   18    0.09935      0.00000     0.39932    0.00133     0.40065
      H   19    0.10055      0.00000     0.39838    0.00107     0.39945
      H   20    0.08799      0.00000     0.41082    0.00119     0.41201
      H   21    0.10184      0.00000     0.39705    0.00112     0.39816
      H   22    0.09673      0.00000     0.40183    0.00143     0.40327
      H   23    0.18793      0.00000     0.31044    0.00163     0.31207
      H   24    0.08766      0.00000     0.41086    0.00148     0.41234
      H   25    0.11213      0.00000     0.38674    0.00114     0.38787
      H   26    0.09145      0.00000     0.40710    0.00145     0.40855
      H   27    0.09091      0.00000     0.40781    0.00128     0.40909
      H   28    0.09438      0.00000     0.40415    0.00147     0.40562
      H   29    0.08075      0.00000     0.41741    0.00183     0.41925
      H   30    0.17890      0.00000     0.31394    0.00717     0.32110
      H   31    0.17146      0.00000     0.32678    0.00176     0.32854
      H   32    0.09940      0.00000     0.39961    0.00099     0.40060
      H   33    0.09719      0.00000     0.40187    0.00094     0.40281
      H   34    0.09866      0.00000     0.40046    0.00088     0.40134
 =======================================================================
   * Total *    0.00000     15.99340    42.82626    0.18034    59.00000

 Normal termination of Gaussian 16 at Sun Dec 13 16:54:02 2020.
