 Gaussian 16, Revision A.03,

 -----------------------------------------------------------
 # opt freq B3LYP/6-31G(d) empiricaldispersion=gd3bj scf=xqc
 -----------------------------------------------------------

 -------------------------------
 CID_103509243_JID_9636_neutraal
 -------------------------------
 Symbolic Z-matrix:
 Charge =  0 Multiplicity = 1

 SCF Done:  E(RB3LYP) =  -1615.70237121     A.U. after   15 cycles
 SCF Done:  E(RB3LYP) =  -1615.71355756     A.U. after   13 cycles
 SCF Done:  E(RB3LYP) =  -1615.71344120     A.U. after   13 cycles
 SCF Done:  E(RB3LYP) =  -1615.71680885     A.U. after   13 cycles
 SCF Done:  E(RB3LYP) =  -1615.71784207     A.U. after   13 cycles
 SCF Done:  E(RB3LYP) =  -1615.71857582     A.U. after   13 cycles
 SCF Done:  E(RB3LYP) =  -1615.71916471     A.U. after   12 cycles
 SCF Done:  E(RB3LYP) =  -1615.71953040     A.U. after   12 cycles
 SCF Done:  E(RB3LYP) =  -1615.71975463     A.U. after   12 cycles
 SCF Done:  E(RB3LYP) =  -1615.72000056     A.U. after   12 cycles
 SCF Done:  E(RB3LYP) =  -1615.72015600     A.U. after    9 cycles
 SCF Done:  E(RB3LYP) =  -1615.72015686     A.U. after    9 cycles
 SCF Done:  E(RB3LYP) =  -1615.72015700     A.U. after    7 cycles
 SCF Done:  E(RB3LYP) =  -1615.72015707     A.U. after    7 cycles
 SCF Done:  E(RB3LYP) =  -1615.72015710     A.U. after    7 cycles
 Optimization completed.
    -- Stationary point found.
 Normal termination of Gaussian 16 at Sat Dec 12 10:02:58 2020.

 --------------------------------------------------------------------
 #N Geom=AllCheck Guess=TCheck SCRF=Check GenChk RB3LYP/6-31G(d) Freq
 --------------------------------------------------------------------

 Structure from the checkpoint file:  "JID_9636.chk"
 -------------------------------
 CID_103509243_JID_9636_neutraal
 -------------------------------
 Charge =  0 Multiplicity = 1

 SCF Done:  E(RB3LYP) =  -1615.72015710     A.U. after    1 cycles

  Exact polarizability: 268.465  -2.125 171.360   1.515  -0.550 117.103
 Approx polarizability: 332.352  -5.404 315.882   0.557  10.577 192.156

                      1                      2                      3
                      A                      A                      A
 Frequencies --     23.3733                31.0473                51.8630
 Red. masses --      6.5073                 4.4332                 5.0389
 Frc consts  --      0.0021                 0.0025                 0.0080
 IR Inten    --      0.4358                 3.4776                 2.3415

                      4                      5                      6
                      A                      A                      A
 Frequencies --     78.6321                95.9699               107.7048
 Red. masses --      5.6399                 5.5720                 4.0919
 Frc consts  --      0.0205                 0.0302                 0.0280
 IR Inten    --      2.7131                 1.8239                 1.9223

                      7                      8                      9
                      A                      A                      A
 Frequencies --    139.4580               140.0816               188.2868
 Red. masses --      2.0835                 3.4199                 4.6737
 Frc consts  --      0.0239                 0.0395                 0.0976
 IR Inten    --      1.2794                 9.6579                 2.9820

                     10                     11                     12
                      A                      A                      A
 Frequencies --    190.7211               197.8579               218.2876
 Red. masses --      1.2881                 2.0651                 3.0013
 Frc consts  --      0.0276                 0.0476                 0.0843
 IR Inten    --      1.6006                 1.4709                 2.1508

                     13                     14                     15
                      A                      A                      A
 Frequencies --    226.5212               239.9710               257.2986
 Red. masses --      4.8735                 4.3639                 3.3893
 Frc consts  --      0.1473                 0.1481                 0.1322
 IR Inten    --      2.5897                 3.7940                 4.5314

                     16                     17                     18
                      A                      A                      A
 Frequencies --    295.3545               306.2805               320.1124
 Red. masses --      2.8992                 2.9927                 3.5104
 Frc consts  --      0.1490                 0.1654                 0.2119
 IR Inten    --     10.0346                 6.7284                 6.2260

                     19                     20                     21
                      A                      A                      A
 Frequencies --    340.2994               360.3965               389.9082
 Red. masses --      3.0313                 3.3969                 2.8750
 Frc consts  --      0.2068                 0.2600                 0.2575
 IR Inten    --      1.1530                 2.5045                16.2155

                     22                     23                     24
                      A                      A                      A
 Frequencies --    401.7008               421.0774               427.6141
 Red. masses --      4.0720                 4.1558                 5.3075
 Frc consts  --      0.3871                 0.4341                 0.5718
 IR Inten    --      5.3812                 9.4508                 8.2605

                     25                     26                     27
                      A                      A                      A
 Frequencies --    429.9477               445.6128               463.5452
 Red. masses --      1.1403                 3.3857                 3.9380
 Frc consts  --      0.1242                 0.3961                 0.4985
 IR Inten    --     78.5470                 5.1661                23.2067

                     28                     29                     30
                      A                      A                      A
 Frequencies --    513.2184               541.3764               563.3972
 Red. masses --      7.9342                 5.6654                 5.1715
 Frc consts  --      1.2313                 0.9783                 0.9672
 IR Inten    --      7.4283                11.4068                 8.0144

                     31                     32                     33
                      A                      A                      A
 Frequencies --    597.5977               638.5107               645.3236
 Red. masses --      5.5933                 2.3018                 3.9083
 Frc consts  --      1.1769                 0.5529                 0.9589
 IR Inten    --      8.7237                27.5583                15.5509

                     34                     35                     36
                      A                      A                      A
 Frequencies --    659.2336               706.7617               714.6154
 Red. masses --      3.2618                 3.1225                 2.5034
 Frc consts  --      0.8352                 0.9190                 0.7532
 IR Inten    --     53.1987                61.4867                21.6397

                     37                     38                     39
                      A                      A                      A
 Frequencies --    727.8908               741.6406               773.2746
 Red. masses --      2.6311                 2.3437                 2.5530
 Frc consts  --      0.8213                 0.7595                 0.8994
 IR Inten    --     56.2680                51.6492                13.0237

                     40                     41                     42
                      A                      A                      A
 Frequencies --    792.2846               865.2260               873.8529
 Red. masses --      3.1386                 3.4804                 2.5265
 Frc consts  --      1.1608                 1.5351                 1.1367
 IR Inten    --     71.5970                24.7490                24.0921

                     43                     44                     45
                      A                      A                      A
 Frequencies --    892.9107               973.8125               985.7586
 Red. masses --      5.2342                 2.1517                 1.6718
 Frc consts  --      2.4588                 1.2022                 0.9571
 IR Inten    --      4.9953                28.5757                 3.8736

                     46                     47                     48
                      A                      A                      A
 Frequencies --   1019.6690              1026.4638              1034.1111
 Red. masses --      1.9859                 2.9086                 2.0880
 Frc consts  --      1.2165                 1.8056                 1.3156
 IR Inten    --     10.6692                58.7827                28.8890

                     49                     50                     51
                      A                      A                      A
 Frequencies --   1063.1561              1070.7852              1082.9659
 Red. masses --      2.2788                 2.3266                 1.4989
 Frc consts  --      1.5176                 1.5718                 1.0357
 IR Inten    --    130.2713                59.1649                14.5726

                     52                     53                     54
                      A                      A                      A
 Frequencies --   1118.2452              1134.3262              1162.8766
 Red. masses --      7.0214                 1.2313                 2.1119
 Frc consts  --      5.1730                 0.9334                 1.6827
 IR Inten    --    164.6306                 3.1269                12.0638

                     55                     56                     57
                      A                      A                      A
 Frequencies --   1165.1945              1186.6812              1195.0875
 Red. masses --      1.9571                 1.4240                 1.4666
 Frc consts  --      1.5656                 1.1815                 1.2341
 IR Inten    --     20.4526                32.5652                 1.2193

                     58                     59                     60
                      A                      A                      A
 Frequencies --   1205.9240              1236.6526              1241.7885
 Red. masses --      1.4764                 2.5850                 2.0896
 Frc consts  --      1.2650                 2.3292                 1.8985
 IR Inten    --    248.3248                22.9829                11.0685

                     61                     62                     63
                      A                      A                      A
 Frequencies --   1258.5710              1289.9501              1302.2333
 Red. masses --      1.3947                 2.3773                 2.4788
 Frc consts  --      1.3016                 2.3307                 2.4767
 IR Inten    --     19.2274                64.6715                32.6349

                     64                     65                     66
                      A                      A                      A
 Frequencies --   1309.2055              1339.9165              1348.3516
 Red. masses --      4.2290                 1.3290                 2.0571
 Frc consts  --      4.2707                 1.4058                 2.2035
 IR Inten    --     83.7777                17.4470                66.5463

                     67                     68                     69
                      A                      A                      A
 Frequencies --   1377.6914              1387.1265              1397.8879
 Red. masses --      3.4769                 1.5184                 1.3036
 Frc consts  --      3.8882                 1.7213                 1.5008
 IR Inten    --    331.8547                13.5623                 1.7074

                     70                     71                     72
                      A                      A                      A
 Frequencies --   1435.3681              1465.3410              1465.7454
 Red. masses --      1.4554                 1.1486                 1.1008
 Frc consts  --      1.7666                 1.4531                 1.3933
 IR Inten    --     85.5228                 1.4064                 6.4392

                     73                     74                     75
                      A                      A                      A
 Frequencies --   1477.2314              1486.2134              1500.4204
 Red. masses --      1.0940                 2.0651                 1.4083
 Frc consts  --      1.4065                 2.6875                 1.8679
 IR Inten    --     14.7853                54.2298                81.5632

                     76                     77                     78
                      A                      A                      A
 Frequencies --   1506.2305              1515.1411              1518.8313
 Red. masses --      1.2034                 1.0735                 1.1217
 Frc consts  --      1.6086                 1.4520                 1.5245
 IR Inten    --     32.7709                 2.2171                44.3093

                     79                     80                     81
                      A                      A                      A
 Frequencies --   1525.7447              1529.3285              1549.4828
 Red. masses --      1.2166                 1.0585                 3.0901
 Frc consts  --      1.6686                 1.4586                 4.3711
 IR Inten    --    124.9519                 4.9200               250.8338

                     82                     83                     84
                      A                      A                      A
 Frequencies --   1552.5878              1618.4705              1681.5221
 Red. masses --      1.1116                 3.7831                 1.3188
 Frc consts  --      1.5787                 5.8387                 2.1970
 IR Inten    --     66.6196               105.6053               155.2326

                     85                     86                     87
                      A                      A                      A
 Frequencies --   1724.7663              3016.0127              3021.5512
 Red. masses --      9.7593                 1.0525                 1.0705
 Frc consts  --     17.1053                 5.6406                 5.7581
 IR Inten    --    275.9629                58.0232                31.9739

                     88                     89                     90
                      A                      A                      A
 Frequencies --   3025.5828              3032.8231              3096.2736
 Red. masses --      1.0718                 1.0473                 1.0584
 Frc consts  --      5.7809                 5.6759                 5.9783
 IR Inten    --     24.9949                79.8920                 0.5755

                     91                     92                     93
                      A                      A                      A
 Frequencies --   3098.3849              3098.8031              3106.5098
 Red. masses --      1.0586                 1.0902                 1.0925
 Frc consts  --      5.9875                 6.1679                 6.2117
 IR Inten    --      3.9696                24.0140                35.8412

                     94                     95                     96
                      A                      A                      A
 Frequencies --   3131.1058              3142.8481              3159.1252
 Red. masses --      1.0926                 1.0925                 1.1082
 Frc consts  --      6.3113                 6.3582                 6.5164
 IR Inten    --      7.2901                 3.8840                 0.5263

                     97                     98                     99
                      A                      A                      A
 Frequencies --   3161.8164              3175.3611              3195.7857
 Red. masses --      1.1089                 1.0999                 1.0958
 Frc consts  --      6.5314                 6.5340                 6.5940
 IR Inten    --      3.2937                 9.5592                11.3495

                    100                    101                    102
                      A                      A                      A
 Frequencies --   3228.0378              3511.4618              3629.4411
 Red. masses --      1.0921                 1.0499                 1.0966
 Frc consts  --      6.7046                 7.6276                 8.5111
 IR Inten    --     10.6461                28.3740                24.1738

 - Thermochemistry -
 -------------------
 Temperature   298.150 Kelvin.  Pressure   1.00000 Atm.
 Atom     1 has atomic number  6 and mass  12.00000

 Molecular mass:   303.07114 amu.
 Principal axes and moments of inertia in atomic units:
                           1         2         3
     Eigenvalues --  1718.06665********************
           X            0.99998   0.00378   0.00497
           Y           -0.00364   0.99962  -0.02737
           Z           -0.00507   0.02735   0.99961
 This molecule is an asymmetric top.
 Rotational symmetry number  1.
 Warning -- assumption of classical behavior for rotation
           may cause significant error
 Rotational temperatures (Kelvin)      0.05041     0.00588     0.00556
 Rotational constants (GHZ):           1.05045     0.12249     0.11577
 Zero-point vibrational energy     761625.4 (Joules/Mol)
                                  182.03283 (Kcal/Mol)
 Warning -- explicit consideration of  31 degrees of freedom as
           vibrations may cause significant error
 Vibrational temperatures:     33.63    44.67    74.62   113.13   138.08
          (Kelvin)            154.96   200.65   201.55   270.90   274.41
                              284.67   314.07   325.91   345.26   370.20
                              424.95   440.67   460.57   489.61   518.53
                              560.99   577.96   605.84   615.24   618.60
                              641.14   666.94   738.41   778.92   810.60
                              859.81   918.67   928.48   948.49  1016.87
                             1028.17  1047.27  1067.06  1112.57  1139.92
                             1244.87  1257.28  1284.70  1401.10  1418.29
                             1467.08  1476.85  1487.86  1529.64  1540.62
                             1558.15  1608.91  1632.04  1673.12  1676.45
                             1707.37  1719.46  1735.06  1779.27  1786.66
                             1810.80  1855.95  1873.62  1883.65  1927.84
                             1939.98  1982.19  1995.77  2011.25  2065.17
                             2108.30  2108.88  2125.41  2138.33  2158.77
                             2167.13  2179.95  2185.26  2195.21  2200.36
                             2229.36  2233.83  2328.62  2419.34  2481.55
                             4339.37  4347.34  4353.14  4363.56  4454.85
                             4457.88  4458.49  4469.57  4504.96  4521.86
                             4545.28  4549.15  4568.64  4598.02  4644.43
                             5052.21  5221.96

 Zero-point correction=                           0.290088 (Hartree/Particle)
 Thermal correction to Energy=                    0.309291
 Thermal correction to Enthalpy=                  0.310235
 Thermal correction to Gibbs Free Energy=         0.241855
 Sum of electronic and zero-point Energies=          -1615.430069
 Sum of electronic and thermal Energies=             -1615.410866
 Sum of electronic and thermal Enthalpies=           -1615.409922
 Sum of electronic and thermal Free Energies=        -1615.478302

                     E (Thermal)             CV                S
                      KCal/Mol        Cal/Mol-Kelvin    Cal/Mol-Kelvin
 Total                  194.083             72.758            143.918
 Electronic               0.000              0.000              0.000
 Translational            0.889              2.981             43.023
 Rotational               0.889              2.981             34.333
 Vibrational            192.306             66.797             66.561
 Vibration     1          0.593              1.985              6.325
 Vibration     2          0.594              1.983              5.761
 Vibration     3          0.596              1.977              4.745
 Vibration     4          0.600              1.964              3.925
 Vibration     5          0.603              1.952              3.535
 Vibration     6          0.606              1.943              3.310
 Vibration     7          0.615              1.914              2.811
 Vibration     8          0.615              1.913              2.803
 Vibration     9          0.633              1.856              2.245
 Vibration    10          0.634              1.853              2.221
 Vibration    11          0.637              1.843              2.153
 Vibration    12          0.646              1.813              1.973
 Vibration    13          0.650              1.801              1.906
 Vibration    14          0.657              1.779              1.803
 Vibration    15          0.667              1.750              1.680
 Vibration    16          0.690              1.682              1.443
 Vibration    17          0.697              1.662              1.382
 Vibration    18          0.706              1.635              1.310
 Vibration    19          0.720              1.595              1.211
 Vibration    20          0.735              1.554              1.120
 Vibration    21          0.758              1.492              1.000
 Vibration    22          0.767              1.466              0.956
 Vibration    23          0.784              1.424              0.888
 Vibration    24          0.789              1.410              0.866
 Vibration    25          0.791              1.405              0.859
 Vibration    26          0.805              1.371              0.809
 Vibration    27          0.821              1.331              0.756
 Vibration    28          0.868              1.221              0.626
 Vibration    29          0.896              1.159              0.562
 Vibration    30          0.919              1.110              0.517
 Vibration    31          0.956              1.037              0.454

                           ! Non-Optimized Parameters !
 Normal termination of Gaussian 16 at Sat Dec 12 10:18:47 2020.

 ----------------------------------------------------------------------
 # B3LYP/6-311++G(d,p) empiricaldispersion=gd3bj scf=xqc pop=npa geom=c
 heck
 ----------------------------------------------------------------------

 ---------------------------------------
 CID_103509243_JID_9636_Energie_neutraal
 ---------------------------------------
 Structure from the checkpoint file:  "JID_9636.chk"
 Charge =  0 Multiplicity = 1

 SCF Done:  E(RB3LYP) =  -1616.01020388     A.U. after   16 cycles
 Normal termination of Gaussian 16 at Sat Dec 12 10:25:28 2020.

 ----------------------------------------------------------------------
 # B3LYP/6-311++G(d,p) empiricaldispersion=gd3bj scf=xqc pop=npa geom=c
 heck
 ----------------------------------------------------------------------

 -------------------------------------
 CID_103509243_JID_9636_Energie_kation
 -------------------------------------
 Structure from the checkpoint file:  "JID_9636.chk"
 Charge =  1 Multiplicity = 2

 SCF Done:  E(UB3LYP) =  -1615.73847253     A.U. after   27 cycles
 Normal termination of Gaussian 16 at Sat Dec 12 10:41:04 2020.
 Gaussian 16:  ES64L-G16RevA.03 25-Dec-2016

 ----------------------------------------------------------------------
 # B3LYP/6-311++G(d,p) empiricaldispersion=gd3bj scf=xqc pop=npa geom=c
 heck
 ----------------------------------------------------------------------

 ------------------------------------
 CID_103509243_JID_9636_Energie_anion
 ------------------------------------
 Structure from the checkpoint file:  "JID_9636.chk"
 Charge = -1 Multiplicity = 2

                         Standard orientation:
 ---------------------------------------------------------------------
 Center     Atomic      Atomic             Coordinates (Angstroms)
 Number     Number       Type             X           Y           Z
 ---------------------------------------------------------------------
      1          6           0        6.088177   -0.622871   -0.273116
      2          7           0        4.815311   -0.004056    0.091518
      3          6           0        4.847287    0.608231    1.425411
      4          6           0        3.682976   -0.771472   -0.251435
      5          8           0        3.788961   -1.914037   -0.694215
      6          6           0        2.390240   -0.108988   -0.122832
      7          6           0        2.043231    1.231842   -0.206555
      8          6           0        0.628580    1.445024   -0.179869
      9          6           0       -0.091106    0.273687   -0.115378
     10         16           0        0.956530   -1.134035   -0.118116
     11          7           0       -1.471992    0.106805   -0.134412
     12          6           0       -2.047585   -0.861142    0.810054
     13          6           0       -3.358507   -1.448465    0.291075
     14         16           0       -4.585069   -0.133492    0.075361
     15          8           0       -5.734881   -0.647152   -0.680385
     16          8           0       -4.764690    0.526662    1.380612
     17          6           0       -3.624721    0.986478   -0.974196
     18          6           0       -2.272965    1.313063   -0.335524
     19          7           0        2.943789    2.285993   -0.260341
     20          1           0        6.875700    0.133893   -0.203004
     21          1           0        6.030807   -1.000475   -1.294099
     22          1           0        6.341105   -1.464288    0.387372
     23          1           0        5.564105    1.435707    1.433783
     24          1           0        3.866462    0.997035    1.692882
     25          1           0        5.157791   -0.126439    2.183810
     26          1           0        0.190032    2.435189   -0.162107
     27          1           0       -2.221543   -0.391567    1.789851
     28          1           0       -1.334755   -1.674068    0.955411
     29          1           0       -3.793285   -2.150207    1.008483
     30          1           0       -3.232333   -1.940973   -0.676536
     31          1           0       -3.504786    0.497028   -1.944122
     32          1           0       -4.236914    1.885396   -1.090305
     33          1           0       -2.432056    1.858461    0.607127
     34          1           0       -1.732609    1.967837   -1.021928
     35          1           0        2.605939    3.098879   -0.760945
     36          1           0        3.874446    2.001715   -0.552839
 ---------------------------------------------------------------------

 SCF Done:  E(UB3LYP) =  -1616.01210015     A.U. after   33 cycles
 SCF Done:  E(UB3LYP) =  -1616.01210015     a.u. after    1 cycles

 The electronic state is 2-A.
 Alpha  occ. eigenvalues --  -88.96262 -88.75638 -19.03606 -19.03298 -18.97144
 Alpha  occ. eigenvalues --  -14.25284 -14.23181 -14.21840 -10.15196 -10.13834
 Alpha  occ. eigenvalues --  -10.13503 -10.13353 -10.12998 -10.12646 -10.11044
 Alpha  occ. eigenvalues --  -10.10171 -10.10021 -10.07426 -10.06205  -8.02803
 Alpha  occ. eigenvalues --   -7.84267  -5.99065  -5.98950  -5.98899  -5.80600
 Alpha  occ. eigenvalues --   -5.80238  -5.79771  -1.02667  -0.92420  -0.92395
 Alpha  occ. eigenvalues --   -0.87634  -0.82943  -0.81754  -0.75513  -0.72209
 Alpha  occ. eigenvalues --   -0.71480  -0.64103  -0.62003  -0.61657  -0.59222
 Alpha  occ. eigenvalues --   -0.58548  -0.56025  -0.51050  -0.48884  -0.46636
 Alpha  occ. eigenvalues --   -0.44670  -0.43045  -0.42280  -0.41166  -0.40729
 Alpha  occ. eigenvalues --   -0.40437  -0.39261  -0.38618  -0.37461  -0.36741
 Alpha  occ. eigenvalues --   -0.36213  -0.34931  -0.33991  -0.32788  -0.31970
 Alpha  occ. eigenvalues --   -0.31348  -0.30842  -0.30699  -0.30350  -0.29918
 Alpha  occ. eigenvalues --   -0.28710  -0.28069  -0.27510  -0.25998  -0.25340
 Alpha  occ. eigenvalues --   -0.24259  -0.24007  -0.22581  -0.22503  -0.20601
 Alpha  occ. eigenvalues --   -0.17573  -0.16133  -0.13916  -0.12347  -0.09452
 Alpha  occ. eigenvalues --    0.03486
 Alpha virt. eigenvalues --    0.05843   0.06080   0.06789   0.07583   0.08044
 Alpha virt. eigenvalues --    0.08579   0.09029   0.09768   0.09921   0.09998
 Alpha virt. eigenvalues --    0.10440   0.11516   0.11782   0.11993   0.12157

  Beta  occ. eigenvalues --  -88.96261 -88.75619 -19.03605 -19.03292 -18.97003
  Beta  occ. eigenvalues --  -14.25288 -14.23180 -14.21794 -10.15074 -10.13799
  Beta  occ. eigenvalues --  -10.13489 -10.13332 -10.12967 -10.12382 -10.10922
  Beta  occ. eigenvalues --  -10.10135 -10.10014 -10.07432 -10.06240  -8.02801
  Beta  occ. eigenvalues --   -7.84250  -5.99063  -5.98949  -5.98899  -5.80594
  Beta  occ. eigenvalues --   -5.80228  -5.79714  -1.02659  -0.92386  -0.92184
  Beta  occ. eigenvalues --   -0.87519  -0.82827  -0.81639  -0.75364  -0.72167
  Beta  occ. eigenvalues --   -0.71433  -0.63953  -0.61934  -0.61512  -0.59094
  Beta  occ. eigenvalues --   -0.58469  -0.55962  -0.50957  -0.48718  -0.46536
  Beta  occ. eigenvalues --   -0.44563  -0.42977  -0.42258  -0.41121  -0.40663
  Beta  occ. eigenvalues --   -0.40392  -0.39204  -0.38556  -0.37347  -0.36664
  Beta  occ. eigenvalues --   -0.36116  -0.34881  -0.33902  -0.32688  -0.31891
  Beta  occ. eigenvalues --   -0.31161  -0.30790  -0.30665  -0.30288  -0.29779
  Beta  occ. eigenvalues --   -0.28533  -0.27994  -0.27362  -0.25486  -0.25206
  Beta  occ. eigenvalues --   -0.24226  -0.23846  -0.22493  -0.22156  -0.20578
  Beta  occ. eigenvalues --   -0.17351  -0.15955  -0.13726  -0.12108  -0.08958
  Beta virt. eigenvalues --    0.05895   0.06335   0.07043   0.07519   0.07865
  Beta virt. eigenvalues --    0.08401   0.08679   0.09215   0.09900   0.09973
  Beta virt. eigenvalues --    0.10157   0.10657   0.11497   0.11965   0.11982

 Mulliken charges and spin densities:
               1          2
     1  C   -0.198697  -0.127809
     2  N   -0.068214   0.055713
     3  C   -0.002177  -0.433763
     4  C    0.119849  -0.616084
     5  O   -0.357161   0.049155
     6  C   -0.016834   0.298539
     7  C    0.327207   0.019782
     8  C   -0.249884   0.349121
     9  C    0.048356  -0.666455
    10  S   -0.145508  -0.038737
    11  N    0.423027   0.142760
    12  C   -0.274593  -0.129967
    13  C   -0.559857  -0.163619
    14  S    0.635883  -0.109442
    15  O   -0.138793   0.015397
    16  O   -0.254152   0.010182
    17  C   -0.532640  -0.187320
    18  C    0.234235  -0.480231
    19  N   -0.351650   0.034328
    20  H    0.069039   0.053902
    21  H    0.131634   0.043844
    22  H    0.114132   0.034699
    23  H   -0.039226   0.192396
    24  H    0.127222   0.046758
    25  H   -0.020569   0.156151
    26  H   -0.405254   0.566279
    27  H    0.067207   0.151041
    28  H    0.098226   0.017056
    29  H    0.214562   0.028847
    30  H    0.119912   0.122593
    31  H    0.121541   0.141681
    32  H   -0.144622   0.410536
    33  H    0.147793   0.056537
    34  H   -0.404478   0.596252
    35  H   -0.037735   0.291761
    36  H    0.202222   0.068116
 Sum of Mulliken charges =  -1.00000   1.00000

 Dipole moment (field-independent basis, Debye):
    X=              0.6538    Y=             -1.8172    Z=              1.1978  Tot=              2.2726
 Quadrupole moment (field-independent basis, Debye-Ang):
   XX=           -231.2842   YY=           -165.8934   ZZ=           -153.7306
   XY=             13.4088   XZ=              1.1567   YZ=             -4.0988

 Summary of Natural Population Analysis:

                                       Natural Population
                Natural  -----------------------------------------------
    Atom  No    Charge         Core      Valence    Rydberg      Total
 -----------------------------------------------------------------------
      C    1   -0.17618      0.99965     2.16912    0.00740     3.17618
      N    2   -0.27960      0.99968     2.77042    0.00950     3.77960
      C    3   -0.17666      0.99964     2.17016    0.00686     3.17666
      C    4    0.33953      0.99954     1.63741    0.02352     2.66047
      O    5   -0.31142      0.99988     3.30653    0.00502     4.31142
      C    6   -0.18935      0.99939     2.17712    0.01285     3.18935
      C    7    0.10974      0.99943     1.87826    0.01257     2.89026
      C    8   -0.18927      0.99944     2.17943    0.01040     3.18927
      C    9    0.07734      0.99947     1.90787    0.01532     2.92266
      S   10    0.19844      4.99942     2.78263    0.01951     7.80156
      N   11   -0.27098      0.99963     2.75741    0.01394     3.77098
      C   12   -0.09019      0.99959     2.08038    0.01021     3.09019
      C   13   -0.29449      0.99958     2.28453    0.01037     3.29449
      S   14    1.01962      4.99925     1.88576    0.09537     6.98038
      O   15   -0.46759      0.99991     3.46198    0.00570     4.46759
      O   16   -0.47054      0.99991     3.46476    0.00588     4.47054
      C   17   -0.29381      0.99958     2.28162    0.01261     3.29381
      C   18   -0.09439      0.99960     2.08158    0.01321     3.09439
      N   19   -0.39413      0.99970     2.88441    0.01002     3.89413
      H   20    0.08838      0.00000     0.41051    0.00110     0.41162
      H   21    0.10567      0.00000     0.39330    0.00103     0.39433
      H   22    0.08829      0.00000     0.41003    0.00168     0.41171
      H   23    0.09099      0.00000     0.40757    0.00144     0.40901
      H   24    0.11122      0.00000     0.38750    0.00128     0.38878
      H   25    0.08508      0.00000     0.41313    0.00179     0.41492
      H   26    0.10768      0.00000     0.39079    0.00153     0.39232
      H   27    0.09834      0.00000     0.40012    0.00154     0.40166
      H   28    0.11199      0.00000     0.38639    0.00162     0.38801
      H   29    0.11781      0.00000     0.38091    0.00128     0.38219
      H   30    0.11686      0.00000     0.38152    0.00161     0.38314
      H   31    0.11675      0.00000     0.38185    0.00140     0.38325
      H   32    0.12269      0.00000     0.37576    0.00155     0.37731
      H   33    0.09848      0.00000     0.39984    0.00168     0.40152
      H   34    0.11512      0.00000     0.38247    0.00242     0.38488
      H   35    0.18593      0.00000     0.31234    0.00172     0.31407
      H   36    0.19263      0.00000     0.30514    0.00223     0.30737
 =======================================================================
   * Total *    0.00000     26.99230    52.68053    0.32717    80.00000

 Normal termination of Gaussian 16 at Sat Dec 12 11:00:26 2020.
