 Gaussian 16, Revision A.03,

 -----------------------------------------------------------
 # opt freq B3LYP/6-31G(d) empiricaldispersion=gd3bj scf=xqc
 -----------------------------------------------------------

 -------------------------------
 CID_137442332_JID_2366_neutraal
 -------------------------------
 Symbolic Z-matrix:
 Charge =  0 Multiplicity = 1

 SCF Done:  E(RB3LYP) =  -1276.10639296     A.U. after   15 cycles
 SCF Done:  E(RB3LYP) =  -1276.11304711     A.U. after   12 cycles
 SCF Done:  E(RB3LYP) =  -1276.11464907     A.U. after   12 cycles
 SCF Done:  E(RB3LYP) =  -1276.11514296     A.U. after   12 cycles
 SCF Done:  E(RB3LYP) =  -1276.11552685     A.U. after   13 cycles
 SCF Done:  E(RB3LYP) =  -1276.11591428     A.U. after   13 cycles
 SCF Done:  E(RB3LYP) =  -1276.11626969     A.U. after   13 cycles
 SCF Done:  E(RB3LYP) =  -1276.11651639     A.U. after   13 cycles
 SCF Done:  E(RB3LYP) =  -1276.11665036     A.U. after   11 cycles
 SCF Done:  E(RB3LYP) =  -1276.11669897     A.U. after   13 cycles
 SCF Done:  E(RB3LYP) =  -1276.11675450     A.U. after   12 cycles
 SCF Done:  E(RB3LYP) =  -1276.11675812     A.U. after   11 cycles
 SCF Done:  E(RB3LYP) =  -1276.11676009     A.U. after   11 cycles
 SCF Done:  E(RB3LYP) =  -1276.11676022     A.U. after    8 cycles
 SCF Done:  E(RB3LYP) =  -1276.11676025     A.U. after    7 cycles
 Optimization completed.
    -- Stationary point found.
 Normal termination of Gaussian 16 at Wed Dec  9 17:15:52 2020.

 --------------------------------------------------------------------
 #N Geom=AllCheck Guess=TCheck SCRF=Check GenChk RB3LYP/6-31G(d) Freq
 --------------------------------------------------------------------

 Structure from the checkpoint file:  "JID_2366.chk"
 -------------------------------
 CID_137442332_JID_2366_neutraal
 -------------------------------
 Charge =  0 Multiplicity = 1

 SCF Done:  E(RB3LYP) =  -1276.11676025     A.U. after    1 cycles

  Exact polarizability: 130.960   8.698 121.424 -10.507   2.603  94.561
 Approx polarizability: 187.951  16.974 187.898 -21.015   8.365 161.197

                      1                      2                      3
                      A                      A                      A
 Frequencies --     27.5843                54.3446                74.3404
 Red. masses --      5.3351                 5.2365                 2.6752
 Frc consts  --      0.0024                 0.0091                 0.0087
 IR Inten    --      3.3775                 0.0921                 0.1557

                      4                      5                      6
                      A                      A                      A
 Frequencies --    136.0364               163.6188               201.1511
 Red. masses --      3.9543                 4.5787                 2.2520
 Frc consts  --      0.0431                 0.0722                 0.0537
 IR Inten    --      3.9529                 0.1897                 0.1186

                      7                      8                      9
                      A                      A                      A
 Frequencies --    218.3300               229.7926               237.5911
 Red. masses --      1.1191                 2.6943                 1.2782
 Frc consts  --      0.0314                 0.0838                 0.0425
 IR Inten    --      0.2779                 3.6483                 0.4878

                     10                     11                     12
                      A                      A                      A
 Frequencies --    245.2190               288.7661               319.1719
 Red. masses --      1.3186                 4.0865                 3.9626
 Frc consts  --      0.0467                 0.2008                 0.2378
 IR Inten    --      0.4430                 0.1427                 0.7108

                     13                     14                     15
                      A                      A                      A
 Frequencies --    353.8923               368.9544               385.0574
 Red. masses --      3.7483                 3.6344                 4.4154
 Frc consts  --      0.2766                 0.2915                 0.3857
 IR Inten    --      1.4004                 1.6312                 0.2954

                     16                     17                     18
                      A                      A                      A
 Frequencies --    429.8362               436.2633               472.1862
 Red. masses --      2.6666                 4.4554                 5.1318
 Frc consts  --      0.2903                 0.4996                 0.6741
 IR Inten    --      4.3997                 6.9298                35.6688

                     19                     20                     21
                      A                      A                      A
 Frequencies --    512.9495               544.0939               636.4832
 Red. masses --      7.8159                 4.2169                 4.4084
 Frc consts  --      1.2117                 0.7355                 1.0522
 IR Inten    --     55.5974                25.1021                38.5276

                     22                     23                     24
                      A                      A                      A
 Frequencies --    699.5864               720.0946               757.4042
 Red. masses --      4.6804                 1.7141                 5.7900
 Frc consts  --      1.3496                 0.5237                 1.9570
 IR Inten    --      2.8007                26.4555               105.6407

                     25                     26                     27
                      A                      A                      A
 Frequencies --    794.2419               849.2549               868.2290
 Red. masses --      4.1575                 2.4137                 1.2920
 Frc consts  --      1.5452                 1.0257                 0.5738
 IR Inten    --     33.3500                11.6540                 2.9032

                     28                     29                     30
                      A                      A                      A
 Frequencies --    883.6907               948.6153               954.3002
 Red. masses --      3.4235                 1.2518                 2.8206
 Frc consts  --      1.5752                 0.6637                 1.5135
 IR Inten    --      0.4305                10.3106                83.1719

                     31                     32                     33
                      A                      A                      A
 Frequencies --    973.0535               985.4364               998.2842
 Red. masses --      1.7646                 1.6563                 1.3498
 Frc consts  --      0.9844                 0.9476                 0.7925
 IR Inten    --     55.7161                61.5852                 0.0404

                     34                     35                     36
                      A                      A                      A
 Frequencies --   1007.2597              1104.7051              1131.3356
 Red. masses --      1.6447                 1.8643                 7.3859
 Frc consts  --      0.9832                 1.3405                 5.5698
 IR Inten    --      0.6677                25.4301               137.4774

                     37                     38                     39
                      A                      A                      A
 Frequencies --   1136.3383              1163.4990              1200.6768
 Red. masses --      1.9861                 2.0341                 2.0444
 Frc consts  --      1.5110                 1.6224                 1.7365
 IR Inten    --      0.6557                 6.1623                11.3059

                     40                     41                     42
                      A                      A                      A
 Frequencies --   1202.6424              1261.4415              1322.8904
 Red. masses --      1.7848                 1.3549                 1.3808
 Frc consts  --      1.5209                 1.2702                 1.4237
 IR Inten    --      5.5116                26.3392                23.3953

                     43                     44                     45
                      A                      A                      A
 Frequencies --   1339.6253              1356.5820              1366.2780
 Red. masses --      7.9372                 1.3795                 1.4026
 Frc consts  --      8.3924                 1.4958                 1.5427
 IR Inten    --    161.6656                 8.1010                 1.0911

                     46                     47                     48
                      A                      A                      A
 Frequencies --   1381.1713              1411.6975              1425.5372
 Red. masses --      1.2156                 1.2957                 1.2596
 Frc consts  --      1.3662                 1.5214                 1.5081
 IR Inten    --     11.7154                 3.2085                 5.4232

                     49                     50                     51
                      A                      A                      A
 Frequencies --   1445.7021              1483.1326              1485.3378
 Red. masses --      1.2247                 1.0514                 1.0512
 Frc consts  --      1.5082                 1.3627                 1.3664
 IR Inten    --      7.8556                 3.6007                 5.8237

                     52                     53                     54
                      A                      A                      A
 Frequencies --   1518.0389              1525.2866              1532.0101
 Red. masses --      1.0510                 1.0438                 1.0485
 Frc consts  --      1.4270                 1.4308                 1.4500
 IR Inten    --      3.4753                 1.0468                 5.5182

                     55                     56                     57
                      A                      A                      A
 Frequencies --   1547.3633              1655.6128              3044.6568
 Red. masses --      1.0505                 6.4881                 1.0536
 Frc consts  --      1.4819                10.4782                 5.7543
 IR Inten    --     14.7237                13.0933                10.0107

                     58                     59                     60
                      A                      A                      A
 Frequencies --   3047.2889              3053.2610              3090.5523
 Red. masses --      1.0576                 1.0476                 1.0296
 Frc consts  --      5.7863                 5.7540                 5.7939
 IR Inten    --     12.3559                28.2764                 0.3684

                     61                     62                     63
                      A                      A                      A
 Frequencies --   3111.5377              3117.7138              3131.2705
 Red. masses --      1.1002                 1.0999                 1.1019
 Frc consts  --      6.2759                 6.2989                 6.3654
 IR Inten    --      3.2950                51.6425                21.9488

                     64                     65                     66
                      A                      A                      A
 Frequencies --   3138.3491              3146.2900              3187.0436
 Red. masses --      1.1000                 1.0860                 1.1066
 Frc consts  --      6.3831                 6.3342                 6.6222
 IR Inten    --     27.7106                 3.6889                 0.6910

                     67                     68                     69
                      A                      A                      A
 Frequencies --   3204.3619              3247.3061              3271.4527
 Red. masses --      1.1076                 1.0872                 1.1025
 Frc consts  --      6.7007                 6.7549                 6.9523
 IR Inten    --      0.4037                 1.8904                 2.2420

 - Thermochemistry -
 -------------------
 Temperature   298.150 Kelvin.  Pressure   1.00000 Atm.
 Atom     1 has atomic number  6 and mass  12.00000

 Molecular mass:   207.03877 amu.
 Principal axes and moments of inertia in atomic units:
                           1         2         3
     Eigenvalues --  1745.809582891.478963772.01335
           X            0.99925  -0.03448  -0.01779
           Y            0.03442   0.99940  -0.00370
           Z            0.01791   0.00309   0.99983
 This molecule is an asymmetric top.
 Rotational symmetry number  1.
 Warning -- assumption of classical behavior for rotation
           may cause significant error
 Rotational temperatures (Kelvin)      0.04961     0.02995     0.02296
 Rotational constants (GHZ):           1.03376     0.62416     0.47846
 Zero-point vibrational energy     529725.0 (Joules/Mol)
                                  126.60731 (Kcal/Mol)
 Warning -- explicit consideration of  20 degrees of freedom as
           vibrations may cause significant error
 Vibrational temperatures:     39.69    78.19   106.96   195.73   235.41
          (Kelvin)            289.41   314.13   330.62   341.84   352.82
                              415.47   459.22   509.17   530.84   554.01
                              618.44   627.69   679.37   738.02   782.83
                              915.76  1006.55  1036.06  1089.74  1142.74
                             1221.89  1249.19  1271.43  1364.85  1373.03
                             1400.01  1417.82  1436.31  1449.22  1589.42
                             1627.74  1634.94  1674.02  1727.51  1730.33
                             1814.93  1903.34  1927.42  1951.82  1965.77
                             1987.20  2031.12  2051.03  2080.04  2133.90
                             2137.07  2184.12  2194.55  2204.22  2226.31
                             2382.06  4380.58  4384.37  4392.96  4446.62
                             4476.81  4485.69  4505.20  4515.38  4526.81
                             4585.44  4610.36  4672.15  4706.89

 Zero-point correction=                           0.201762 (Hartree/Particle)
 Thermal correction to Energy=                    0.215229
 Thermal correction to Enthalpy=                  0.216173
 Thermal correction to Gibbs Free Energy=         0.161260
 Sum of electronic and zero-point Energies=          -1275.914999
 Sum of electronic and thermal Energies=             -1275.901532
 Sum of electronic and thermal Enthalpies=           -1275.900587
 Sum of electronic and thermal Free Energies=        -1275.955500

                     E (Thermal)             CV                S
                      KCal/Mol        Cal/Mol-Kelvin    Cal/Mol-Kelvin
 Total                  135.058             50.098            115.574
 Electronic               0.000              0.000              0.000
 Translational            0.889              2.981             41.887
 Rotational               0.889              2.981             31.321
 Vibrational            133.281             44.136             42.366
 Vibration     1          0.593              1.984              5.996
 Vibration     2          0.596              1.976              4.653
 Vibration     3          0.599              1.966              4.035
 Vibration     4          0.614              1.917              2.859
 Vibration     5          0.623              1.887              2.508
 Vibration     6          0.638              1.838              2.123
 Vibration     7          0.646              1.813              1.973
 Vibration     8          0.652              1.796              1.881
 Vibration     9          0.656              1.783              1.821
 Vibration    10          0.660              1.771              1.765
 Vibration    11          0.685              1.695              1.481
 Vibration    12          0.705              1.637              1.314
 Vibration    13          0.730              1.567              1.149
 Vibration    14          0.741              1.536              1.084
 Vibration    15          0.754              1.502              1.019
 Vibration    16          0.791              1.405              0.859
 Vibration    17          0.797              1.391              0.838
 Vibration    18          0.829              1.312              0.731
 Vibration    19          0.868              1.221              0.627
 Vibration    20          0.899              1.153              0.557

 Optimization completed.
    -- Stationary point found.
 Normal termination of Gaussian 16 at Wed Dec  9 17:22:38 2020.

 ----------------------------------------------------------------------
 # B3LYP/6-311++G(d,p) empiricaldispersion=gd3bj scf=xqc pop=npa geom=c
 heck
 ----------------------------------------------------------------------

 ---------------------------------------
 CID_137442332_JID_2366_Energie_neutraal
 ---------------------------------------
 Structure from the checkpoint file:  "JID_2366.chk"
 Charge =  0 Multiplicity = 1

 SCF Done:  E(RB3LYP) =  -1276.30882865     A.U. after   15 cycles
 Normal termination of Gaussian 16 at Wed Dec  9 17:25:10 2020.

 ----------------------------------------------------------------------
 # B3LYP/6-311++G(d,p) empiricaldispersion=gd3bj scf=xqc pop=npa geom=c
 heck
 ----------------------------------------------------------------------

 -------------------------------------
 CID_137442332_JID_2366_Energie_kation
 -------------------------------------
 Structure from the checkpoint file:  "JID_2366.chk"
 Charge =  1 Multiplicity = 2

 SCF Done:  E(UB3LYP) =  -1276.02082544     A.U. after   21 cycles
 Normal termination of Gaussian 16 at Wed Dec  9 17:29:40 2020.
 Gaussian 16:  ES64L-G16RevA.03 25-Dec-2016

 ----------------------------------------------------------------------
 # B3LYP/6-311++G(d,p) empiricaldispersion=gd3bj scf=xqc pop=npa geom=c
 heck
 ----------------------------------------------------------------------

 ------------------------------------
 CID_137442332_JID_2366_Energie_anion
 ------------------------------------
 Structure from the checkpoint file:  "JID_2366.chk"
 Charge = -1 Multiplicity = 2

                         Standard orientation:
 ---------------------------------------------------------------------
 Center     Atomic      Atomic             Coordinates (Angstroms)
 Number     Number       Type             X           Y           Z
 ---------------------------------------------------------------------
      1          6           0       -3.115165    1.289423    0.440793
      2          6           0       -1.872533    1.028131   -0.416970
      3          6           0       -1.143791    2.340448   -0.734255
      4          6           0       -0.921063    0.057790    0.302175
      5          7           0        0.314466   -0.166763   -0.473899
      6          6           0        0.257615   -1.396844   -1.193352
      7          6           0       -0.710711   -2.234826   -0.811638
      8         16           0       -1.694982   -1.633563    0.525298
      9         16           0        1.816793    0.135586    0.348926
     10          8           0        1.504149    0.909489    1.554350
     11          8           0        2.604847   -1.096781    0.405751
     12          6           0        2.610577    1.239705   -0.828381
     13          1           0       -2.837853    1.761855    1.391863
     14          1           0       -3.656166    0.364346    0.662040
     15          1           0       -3.802865    1.964784   -0.078711
     16          1           0       -2.180230    0.555003   -1.358723
     17          1           0       -0.735177    2.791660    0.178505
     18          1           0       -0.320307    2.174596   -1.433796
     19          1           0       -1.834428    3.060618   -1.185964
     20          1           0       -0.658696    0.450666    1.285009
     21          1           0        0.984755   -1.572063   -1.974974
     22          1           0       -0.918009   -3.202471   -1.249104
     23          1           0        2.713915    0.721154   -1.783089
     24          1           0        1.999104    2.135814   -0.932834
     25          1           0        3.594190    1.484395   -0.421568
 ---------------------------------------------------------------------

 SCF Done:  E(UB3LYP) =  -1276.29880390     A.U. after   33 cycles
 SCF Done:  E(UB3LYP) =  -1276.29880390     a.u. after    1 cycles

 The electronic state is 2-A.
 Alpha  occ. eigenvalues --  -88.96410 -88.76068 -19.02643 -19.02325 -14.26187
 Alpha  occ. eigenvalues --  -10.15043 -10.11404 -10.10511 -10.10406 -10.08814
 Alpha  occ. eigenvalues --  -10.07064 -10.06129  -8.02697  -7.84708  -5.98989
 Alpha  occ. eigenvalues --   -5.98933  -5.98728  -5.81066  -5.80734  -5.80111
 Alpha  occ. eigenvalues --   -1.02439  -0.91750  -0.86735  -0.72432  -0.70941
 Alpha  occ. eigenvalues --   -0.66870  -0.63951  -0.59466  -0.56290  -0.51494
 Alpha  occ. eigenvalues --   -0.49025  -0.46277  -0.44492  -0.40309  -0.38212
 Alpha  occ. eigenvalues --   -0.37897  -0.36699  -0.35975  -0.34188  -0.33142
 Alpha  occ. eigenvalues --   -0.32963  -0.30858  -0.29712  -0.28783  -0.27716
 Alpha  occ. eigenvalues --   -0.26963  -0.25682  -0.25275  -0.24563  -0.23239
 Alpha  occ. eigenvalues --   -0.22278  -0.21602  -0.21134  -0.18421  -0.11311
 Alpha  occ. eigenvalues --    0.04329
 Alpha virt. eigenvalues --    0.06582   0.06970   0.07856   0.08562   0.08822
 Alpha virt. eigenvalues --    0.09529   0.10261   0.10434   0.11452   0.11545
 Alpha virt. eigenvalues --    0.12078   0.12672   0.13209   0.13753   0.14257

  Beta  occ. eigenvalues --  -88.96393 -88.76066 -19.02622 -19.02308 -14.26164
  Beta  occ. eigenvalues --  -10.15040 -10.11380 -10.10460 -10.10318 -10.08804
  Beta  occ. eigenvalues --  -10.07046 -10.06096  -8.02675  -7.84705  -5.98969
  Beta  occ. eigenvalues --   -5.98919  -5.98712  -5.81066  -5.80733  -5.80105
  Beta  occ. eigenvalues --   -1.02376  -0.91691  -0.86686  -0.72394  -0.70872
  Beta  occ. eigenvalues --   -0.66767  -0.63907  -0.59413  -0.56211  -0.51418
  Beta  occ. eigenvalues --   -0.48965  -0.46219  -0.44431  -0.40255  -0.38166
  Beta  occ. eigenvalues --   -0.37847  -0.36652  -0.35932  -0.34127  -0.33074
  Beta  occ. eigenvalues --   -0.32897  -0.30825  -0.29686  -0.28750  -0.27674
  Beta  occ. eigenvalues --   -0.26903  -0.25640  -0.25236  -0.24528  -0.23184
  Beta  occ. eigenvalues --   -0.22243  -0.21555  -0.21090  -0.18369  -0.11230
  Beta virt. eigenvalues --    0.06694   0.07117   0.07927   0.08177   0.08963
  Beta virt. eigenvalues --    0.09635   0.09847   0.10691   0.11027   0.11729
  Beta virt. eigenvalues --    0.11821   0.12563   0.13089   0.13653   0.14069

 Mulliken charges and spin densities:
               1          2
     1  C    0.219934  -0.927245
     2  C   -1.250100   1.761435
     3  C    0.625184  -1.253931
     4  C    0.364293  -1.141995
     5  N    0.037566   0.234202
     6  C    0.047505  -0.409574
     7  C    0.172591  -0.330629
     8  S    0.364656  -0.449936
     9  S   -0.278489   0.496595
    10  O   -0.192014   0.013905
    11  O   -0.146063   0.038415
    12  C    1.435870  -1.924678
    13  H   -0.028324   0.165877
    14  H    0.016354   0.101710
    15  H   -0.054415   0.199004
    16  H   -0.113193   0.282367
    17  H    0.061628   0.100290
    18  H   -0.220982   0.390782
    19  H   -0.394826   0.564751
    20  H    0.291092   0.055681
    21  H   -0.435315   0.634152
    22  H   -0.161259   0.401883
    23  H   -0.679914   0.909945
    24  H   -0.352045   0.548550
    25  H   -0.329733   0.538445
 Sum of Mulliken charges =  -1.00000   1.00000

 Dipole moment (field-independent basis, Debye):
    X=             -4.1005    Y=             -2.3555    Z=              3.9245  Tot=              6.1453
 Quadrupole moment (field-independent basis, Debye-Ang):
   XX=           -143.1091   YY=           -131.8808   ZZ=           -130.5193
   XY=              1.1765   XZ=              4.8169   YZ=              6.6427

 Summary of Natural Population Analysis:

                                       Natural Population
                Natural  -----------------------------------------------
    Atom  No    Charge         Core      Valence    Rydberg      Total
 -----------------------------------------------------------------------
      C    1   -0.28650      0.99965     2.28189    0.00496     3.28650
      C    2   -0.12558      0.99956     2.11321    0.01280     3.12558
      C    3   -0.28661      0.99964     2.27982    0.00715     3.28661
      C    4   -0.05110      0.99952     2.03389    0.01769     3.05110
      N    5   -0.37132      0.99968     2.85192    0.01972     3.87132
      C    6   -0.01461      0.99945     1.99935    0.01581     3.01461
      C    7   -0.17660      0.99947     2.16703    0.01009     3.17660
      S    8    0.10568      4.99957     2.87702    0.01773     7.89432
      S    9    1.09135      4.99928     1.81283    0.09654     6.90865
      O   10   -0.46109      0.99991     3.45561    0.00558     4.46109
      O   11   -0.45303      0.99990     3.44756    0.00557     4.45303
      C   12   -0.38419      0.99961     2.37423    0.01035     3.38419
      H   13    0.09600      0.00000     0.40306    0.00094     0.40400
      H   14    0.10353      0.00000     0.39527    0.00121     0.39647
      H   15    0.10226      0.00000     0.39686    0.00088     0.39774
      H   16    0.10038      0.00000     0.39766    0.00195     0.39962
      H   17    0.09874      0.00000     0.39999    0.00126     0.40126
      H   18    0.10709      0.00000     0.39088    0.00203     0.39291
      H   19    0.10136      0.00000     0.39756    0.00108     0.39864
      H   20    0.11969      0.00000     0.37865    0.00166     0.38031
      H   21    0.11312      0.00000     0.38478    0.00209     0.38688
      H   22    0.11173      0.00000     0.38727    0.00100     0.38827
      H   23    0.12185      0.00000     0.37323    0.00492     0.37815
      H   24    0.11959      0.00000     0.37818    0.00223     0.38041
      H   25    0.11826      0.00000     0.38027    0.00146     0.38174
 =======================================================================
   * Total *   -0.00000     19.99524    34.75805    0.24671    55.00000

 Normal termination of Gaussian 16 at Wed Dec  9 17:36:52 2020.
