 Gaussian 16, Revision A.03,

 -----------------------------------------------------------
 # opt freq B3LYP/6-31G(d) empiricaldispersion=gd3bj scf=xqc
 -----------------------------------------------------------

 -------------------------------
 CID_154283297_JID_6211_neutraal
 -------------------------------
 Symbolic Z-matrix:
 Charge =  0 Multiplicity = 1

 SCF Done:  E(RB3LYP) =  -709.690183785     A.U. after   15 cycles
 SCF Done:  E(RB3LYP) =  -709.695912387     A.U. after   13 cycles
 SCF Done:  E(RB3LYP) =  -709.696885913     A.U. after   13 cycles
 SCF Done:  E(RB3LYP) =  -709.697077713     A.U. after   13 cycles
 SCF Done:  E(RB3LYP) =  -709.697515261     A.U. after   12 cycles
 SCF Done:  E(RB3LYP) =  -709.697499891     A.U. after   13 cycles
 SCF Done:  E(RB3LYP) =  -709.697675161     A.U. after   12 cycles
 SCF Done:  E(RB3LYP) =  -709.697715422     A.U. after   10 cycles
 SCF Done:  E(RB3LYP) =  -709.697753684     A.U. after   11 cycles
 SCF Done:  E(RB3LYP) =  -709.697758886     A.U. after   10 cycles
 SCF Done:  E(RB3LYP) =  -709.697762758     A.U. after    9 cycles
 SCF Done:  E(RB3LYP) =  -709.697764227     A.U. after    9 cycles
 SCF Done:  E(RB3LYP) =  -709.697764441     A.U. after    8 cycles
 SCF Done:  E(RB3LYP) =  -709.697764984     A.U. after    9 cycles
 SCF Done:  E(RB3LYP) =  -709.697765259     A.U. after    8 cycles
 SCF Done:  E(RB3LYP) =  -709.697765398     A.U. after    7 cycles
 Optimization completed.
    -- Stationary point found.
 Normal termination of Gaussian 16 at Thu Dec 10 21:21:27 2020.

 --------------------------------------------------------------------
 #N Geom=AllCheck Guess=TCheck SCRF=Check GenChk RB3LYP/6-31G(d) Freq
 --------------------------------------------------------------------

 Structure from the checkpoint file:  "JID_6211.chk"
 -------------------------------
 CID_154283297_JID_6211_neutraal
 -------------------------------
 Charge =  0 Multiplicity = 1

 SCF Done:  E(RB3LYP) =  -709.697765398     A.U. after    1 cycles

  Exact polarizability: 162.336   5.130 111.802   3.507  -5.641 136.866
 Approx polarizability: 237.593  11.025 152.946  14.538 -13.117 240.927

                      1                      2                      3
                      A                      A                      A
 Frequencies --     41.0337                45.0135                63.9630
 Red. masses --      4.9361                 5.0401                 3.4102
 Frc consts  --      0.0049                 0.0060                 0.0082
 IR Inten    --      0.0305                 0.2525                 0.0471

                      4                      5                      6
                      A                      A                      A
 Frequencies --     82.1808               105.9706               122.9435
 Red. masses --      2.9839                 4.7642                 3.3068
 Frc consts  --      0.0119                 0.0315                 0.0294
 IR Inten    --      4.7824                 3.3157                 0.3428

                      7                      8                      9
                      A                      A                      A
 Frequencies --    150.4067               215.8224               242.8801
 Red. masses --      3.2506                 3.6242                 3.1285
 Frc consts  --      0.0433                 0.0995                 0.1087
 IR Inten    --      1.0750                 1.2370                 0.5779

                     10                     11                     12
                      A                      A                      A
 Frequencies --    278.4171               294.6562               346.5698
 Red. masses --      3.6994                 1.3373                 5.0804
 Frc consts  --      0.1690                 0.0684                 0.3595
 IR Inten    --      1.4643                 0.0549                 3.1084

                     13                     14                     15
                      A                      A                      A
 Frequencies --    360.4048               385.7761               416.0931
 Red. masses --      2.6044                 3.7524                 2.9805
 Frc consts  --      0.1993                 0.3290                 0.3040
 IR Inten    --      0.8891                 5.2768                 0.5349

                     16                     17                     18
                      A                      A                      A
 Frequencies --    436.6712               457.6112               499.2833
 Red. masses --      4.2582                 1.5512                 2.2262
 Frc consts  --      0.4784                 0.1914                 0.3270
 IR Inten    --      8.6919                14.2313                39.9093

                     19                     20                     21
                      A                      A                      A
 Frequencies --    515.4111               561.5286               601.9060
 Red. masses --      2.7141                 2.5574                 3.9730
 Frc consts  --      0.4248                 0.4751                 0.8481
 IR Inten    --     20.8147                12.5387                28.8065

                     22                     23                     24
                      A                      A                      A
 Frequencies --    612.3757               622.4019               636.0805
 Red. masses --      3.5513                 3.5346                 6.2210
 Frc consts  --      0.7846                 0.8067                 1.4830
 IR Inten    --     18.3209                14.8979                 0.4455

                     25                     26                     27
                      A                      A                      A
 Frequencies --    670.1155               716.1821               733.3984
 Red. masses --      5.0062                 1.8302                 2.9098
 Frc consts  --      1.3245                 0.5531                 0.9221
 IR Inten    --      6.8207                29.8903                 6.4265

                     28                     29                     30
                      A                      A                      A
 Frequencies --    772.5518               798.7803               854.8593
 Red. masses --      1.7709                 1.5942                 2.5143
 Frc consts  --      0.6227                 0.5993                 1.0826
 IR Inten    --     24.9424                 7.4630                 8.1896

                     31                     32                     33
                      A                      A                      A
 Frequencies --    862.1250               887.3933               901.7561
 Red. masses --      1.2796                 2.3340                 2.4758
 Frc consts  --      0.5604                 1.0829                 1.1861
 IR Inten    --      0.5361                 1.2004                 2.0843

                     34                     35                     36
                      A                      A                      A
 Frequencies --    924.0697               938.7303               963.6513
 Red. masses --      1.6903                 1.6762                 2.9955
 Frc consts  --      0.8504                 0.8703                 1.6389
 IR Inten    --      0.3288                 2.6179                 1.4628

                     37                     38                     39
                      A                      A                      A
 Frequencies --    973.9756               998.9435              1022.2427
 Red. masses --      1.3485                 1.2638                 5.7883
 Frc consts  --      0.7537                 0.7430                 3.5638
 IR Inten    --      0.0593                 0.0914                 1.5263

                     40                     41                     42
                      A                      A                      A
 Frequencies --   1027.2347              1062.3625              1064.4675
 Red. masses --      3.2185                 2.2297                 1.5966
 Frc consts  --      2.0010                 1.4827                 1.0659
 IR Inten    --      0.3505                 3.9761                 4.2279

                     43                     44                     45
                      A                      A                      A
 Frequencies --   1101.9438              1115.7252              1134.1386
 Red. masses --      2.4798                 1.6945                 1.8451
 Frc consts  --      1.7742                 1.2428                 1.3983
 IR Inten    --      0.7513                 4.5386                 4.5400

                     46                     47                     48
                      A                      A                      A
 Frequencies --   1152.1191              1167.4671              1190.8500
 Red. masses --      1.6611                 2.7584                 2.7915
 Frc consts  --      1.2991                 2.2151                 2.3324
 IR Inten    --     13.9997                22.0267                43.0911

                     49                     50                     51
                      A                      A                      A
 Frequencies --   1195.6528              1217.5261              1224.2170
 Red. masses --      1.1004                 1.3831                 1.9542
 Frc consts  --      0.9269                 1.2080                 1.7256
 IR Inten    --      0.1378                 9.9441                 1.3135

                     52                     53                     54
                      A                      A                      A
 Frequencies --   1257.9351              1302.0795              1316.5517
 Red. masses --      1.6522                 1.5951                 1.3655
 Frc consts  --      1.5403                 1.5934                 1.3944
 IR Inten    --      1.8119                58.8146                32.0277

                     55                     56                     57
                      A                      A                      A
 Frequencies --   1339.0756              1357.6988              1370.3791
 Red. masses --      3.0362                 2.6017                 1.9547
 Frc consts  --      3.2077                 2.8256                 2.1628
 IR Inten    --     91.1167                43.7404                 0.4981

                     58                     59                     60
                      A                      A                      A
 Frequencies --   1393.5030              1404.5772              1425.2447
 Red. masses --      1.3297                 1.4012                 1.9023
 Frc consts  --      1.5213                 1.6286                 2.2767
 IR Inten    --      4.4958                 7.2237                62.2624

                     61                     62                     63
                      A                      A                      A
 Frequencies --   1442.2419              1447.9982              1496.6325
 Red. masses --      1.3114                 1.1033                 2.2433
 Frc consts  --      1.6072                 1.3629                 2.9605
 IR Inten    --     14.8172                 8.4971                10.6907

                     64                     65                     66
                      A                      A                      A
 Frequencies --   1512.2133              1521.4672              1533.8589
 Red. masses --      1.0849                 1.0752                 1.0537
 Frc consts  --      1.4617                 1.4664                 1.4607
 IR Inten    --      4.7747                 2.7696                 6.1062

                     67                     68                     69
                      A                      A                      A
 Frequencies --   1544.6750              1551.5566              1644.9341
 Red. masses --      2.1277                 1.0529                 5.5785
 Frc consts  --      2.9911                 1.4934                 8.8933
 IR Inten    --     12.0361                 5.4652                 0.6248

                     70                     71                     72
                      A                      A                      A
 Frequencies --   1663.3124              1831.7199              1868.0186
 Red. masses --      5.4874                10.9413                12.1303
 Frc consts  --      8.9447                21.6289                24.9393
 IR Inten    --      3.8111               566.0307               130.7769

                     73                     74                     75
                      A                      A                      A
 Frequencies --   3041.4696              3050.1720              3055.1677
 Red. masses --      1.0385                 1.0638                 1.0646
 Frc consts  --      5.6601                 5.8311                 5.8546
 IR Inten    --     15.2363                23.5801                23.3617

                     76                     77                     78
                      A                      A                      A
 Frequencies --   3073.8249              3086.3428              3106.1424
 Red. masses --      1.0671                 1.0977                 1.0996
 Frc consts  --      5.9402                 6.1604                 6.2504
 IR Inten    --      0.6140                 4.0247                10.0704

                     79                     80                     81
                      A                      A                      A
 Frequencies --   3112.7963              3117.2686              3140.4300
 Red. masses --      1.1027                 1.0999                 1.0960
 Frc consts  --      6.2954                 6.2975                 6.3685
 IR Inten    --     63.7852                42.9550                 0.5705

                     82                     83                     84
                      A                      A                      A
 Frequencies --   3186.8307              3196.0447              3208.2297
 Red. masses --      1.0852                 1.0889                 1.0926
 Frc consts  --      6.4937                 6.5536                 6.6259
 IR Inten    --      0.2923                11.5333                25.8284

                     85                     86                     87
                      A                      A                      A
 Frequencies --   3217.0678              3220.6024              3637.8353
 Red. masses --      1.0926                 1.0953                 1.0775
 Frc consts  --      6.6622                 6.6934                 8.4013
 IR Inten    --     14.0908                 4.2290                34.2467

 - Thermochemistry -
 -------------------
 Temperature   298.150 Kelvin.  Pressure   1.00000 Atm.
 Atom     1 has atomic number  6 and mass  12.00000

 Molecular mass:   217.11028 amu.
 Principal axes and moments of inertia in atomic units:
                           1         2         3
     Eigenvalues --  2657.804904087.442464468.06516
           X            0.99989   0.01111  -0.01011
           Y           -0.01104   0.99991   0.00702
           Z            0.01019  -0.00691   0.99992
 This molecule is an asymmetric top.
 Rotational symmetry number  1.
 Warning -- assumption of classical behavior for rotation
           may cause significant error
 Rotational temperatures (Kelvin)      0.03259     0.02119     0.01939
 Rotational constants (GHZ):           0.67903     0.44153     0.40392
 Zero-point vibrational energy     678544.5 (Joules/Mol)
                                  162.17602 (Kcal/Mol)
 Warning -- explicit consideration of  22 degrees of freedom as
           vibrations may cause significant error
 Vibrational temperatures:     59.04    64.76    92.03   118.24   152.47
          (Kelvin)            176.89   216.40   310.52   349.45   400.58
                              423.94   498.64   518.54   555.05   598.67
                              628.27   658.40   718.36   741.56   807.91
                              866.01   881.07   895.50   915.18   964.15
                             1030.43  1055.20  1111.53  1149.27  1229.95
                             1240.41  1276.76  1297.43  1329.53  1350.62
                             1386.48  1401.33  1437.26  1470.78  1477.96
                             1528.50  1531.53  1585.45  1605.28  1631.77
                             1657.64  1679.72  1713.37  1720.28  1751.75
                             1761.38  1809.89  1873.40  1894.22  1926.63
                             1953.43  1971.67  2004.94  2020.87  2050.61
                             2075.06  2083.35  2153.32  2175.74  2189.05
                             2206.88  2222.44  2232.34  2366.69  2393.14
                             2635.44  2687.66  4376.00  4388.52  4395.70
                             4422.55  4440.56  4469.05  4478.62  4485.05
                             4518.38  4585.14  4598.40  4615.93  4628.64
                             4633.73  5234.03

 Zero-point correction=                           0.258444 (Hartree/Particle)
 Thermal correction to Energy=                    0.272981
 Thermal correction to Enthalpy=                  0.273925
 Thermal correction to Gibbs Free Energy=         0.216248
 Sum of electronic and zero-point Energies=           -709.439321
 Sum of electronic and thermal Energies=              -709.424785
 Sum of electronic and thermal Enthalpies=            -709.423840
 Sum of electronic and thermal Free Energies=         -709.481518

                     E (Thermal)             CV                S
                      KCal/Mol        Cal/Mol-Kelvin    Cal/Mol-Kelvin
 Total                  171.298             56.289            121.392
 Electronic               0.000              0.000              0.000
 Translational            0.889              2.981             42.029
 Rotational               0.889              2.981             32.251
 Vibrational            169.521             50.327             47.112
 Vibration     1          0.594              1.981              5.209
 Vibration     2          0.595              1.979              5.025
 Vibration     3          0.597              1.972              4.331
 Vibration     4          0.600              1.961              3.838
 Vibration     5          0.605              1.944              3.341
 Vibration     6          0.610              1.930              3.054
 Vibration     7          0.618              1.902              2.667
 Vibration     8          0.645              1.817              1.994
 Vibration     9          0.659              1.775              1.782
 Vibration    10          0.679              1.713              1.543
 Vibration    11          0.689              1.684              1.447
 Vibration    12          0.725              1.582              1.182
 Vibration    13          0.735              1.554              1.120
 Vibration    14          0.754              1.501              1.016
 Vibration    15          0.779              1.435              0.905
 Vibration    16          0.797              1.390              0.837
 Vibration    17          0.816              1.344              0.773
 Vibration    18          0.855              1.252              0.660
 Vibration    19          0.870              1.216              0.621
 Vibration    20          0.917              1.115              0.521
 Vibration    21          0.960              1.028              0.446
 Vibration    22          0.972              1.006              0.429

 Optimization completed.
    -- Stationary point found.
 Normal termination of Gaussian 16 at Thu Dec 10 21:34:03 2020.

 ----------------------------------------------------------------------
 # B3LYP/6-311++G(d,p) empiricaldispersion=gd3bj scf=xqc pop=npa geom=c
 heck
 ----------------------------------------------------------------------

 ---------------------------------------
 CID_154283297_JID_6211_Energie_neutraal
 ---------------------------------------
 Structure from the checkpoint file:  "JID_6211.chk"
 Charge =  0 Multiplicity = 1

 SCF Done:  E(RB3LYP) =  -709.896833963     A.U. after   16 cycles
 Normal termination of Gaussian 16 at Thu Dec 10 21:40:12 2020.

 ----------------------------------------------------------------------
 # B3LYP/6-311++G(d,p) empiricaldispersion=gd3bj scf=xqc pop=npa geom=c
 heck
 ----------------------------------------------------------------------

 -------------------------------------
 CID_154283297_JID_6211_Energie_kation
 -------------------------------------
 Structure from the checkpoint file:  "JID_6211.chk"
 Charge =  1 Multiplicity = 2

 SCF Done:  E(UB3LYP) =  -709.579569135     A.U. after   27 cycles
 Normal termination of Gaussian 16 at Thu Dec 10 21:54:42 2020.
 Gaussian 16:  ES64L-G16RevA.03 25-Dec-2016

 ----------------------------------------------------------------------
 # B3LYP/6-311++G(d,p) empiricaldispersion=gd3bj scf=xqc pop=npa geom=c
 heck
 ----------------------------------------------------------------------

 ------------------------------------
 CID_154283297_JID_6211_Energie_anion
 ------------------------------------
 Structure from the checkpoint file:  "JID_6211.chk"
 Charge = -1 Multiplicity = 2

                         Standard orientation:
 ---------------------------------------------------------------------
 Center     Atomic      Atomic             Coordinates (Angstroms)
 Number     Number       Type             X           Y           Z
 ---------------------------------------------------------------------
      1          6           0        0.003631    3.093726    0.933304
      2          6           0       -0.331180    2.711738   -0.511888
      3          6           0        0.550173    1.611780   -1.118488
      4          6           0        0.562611    0.258046   -0.371157
      5          6           0        1.216656   -0.835043   -1.264187
      6          8           0        0.972947   -0.986492   -2.437742
      7          6           0        2.192718   -1.625194   -0.415082
      8          6           0        2.395527   -0.764609    0.829155
      9          8           0        3.214118   -0.927283    1.714556
     10          7           0        1.477346    0.251881    0.765971
     11          6           0       -0.845701   -0.229433   -0.010734
     12          6           0       -1.814489   -0.348928   -1.017622
     13          6           0       -3.100709   -0.786666   -0.711445
     14          6           0       -3.438549   -1.114683    0.603542
     15          6           0       -2.476088   -1.011513    1.606107
     16          6           0       -1.184947   -0.577190    1.299311
     17          1           0       -0.256276    2.288176    1.630137
     18          1           0       -0.564623    3.976432    1.244735
     19          1           0        1.069118    3.328048    1.051974
     20          1           0       -1.382046    2.406055   -0.568027
     21          1           0       -0.233446    3.598475   -1.150746
     22          1           0        0.225835    1.413633   -2.145158
     23          1           0        1.590775    1.954450   -1.180032
     24          1           0        3.131555   -1.830093   -0.935770
     25          1           0        1.752023   -2.590407   -0.135212
     26          1           0        1.446956    0.945692    1.499656
     27          1           0       -1.552342   -0.118278   -2.044777
     28          1           0       -3.839761   -0.875569   -1.502600
     29          1           0       -4.442503   -1.454128    0.841379
     30          1           0       -2.724257   -1.272914    2.630900
     31          1           0       -0.436872   -0.514731    2.082331
 ---------------------------------------------------------------------

 SCF Done:  E(UB3LYP) =  -709.898247602     A.U. after   32 cycles

 The electronic state is 2-A.
 Alpha  occ. eigenvalues --  -18.97442 -18.95263 -14.21617 -10.15459 -10.09734
 Alpha  occ. eigenvalues --  -10.08856 -10.05912 -10.05801 -10.05409 -10.05389
 Alpha  occ. eigenvalues --  -10.05337 -10.05115 -10.05062 -10.04886 -10.04561
 Alpha  occ. eigenvalues --  -10.04485  -0.92467  -0.89459  -0.82128  -0.73407
 Alpha  occ. eigenvalues --   -0.68608  -0.64477  -0.63690  -0.62473  -0.60002
 Alpha  occ. eigenvalues --   -0.54590  -0.48893  -0.48492  -0.47326  -0.46066
 Alpha  occ. eigenvalues --   -0.41456  -0.40503  -0.36897  -0.35259  -0.34511
 Alpha  occ. eigenvalues --   -0.34101  -0.33265  -0.32712  -0.31316  -0.30828
 Alpha  occ. eigenvalues --   -0.30318  -0.29669  -0.28362  -0.27817  -0.27656
 Alpha  occ. eigenvalues --   -0.26529  -0.24828  -0.23980  -0.23532  -0.22633
 Alpha  occ. eigenvalues --   -0.22183  -0.21858  -0.20808  -0.15313  -0.14188
 Alpha  occ. eigenvalues --   -0.13722  -0.13300  -0.10020   0.04994
 Alpha virt. eigenvalues --    0.07056   0.08089   0.08907   0.09698   0.10080
 Alpha virt. eigenvalues --    0.10386   0.10511   0.10857   0.11197   0.12124
 Alpha virt. eigenvalues --    0.12630   0.13176   0.13398   0.13504   0.14347

  Beta  occ. eigenvalues --  -18.97449 -18.94840 -14.21585 -10.15445 -10.09789
  Beta  occ. eigenvalues --  -10.08388 -10.05897 -10.05792 -10.05436 -10.05392
  Beta  occ. eigenvalues --  -10.05387 -10.05003 -10.04951 -10.04851 -10.04425
  Beta  occ. eigenvalues --  -10.04376  -0.92450  -0.88652  -0.82014  -0.73219
  Beta  occ. eigenvalues --   -0.68521  -0.64206  -0.63437  -0.62344  -0.59825
  Beta  occ. eigenvalues --   -0.54425  -0.48834  -0.48282  -0.47148  -0.45880
  Beta  occ. eigenvalues --   -0.41033  -0.40157  -0.36803  -0.34870  -0.34398
  Beta  occ. eigenvalues --   -0.33980  -0.33108  -0.32562  -0.31216  -0.30722
  Beta  occ. eigenvalues --   -0.30257  -0.29521  -0.27957  -0.27595  -0.27504
  Beta  occ. eigenvalues --   -0.25899  -0.24482  -0.23889  -0.23333  -0.22341
  Beta  occ. eigenvalues --   -0.22105  -0.21522  -0.19382  -0.15178  -0.14060
  Beta  occ. eigenvalues --   -0.13340  -0.12554  -0.09616
  Beta virt. eigenvalues --    0.07267   0.08047   0.08908   0.09590   0.10005
  Beta virt. eigenvalues --    0.10290   0.10471   0.10648   0.10981   0.11929
  Beta virt. eigenvalues --    0.12574   0.12943   0.13148   0.13392   0.14287

 Mulliken charges and spin densities:
               1          2
     1  C   -0.090200  -0.494555
     2  C   -0.438570   0.041719
     3  C   -0.386917   0.045316
     4  C    1.242550  -0.170676
     5  C   -0.332176   0.214078
     6  O   -0.368872   0.153363
     7  C   -0.278410  -0.040662
     8  C    0.050180   0.025519
     9  O   -0.377641  -0.000377
    10  N   -0.185494   0.001127
    11  C    0.752852   0.001050
    12  C   -0.334027   0.203054
    13  C   -0.413258  -0.106403
    14  C   -0.344444   0.088998
    15  C   -0.524637  -0.019666
    16  C   -0.522250   0.156066
    17  H    0.074323   0.059820
    18  H   -0.246787   0.392309
    19  H    0.127415  -0.005517
    20  H    0.154665  -0.007470
    21  H   -0.077652   0.220713
    22  H    0.112647   0.050590
    23  H    0.172653  -0.009157
    24  H    0.175404   0.012008
    25  H    0.097540   0.121576
    26  H    0.311629  -0.011608
    27  H    0.189335  -0.005263
    28  H    0.112745   0.029758
    29  H    0.090137   0.009363
    30  H    0.109135   0.031900
    31  H    0.148125   0.013025
 Sum of Mulliken charges =  -1.00000   1.00000

 Dipole moment (field-independent basis, Debye):
    X=             -1.8107    Y=              1.3478    Z=              0.8109  Tot=              2.3985
 Quadrupole moment (field-independent basis, Debye-Ang):
   XX=           -132.7327   YY=           -125.5802   ZZ=           -124.0498
   XY=              8.7659   XZ=             -3.9818   YZ=             -3.1120

 Summary of Natural Population Analysis:

                                       Natural Population
                Natural  -----------------------------------------------
    Atom  No    Charge         Core      Valence    Rydberg      Total
 -----------------------------------------------------------------------
      C    1   -0.29140      0.99967     2.28633    0.00540     3.29140
      C    2   -0.19516      0.99964     2.18683    0.00870     3.19516
      C    3   -0.18021      0.99959     2.16998    0.01064     3.18021
      C    4    0.02074      0.99949     1.96559    0.01418     2.97926
      C    5    0.35965      0.99963     1.61793    0.02279     2.64035
      O    6   -0.25772      0.99987     3.25127    0.00658     4.25772
      C    7   -0.28204      0.99955     2.27352    0.00897     3.28204
      C    8    0.35105      0.99969     1.62773    0.02153     2.64895
      O    9   -0.33224      0.99987     3.32599    0.00638     4.33224
      N   10   -0.32041      0.99965     2.81063    0.01013     3.82041
      C   11    0.00563      0.99947     1.98359    0.01131     2.99437
      C   12   -0.08975      0.99951     2.08000    0.01024     3.08975
      C   13   -0.10852      0.99957     2.10042    0.00852     3.10852
      C   14   -0.08191      0.99957     2.07267    0.00967     3.08191
      C   15   -0.10764      0.99957     2.09763    0.01043     3.10764
      C   16   -0.10138      0.99951     2.09244    0.00944     3.10138
      H   17    0.09757      0.00000     0.40122    0.00120     0.40243
      H   18    0.09878      0.00000     0.40036    0.00086     0.40122
      H   19    0.09202      0.00000     0.40709    0.00089     0.40798
      H   20    0.10298      0.00000     0.39584    0.00118     0.39702
      H   21    0.09248      0.00000     0.40657    0.00095     0.40752
      H   22    0.11084      0.00000     0.38810    0.00107     0.38916
      H   23    0.09601      0.00000     0.40298    0.00102     0.40399
      H   24    0.11649      0.00000     0.38263    0.00088     0.38351
      H   25    0.12457      0.00000     0.37403    0.00139     0.37543
      H   26    0.19430      0.00000     0.30327    0.00242     0.30570
      H   27    0.10705      0.00000     0.39161    0.00134     0.39295
      H   28    0.09356      0.00000     0.40542    0.00102     0.40644
      H   29    0.09133      0.00000     0.40782    0.00085     0.40867
      H   30    0.09307      0.00000     0.40586    0.00107     0.40693
      H   31    0.10026      0.00000     0.39861    0.00113     0.39974
 =======================================================================
   * Total *    0.00000     15.99384    41.81397    0.19220    58.00000

 Normal termination of Gaussian 16 at Thu Dec 10 22:11:55 2020.
