 Gaussian 16, Revision A.03,

 -----------------------------------------------------------
 # opt freq B3LYP/6-31G(d) empiricaldispersion=gd3bj scf=xqc
 -----------------------------------------------------------

 -------------------------------
 CID_148233805_JID_2102_neutraal
 -------------------------------
 Symbolic Z-matrix:
 Charge =  0 Multiplicity = 1

 SCF Done:  E(RB3LYP) =  -482.971053592     A.U. after   14 cycles
 SCF Done:  E(RB3LYP) =  -482.973097439     A.U. after   11 cycles
 SCF Done:  E(RB3LYP) =  -482.973324926     A.U. after   11 cycles
 SCF Done:  E(RB3LYP) =  -482.973437595     A.U. after   11 cycles
 SCF Done:  E(RB3LYP) =  -482.973477321     A.U. after   11 cycles
 SCF Done:  E(RB3LYP) =  -482.973494047     A.U. after   10 cycles
 SCF Done:  E(RB3LYP) =  -482.973497351     A.U. after   10 cycles
 SCF Done:  E(RB3LYP) =  -482.973498734     A.U. after    8 cycles
 SCF Done:  E(RB3LYP) =  -482.973499100     A.U. after    8 cycles
 SCF Done:  E(RB3LYP) =  -482.973499346     A.U. after    8 cycles
 SCF Done:  E(RB3LYP) =  -482.973499527     A.U. after    8 cycles
 SCF Done:  E(RB3LYP) =  -482.973499614     A.U. after    7 cycles
 SCF Done:  E(RB3LYP) =  -482.973499666     A.U. after    7 cycles
 Optimization completed.
    -- Stationary point found.
 Normal termination of Gaussian 16 at Wed Dec  9 16:49:43 2020.

 --------------------------------------------------------------------
 #N Geom=AllCheck Guess=TCheck SCRF=Check GenChk RB3LYP/6-31G(d) Freq
 --------------------------------------------------------------------

 Structure from the checkpoint file:  "JID_2102.chk"
 -------------------------------
 CID_148233805_JID_2102_neutraal
 -------------------------------
 Charge =  0 Multiplicity = 1

 SCF Done:  E(RB3LYP) =  -482.973499666     A.U. after    1 cycles

  Exact polarizability: 160.213  -5.599 121.722   7.608  -1.063  75.774
 Approx polarizability: 221.585 -10.851 193.405  19.064  -0.769 115.431

                      1                      2                      3
                      A                      A                      A
 Frequencies --     46.6911                54.8692                77.7609
 Red. masses --      3.2087                 3.1322                 2.4927
 Frc consts  --      0.0041                 0.0056                 0.0089
 IR Inten    --      0.1906                 0.5768                 1.1852

                      4                      5                      6
                      A                      A                      A
 Frequencies --    103.2992               132.4936               144.7417
 Red. masses --      2.5619                 1.2972                 2.6091
 Frc consts  --      0.0161                 0.0134                 0.0322
 IR Inten    --      0.2500                 1.6779                 0.4814

                      7                      8                      9
                      A                      A                      A
 Frequencies --    200.7867               241.9368               278.8300
 Red. masses --      2.0713                 1.3981                 2.5869
 Frc consts  --      0.0492                 0.0482                 0.1185
 IR Inten    --      9.9577                32.1923                14.4672

                     10                     11                     12
                      A                      A                      A
 Frequencies --    311.4885               368.7529               383.8111
 Red. masses --      2.8907                 2.9709                 2.6886
 Frc consts  --      0.1652                 0.2380                 0.2334
 IR Inten    --      1.5050                 5.3653                 2.8387

                     13                     14                     15
                      A                      A                      A
 Frequencies --    420.8449               459.1223               502.2452
 Red. masses --      2.4017                 2.5076                 3.2247
 Frc consts  --      0.2506                 0.3114                 0.4793
 IR Inten    --      0.3791                 0.6934                 0.3884

                     16                     17                     18
                      A                      A                      A
 Frequencies --    515.4414               548.0573               616.1653
 Red. masses --      3.3069                 2.5156                 4.3649
 Frc consts  --      0.5176                 0.4452                 0.9764
 IR Inten    --      0.1133                 3.4618                 6.7035

                     19                     20                     21
                      A                      A                      A
 Frequencies --    632.5252               727.8389               749.6772
 Red. masses --      2.5050                 2.8081                 1.9503
 Frc consts  --      0.5905                 0.8765                 0.6458
 IR Inten    --      8.2099                 2.8691                10.9776

                     22                     23                     24
                      A                      A                      A
 Frequencies --    809.9898               829.7172               868.8625
 Red. masses --      1.8829                 3.5501                 1.3957
 Frc consts  --      0.7278                 1.4400                 0.6208
 IR Inten    --     35.3320                 8.9387               112.3881

                     25                     26                     27
                      A                      A                      A
 Frequencies --    906.5925               914.7447               929.6021
 Red. masses --      2.2265                 1.4470                 1.3795
 Frc consts  --      1.0782                 0.7134                 0.7024
 IR Inten    --     12.2763                 1.6551                15.9388

                     28                     29                     30
                      A                      A                      A
 Frequencies --    935.8895               956.5559               969.9009
 Red. masses --      1.4304                 2.0694                 1.3315
 Frc consts  --      0.7382                 1.1156                 0.7380
 IR Inten    --     22.6827                 2.5266                 1.2430

                     31                     32                     33
                      A                      A                      A
 Frequencies --   1018.2672              1029.3937              1053.5709
 Red. masses --      1.9195                 1.1073                 1.9012
 Frc consts  --      1.1726                 0.6913                 1.2434
 IR Inten    --     25.4432                 7.9851                 2.7030

                     34                     35                     36
                      A                      A                      A
 Frequencies --   1065.0820              1083.1735              1107.9092
 Red. masses --      1.5103                 1.9020                 2.0001
 Frc consts  --      1.0094                 1.3148                 1.4465
 IR Inten    --      3.3263                 8.9046                 2.1828

                     37                     38                     39
                      A                      A                      A
 Frequencies --   1141.2005              1188.3108              1201.2053
 Red. masses --      1.7358                 1.3844                 1.2308
 Frc consts  --      1.3319                 1.1518                 1.0464
 IR Inten    --      1.8195                 3.3988                 0.3036

                     40                     41                     42
                      A                      A                      A
 Frequencies --   1217.0517              1240.4842              1274.9731
 Red. masses --      2.3144                 1.5191                 2.6565
 Frc consts  --      2.0198                 1.3772                 2.5443
 IR Inten    --      0.6367                 2.4317                 1.9327

                     43                     44                     45
                      A                      A                      A
 Frequencies --   1297.2688              1311.7190              1331.1866
 Red. masses --      1.4768                 1.3380                 1.3405
 Frc consts  --      1.4643                 1.3564                 1.3996
 IR Inten    --      0.8804                 4.0557                 1.8893

                     46                     47                     48
                      A                      A                      A
 Frequencies --   1349.0189              1360.6233              1444.4285
 Red. masses --      1.3498                 3.8244                 1.3143
 Frc consts  --      1.4472                 4.1714                 1.6156
 IR Inten    --      1.3009                 0.8524                15.3279

                     49                     50                     51
                      A                      A                      A
 Frequencies --   1446.3377              1473.3842              1502.6518
 Red. masses --      1.3027                 1.2002                 1.7559
 Frc consts  --      1.6055                 1.5352                 2.3360
 IR Inten    --     14.9698                 1.4641                 4.9218

                     52                     53                     54
                      A                      A                      A
 Frequencies --   1508.9289              1516.2052              1522.9126
 Red. masses --      2.0820                 1.3887                 1.0580
 Frc consts  --      2.7930                 1.8809                 1.4457
 IR Inten    --      8.1535                 7.1685                 4.9851

                     55                     56                     57
                      A                      A                      A
 Frequencies --   1536.4027              1564.9799              1645.9683
 Red. masses --      1.2477                 1.0893                 5.8486
 Frc consts  --      1.7352                 1.5718                 9.3356
 IR Inten    --      2.9481                 3.9125                 2.0880

                     58                     59                     60
                      A                      A                      A
 Frequencies --   1659.6026              1691.3345              1731.4537
 Red. masses --      5.6147                 1.0974                 4.4893
 Frc consts  --      9.1114                 1.8495                 7.9295
 IR Inten    --      0.4409                26.5613                10.4708

                     61                     62                     63
                      A                      A                      A
 Frequencies --   2968.3001              3045.3941              3049.9625
 Red. masses --      1.0741                 1.0495                 1.0552
 Frc consts  --      5.5761                 5.7346                 5.7834
 IR Inten    --     77.2614                 9.2848                43.3258

                     64                     65                     66
                      A                      A                      A
 Frequencies --   3076.8342              3089.2835              3092.9572
 Red. masses --      1.0876                 1.1013                 1.0981
 Frc consts  --      6.0664                 6.1924                 6.1892
 IR Inten    --     32.8897                13.1439                16.9171

                     67                     68                     69
                      A                      A                      A
 Frequencies --   3149.1488              3156.3773              3159.0410
 Red. masses --      1.0723                 1.0939                 1.0782
 Frc consts  --      6.2653                 6.4209                 6.3395
 IR Inten    --     26.1273                19.3114                 6.7398

                     70                     71                     72
                      A                      A                      A
 Frequencies --   3177.2128              3187.2966              3205.0400
 Red. masses --      1.0862                 1.0900                 1.0967
 Frc consts  --      6.4601                 6.5242                 6.6375
 IR Inten    --      2.8536                21.7035                29.3593

                     73                     74                     75
                      A                      A                      A
 Frequencies --   3236.0845              3457.9482              3548.6840
 Red. masses --      1.1156                 1.0494                 1.0924
 Frc consts  --      6.8831                 7.3934                 8.1050
 IR Inten    --     20.4312                 4.8450                 2.5991

 - Thermochemistry -
 -------------------
 Temperature   298.150 Kelvin.  Pressure   1.00000 Atm.
 Atom     1 has atomic number  6 and mass  12.00000

 Molecular mass:   161.12045 amu.
 Principal axes and moments of inertia in atomic units:
                           1         2         3
     Eigenvalues --  1062.997033136.653823880.17803
           X            0.99994  -0.01021   0.00426
           Y            0.01021   0.99995   0.00016
           Z           -0.00426  -0.00012   0.99999
 This molecule is an asymmetric top.
 Rotational symmetry number  1.
 Warning -- assumption of classical behavior for rotation
           may cause significant error
 Rotational temperatures (Kelvin)      0.08148     0.02761     0.02232
 Rotational constants (GHZ):           1.69779     0.57537     0.46512
 Zero-point vibrational energy     620585.7 (Joules/Mol)
                                  148.32354 (Kcal/Mol)
 Warning -- explicit consideration of  18 degrees of freedom as
           vibrations may cause significant error
 Vibrational temperatures:     67.18    78.94   111.88   148.62   190.63
          (Kelvin)            208.25   288.89   348.09   401.17   448.16
                              530.55   552.22   605.50   660.57   722.62
                              741.61   788.53   886.52   910.06  1047.20
                             1078.62  1165.39  1193.78  1250.10  1304.38
                             1316.11  1337.49  1346.54  1376.27  1395.47
                             1465.06  1481.07  1515.85  1532.42  1558.45
                             1594.03  1641.93  1709.71  1728.27  1751.07
                             1784.78  1834.40  1866.48  1887.27  1915.28
                             1940.94  1957.63  2078.21  2080.96  2119.87
                             2161.98  2171.01  2181.48  2191.13  2210.54
                             2251.66  2368.18  2387.80  2433.45  2491.18
                             4270.72  4381.64  4388.22  4426.88  4444.79
                             4450.08  4530.92  4541.32  4545.16  4571.30
                             4585.81  4611.34  4656.00  4975.22  5105.76

 Zero-point correction=                           0.236369 (Hartree/Particle)
 Thermal correction to Energy=                    0.248809
 Thermal correction to Enthalpy=                  0.249753
 Thermal correction to Gibbs Free Energy=         0.197202
 Sum of electronic and zero-point Energies=           -482.737131
 Sum of electronic and thermal Energies=              -482.724691
 Sum of electronic and thermal Enthalpies=            -482.723747
 Sum of electronic and thermal Free Energies=         -482.776297

                     E (Thermal)             CV                S
                      KCal/Mol        Cal/Mol-Kelvin    Cal/Mol-Kelvin
 Total                  156.130             46.637            110.602
 Electronic               0.000              0.000              0.000
 Translational            0.889              2.981             41.140
 Rotational               0.889              2.981             30.937
 Vibrational            154.352             40.675             38.525
 Vibration     1          0.595              1.979              4.953
 Vibration     2          0.596              1.976              4.634
 Vibration     3          0.599              1.964              3.947
 Vibration     4          0.605              1.947              3.391
 Vibration     5          0.613              1.921              2.910
 Vibration     6          0.616              1.908              2.740
 Vibration     7          0.638              1.839              2.126
 Vibration     8          0.658              1.776              1.789
 Vibration     9          0.679              1.713              1.541
 Vibration    10          0.700              1.652              1.354
 Vibration    11          0.741              1.536              1.085
 Vibration    12          0.753              1.505              1.024
 Vibration    13          0.783              1.425              0.889
 Vibration    14          0.817              1.341              0.769
 Vibration    15          0.858              1.245              0.653
 Vibration    16          0.870              1.216              0.621
 Vibration    17          0.903              1.144              0.548
 Vibration    18          0.976              0.998              0.423

                           ! Non-Optimized Parameters !
 Normal termination of Gaussian 16 at Wed Dec  9 16:55:43 2020.

 ----------------------------------------------------------------------
 # B3LYP/6-311++G(d,p) empiricaldispersion=gd3bj scf=xqc pop=npa geom=c
 heck
 ----------------------------------------------------------------------

 ---------------------------------------
 CID_148233805_JID_2102_Energie_neutraal
 ---------------------------------------
 Structure from the checkpoint file:  "JID_2102.chk"
 Charge =  0 Multiplicity = 1

 SCF Done:  E(RB3LYP) =  -483.111803799     A.U. after   14 cycles
 Normal termination of Gaussian 16 at Wed Dec  9 16:58:05 2020.

 ----------------------------------------------------------------------
 # B3LYP/6-311++G(d,p) empiricaldispersion=gd3bj scf=xqc pop=npa geom=c
 heck
 ----------------------------------------------------------------------

 -------------------------------------
 CID_148233805_JID_2102_Energie_kation
 -------------------------------------
 Structure from the checkpoint file:  "JID_2102.chk"
 Charge =  1 Multiplicity = 2

 SCF Done:  E(UB3LYP) =  -482.808531724     A.U. after   27 cycles
 Normal termination of Gaussian 16 at Wed Dec  9 17:03:56 2020.
 Gaussian 16:  ES64L-G16RevA.03 25-Dec-2016

 ----------------------------------------------------------------------
 # B3LYP/6-311++G(d,p) empiricaldispersion=gd3bj scf=xqc pop=npa geom=c
 heck
 ----------------------------------------------------------------------

 ------------------------------------
 CID_148233805_JID_2102_Energie_anion
 ------------------------------------
 Structure from the checkpoint file:  "JID_2102.chk"
 Charge = -1 Multiplicity = 2

                         Standard orientation:
 ---------------------------------------------------------------------
 Center     Atomic      Atomic             Coordinates (Angstroms)
 Number     Number       Type             X           Y           Z
 ---------------------------------------------------------------------
      1          6           0        0.353984   -1.965462   -0.097095
      2          6           0        0.362508   -0.450514   -0.061980
      3          6           0       -0.802723    0.254979   -0.426431
      4          6           0       -0.803667    1.651886   -0.410778
      5          6           0        0.336637    2.363726   -0.050652
      6          6           0        1.487158    1.669384    0.308207
      7          6           0        1.513504    0.270876    0.315904
      8          6           0        2.801699   -0.424557    0.702676
      9          7           0        3.567130   -0.808697   -0.495748
     10          6           0       -2.090572   -0.463878   -0.794023
     11          6           0       -2.949550   -0.725254    0.418957
     12          6           0       -4.193173   -0.274790    0.579327
     13          1           0       -0.432547   -2.383237    0.541925
     14          1           0        0.164559   -2.337715   -1.111942
     15          1           0        1.300890   -2.395864    0.232008
     16          1           0       -1.713656    2.180782   -0.683583
     17          1           0        0.327717    3.450052   -0.048877
     18          1           0        2.386229    2.212321    0.587012
     19          1           0        3.421607    0.274308    1.274999
     20          1           0        2.580555   -1.265558    1.381913
     21          1           0        4.371056   -1.372099   -0.220162
     22          1           0        2.990729   -1.402856   -1.089706
     23          1           0       -2.657358    0.143367   -1.508685
     24          1           0       -1.867092   -1.412887   -1.297067
     25          1           0       -2.484527   -1.306128    1.215813
     26          1           0       -4.765657   -0.480255    1.479612
     27          1           0       -4.687244    0.318278   -0.187702
 ---------------------------------------------------------------------

 SCF Done:  E(UB3LYP) =  -483.097645528     A.U. after   33 cycles
 SCF Done:  E(UB3LYP) =  -483.097645528     a.u. after    1 cycles

 The electronic state is 2-A.
 Alpha  occ. eigenvalues --  -14.17923 -10.08309 -10.08289 -10.07626 -10.07606
 Alpha  occ. eigenvalues --  -10.07422 -10.06942 -10.06817 -10.06716 -10.06330
 Alpha  occ. eigenvalues --  -10.06212 -10.05765  -0.77650  -0.75129  -0.70279
 Alpha  occ. eigenvalues --   -0.66661  -0.65181  -0.59810  -0.57133  -0.54837
 Alpha  occ. eigenvalues --   -0.48202  -0.46865  -0.45912  -0.39583  -0.38595
 Alpha  occ. eigenvalues --   -0.37486  -0.36218  -0.34341  -0.33226  -0.32939
 Alpha  occ. eigenvalues --   -0.30735  -0.30298  -0.29426  -0.28461  -0.27971
 Alpha  occ. eigenvalues --   -0.26456  -0.26230  -0.24008  -0.23370  -0.22467
 Alpha  occ. eigenvalues --   -0.16996  -0.13998  -0.13778  -0.13082   0.04736
 Alpha virt. eigenvalues --    0.06771   0.07508   0.07864   0.08307   0.08572
 Alpha virt. eigenvalues --    0.09354   0.09680   0.09785   0.10240   0.10923
 Alpha virt. eigenvalues --    0.11773   0.11917   0.12310   0.12765   0.14413

  Beta  occ. eigenvalues --  -14.17865 -10.08286 -10.08266 -10.07612 -10.07604
  Beta  occ. eigenvalues --  -10.07411 -10.06928 -10.06786 -10.06728 -10.06275
  Beta  occ. eigenvalues --  -10.06175 -10.05714  -0.77560  -0.75058  -0.70231
  Beta  occ. eigenvalues --   -0.66605  -0.65103  -0.59744  -0.57064  -0.54733
  Beta  occ. eigenvalues --   -0.48144  -0.46794  -0.45850  -0.39534  -0.38554
  Beta  occ. eigenvalues --   -0.37426  -0.36157  -0.34278  -0.33153  -0.32871
  Beta  occ. eigenvalues --   -0.30680  -0.30261  -0.29384  -0.28404  -0.27925
  Beta  occ. eigenvalues --   -0.26406  -0.26174  -0.23894  -0.23330  -0.22422
  Beta  occ. eigenvalues --   -0.16930  -0.13826  -0.13601  -0.13016
  Beta virt. eigenvalues --    0.06837   0.07656   0.07811   0.08194   0.08604
  Beta virt. eigenvalues --    0.09122   0.09616   0.10001   0.10340   0.10618
  Beta virt. eigenvalues --    0.11287   0.12195   0.12382   0.12685   0.13114

 Mulliken charges and spin densities:
               1          2
     1  C    2.334025  -2.922631
     2  C   -3.409918   4.041175
     3  C   -0.044956   0.706774
     4  C    0.492253  -0.994010
     5  C   -0.312208  -0.141675
     6  C    0.428959  -1.103806
     7  C    0.940313  -0.459141
     8  C    1.218572  -1.931163
     9  N   -0.435766   0.111708
    10  C   -0.152208  -0.070428
    11  C   -0.203155   0.150766
    12  C    0.294557  -0.828691
    13  H   -0.327314   0.486520
    14  H   -0.184697   0.380912
    15  H   -0.569125   0.750782
    16  H    0.090131   0.036904
    17  H    0.008173   0.132493
    18  H    0.047589   0.067820
    19  H   -0.175909   0.331966
    20  H   -0.194072   0.305572
    21  H   -0.287859   0.521902
    22  H    0.059055   0.152247
    23  H   -0.420408   0.580510
    24  H   -0.027154   0.159039
    25  H   -0.116123   0.270640
    26  H   -0.066279   0.176910
    27  H    0.013523   0.086904
 Sum of Mulliken charges =  -1.00000   1.00000

 Dipole moment (field-independent basis, Debye):
    X=             -4.4647    Y=              5.3554    Z=              0.6094  Tot=              6.9989
 Quadrupole moment (field-independent basis, Debye-Ang):
   XX=           -145.1257   YY=           -114.1188   ZZ=           -103.1880
   XY=              8.7410   XZ=             -0.3939   YZ=              0.6840

 Summary of Natural Population Analysis:

                                       Natural Population
                Natural  -----------------------------------------------
    Atom  No    Charge         Core      Valence    Rydberg      Total
 -----------------------------------------------------------------------
      C    1   -0.30136      0.99964     2.29463    0.00710     3.30136
      C    2   -0.01138      0.99943     2.00135    0.01061     3.01138
      C    3   -0.01119      0.99946     2.00077    0.01097     3.01119
      C    4   -0.08972      0.99951     2.08205    0.00817     3.08972
      C    5   -0.10758      0.99956     2.09837    0.00965     3.10758
      C    6   -0.08852      0.99951     2.08045    0.00857     3.08852
      C    7   -0.01191      0.99947     2.00103    0.01142     3.01191
      C    8   -0.09674      0.99959     2.08442    0.01272     3.09674
      N    9   -0.41916      0.99977     2.90876    0.01063     3.91916
      C   10   -0.21691      0.99958     2.20670    0.01063     3.21691
      C   11   -0.06867      0.99955     2.05865    0.01047     3.06867
      C   12   -0.20042      0.99956     2.19437    0.00649     3.20042
      H   13    0.10313      0.00000     0.39527    0.00160     0.39687
      H   14    0.10632      0.00000     0.39192    0.00176     0.39368
      H   15    0.10907      0.00000     0.38912    0.00181     0.39093
      H   16    0.09587      0.00000     0.40292    0.00121     0.40413
      H   17    0.09598      0.00000     0.40324    0.00078     0.40402
      H   18    0.09772      0.00000     0.40131    0.00097     0.40228
      H   19    0.09154      0.00000     0.40689    0.00157     0.40846
      H   20    0.08589      0.00000     0.41152    0.00258     0.41411
      H   21    0.17727      0.00000     0.31810    0.00463     0.32273
      H   22    0.17423      0.00000     0.32332    0.00244     0.32577
      H   23    0.10147      0.00000     0.39659    0.00194     0.39853
      H   24    0.11108      0.00000     0.38719    0.00173     0.38892
      H   25    0.09334      0.00000     0.40536    0.00129     0.40666
      H   26    0.09217      0.00000     0.40686    0.00097     0.40783
      H   27    0.08848      0.00000     0.41030    0.00122     0.41152
 =======================================================================
   * Total *    0.00000     11.99462    31.86145    0.14393    44.00000

 Normal termination of Gaussian 16 at Wed Dec  9 17:11:00 2020.
