 Gaussian 16, Revision A.03,

 -----------------------------------------------------------
 # opt freq B3LYP/6-31G(d) empiricaldispersion=gd3bj scf=xqc
 -----------------------------------------------------------

 -------------------------------
 CID_113771886_JID_8598_neutraal
 -------------------------------
 Symbolic Z-matrix:
 Charge =  0 Multiplicity = 1

 SCF Done:  E(RB3LYP) =  -819.120686713     A.U. after   14 cycles
 SCF Done:  E(RB3LYP) =  -819.131288567     A.U. after   13 cycles
 SCF Done:  E(RB3LYP) =  -819.133880072     A.U. after   13 cycles
 SCF Done:  E(RB3LYP) =  -819.135093432     A.U. after   14 cycles
 SCF Done:  E(RB3LYP) =  -819.136185915     A.U. after   12 cycles
 SCF Done:  E(RB3LYP) =  -819.136609293     A.U. after   12 cycles
 SCF Done:  E(RB3LYP) =  -819.136902142     A.U. after   12 cycles
 SCF Done:  E(RB3LYP) =  -819.137186707     A.U. after   11 cycles
 SCF Done:  E(RB3LYP) =  -819.137155116     A.U. after   12 cycles
 SCF Done:  E(RB3LYP) =  -819.137237403     A.U. after   11 cycles
 SCF Done:  E(RB3LYP) =  -819.137306884     A.U. after    9 cycles
 SCF Done:  E(RB3LYP) =  -819.137308768     A.U. after    9 cycles
 SCF Done:  E(RB3LYP) =  -819.137309424     A.U. after    8 cycles
 SCF Done:  E(RB3LYP) =  -819.137309484     A.U. after    6 cycles
 SCF Done:  E(RB3LYP) =  -819.137309519     A.U. after    7 cycles
 Optimization completed.
    -- Stationary point found.
 Normal termination of Gaussian 16 at Fri Dec 11 21:13:40 2020.

 --------------------------------------------------------------------
 #N Geom=AllCheck Guess=TCheck SCRF=Check GenChk RB3LYP/6-31G(d) Freq
 --------------------------------------------------------------------

 Structure from the checkpoint file:  "JID_8598.chk"
 -------------------------------
 CID_113771886_JID_8598_neutraal
 -------------------------------
 Charge =  0 Multiplicity = 1

 SCF Done:  E(RB3LYP) =  -819.137309519     A.U. after    1 cycles

  Exact polarizability: 176.812  -7.777 176.659   4.905   6.364 105.495
 Approx polarizability: 255.738 -21.831 279.504  10.199  20.108 169.190

                      1                      2                      3
                      A                      A                      A
 Frequencies --     28.4039                33.7325                51.9642
 Red. masses --      5.4173                 4.2573                 3.2282
 Frc consts  --      0.0026                 0.0029                 0.0051
 IR Inten    --      0.4604                 0.2275                 0.2157

                      4                      5                      6
                      A                      A                      A
 Frequencies --     63.5208                84.6640               120.6603
 Red. masses --      3.6827                 3.3860                 4.6905
 Frc consts  --      0.0088                 0.0143                 0.0402
 IR Inten    --      0.5704                 0.0711                 0.2081

                      7                      8                      9
                      A                      A                      A
 Frequencies --    133.2992               147.3111               181.8344
 Red. masses --      8.1007                 2.9041                 3.7059
 Frc consts  --      0.0848                 0.0371                 0.0722
 IR Inten    --      1.9088                 1.3435                 3.0873

                     10                     11                     12
                      A                      A                      A
 Frequencies --    196.0247               268.9295               306.7295
 Red. masses --      3.7756                 2.9386                 4.9506
 Frc consts  --      0.0855                 0.1252                 0.2744
 IR Inten    --      0.7739                 2.8439                 0.3361

                     13                     14                     15
                      A                      A                      A
 Frequencies --    336.9382               356.6412               381.8502
 Red. masses --      4.9394                 5.4018                 2.9997
 Frc consts  --      0.3304                 0.4048                 0.2577
 IR Inten    --      5.9589                 1.2846                 2.5645

                     16                     17                     18
                      A                      A                      A
 Frequencies --    412.7730               426.5758               445.6708
 Red. masses --      2.5903                 2.8398                 4.7364
 Frc consts  --      0.2600                 0.3045                 0.5543
 IR Inten    --      3.2084                 4.5169                 0.7323

                     19                     20                     21
                      A                      A                      A
 Frequencies --    499.3576               520.4667               547.4757
 Red. masses --      2.5697                 6.4617                 3.6507
 Frc consts  --      0.3775                 1.0313                 0.6447
 IR Inten    --      2.5985                12.8637                10.0185

                     22                     23                     24
                      A                      A                      A
 Frequencies --    588.6173               632.6491               656.8172
 Red. masses --      4.1962                 4.2570                 7.4970
 Frc consts  --      0.8566                 1.0039                 1.9056
 IR Inten    --      2.1172                 6.3326                 5.3912

                     25                     26                     27
                      A                      A                      A
 Frequencies --    691.6016               727.3155               734.4663
 Red. masses --      3.5722                 1.7689                10.0087
 Frc consts  --      1.0067                 0.5513                 3.1811
 IR Inten    --     16.7400                10.2846                11.0595

                     28                     29                     30
                      A                      A                      A
 Frequencies --    754.7379               774.5417               784.6042
 Red. masses --      5.9307                 1.5032                 2.1518
 Frc consts  --      1.9904                 0.5313                 0.7805
 IR Inten    --      9.8588                 3.6596                11.5945

                     31                     32                     33
                      A                      A                      A
 Frequencies --    796.9071               801.7088               816.1447
 Red. masses --      1.3329                 1.3196                 1.5458
 Frc consts  --      0.4987                 0.4997                 0.6067
 IR Inten    --     54.5432               110.1739                 4.8108

                     34                     35                     36
                      A                      A                      A
 Frequencies --    856.7887               876.6421               890.3153
 Red. masses --      2.6104                 1.9246                 8.7382
 Frc consts  --      1.1290                 0.8714                 4.0809
 IR Inten    --      1.1740                37.1847                14.6971

                     37                     38                     39
                      A                      A                      A
 Frequencies --    932.1869               934.4961               944.3556
 Red. masses --      1.6842                 1.3546                 1.8520
 Frc consts  --      0.8623                 0.6970                 0.9731
 IR Inten    --      1.7935                 1.7073                71.0616

                     40                     41                     42
                      A                      A                      A
 Frequencies --    953.9625               962.4859               989.4378
 Red. masses --      2.8026                 1.2952                 1.9923
 Frc consts  --      1.5027                 0.7069                 1.1492
 IR Inten    --      7.5583                 1.3811                 4.9606

                     43                     44                     45
                      A                      A                      A
 Frequencies --   1002.5016              1020.3023              1038.5004
 Red. masses --      1.8151                 2.3221                 2.2560
 Frc consts  --      1.0748                 1.4243                 1.4335
 IR Inten    --     11.1865                25.4293                35.9250

                     46                     47                     48
                      A                      A                      A
 Frequencies --   1050.7426              1063.6536              1080.2492
 Red. masses --      1.4570                 2.4543                 1.4052
 Frc consts  --      0.9478                 1.6360                 0.9661
 IR Inten    --      5.3038                12.1862                 3.1003

                     49                     50                     51
                      A                      A                      A
 Frequencies --   1106.3388              1128.2972              1131.1502
 Red. masses --      2.8651                 2.4804                 3.3638
 Frc consts  --      2.0662                 1.8604                 2.5358
 IR Inten    --      0.5325                 4.8277                17.1883

                     52                     53                     54
                      A                      A                      A
 Frequencies --   1136.1618              1180.0094              1205.2344
 Red. masses --      1.1890                 1.6961                 1.3809
 Frc consts  --      0.9043                 1.3914                 1.1818
 IR Inten    --      9.2033                13.2149                 4.1029

                     55                     56                     57
                      A                      A                      A
 Frequencies --   1211.5760              1248.5027              1267.9145
 Red. masses --      1.7324                 1.6324                 2.0172
 Frc consts  --      1.4983                 1.4992                 1.9106
 IR Inten    --      5.3386                 7.2990                36.5153

                     58                     59                     60
                      A                      A                      A
 Frequencies --   1269.6183              1301.3860              1310.6107
 Red. masses --      2.5452                 1.8524                 1.7120
 Frc consts  --      2.4172                 1.8484                 1.7326
 IR Inten    --     56.9762                22.4719                29.6895

                     61                     62                     63
                      A                      A                      A
 Frequencies --   1353.7134              1363.0162              1390.5703
 Red. masses --      1.9303                 1.4453                 5.0664
 Frc consts  --      2.0842                 1.5820                 5.7722
 IR Inten    --     11.5116                26.9620                91.2190

                     64                     65                     66
                      A                      A                      A
 Frequencies --   1411.9257              1423.9013              1439.9668
 Red. masses --      1.5384                 1.3715                 2.4413
 Frc consts  --      1.8069                 1.6384                 2.9825
 IR Inten    --     42.8734                 1.0919                 4.4552

                     67                     68                     69
                      A                      A                      A
 Frequencies --   1474.9945              1488.1631              1492.9218
 Red. masses --      1.1874                 1.0927                 2.3105
 Frc consts  --      1.5220                 1.4258                 3.0341
 IR Inten    --      9.7916                 2.1418               141.0402

                     70                     71                     72
                      A                      A                      A
 Frequencies --   1512.3425              1529.0152              1532.4688
 Red. masses --      1.5569                 1.2994                 1.9639
 Frc consts  --      2.0981                 1.7899                 2.7173
 IR Inten    --      8.2363                 6.3714               125.1900

                     73                     74                     75
                      A                      A                      A
 Frequencies --   1538.1760              1566.5645              1652.0933
 Red. masses --      1.1949                 1.2516                 8.6018
 Frc consts  --      1.6657                 1.8098                13.8327
 IR Inten    --     35.6644                68.3017                28.5239

                     76                     77                     78
                      A                      A                      A
 Frequencies --   1681.6126              1743.1792              1905.5447
 Red. masses --      7.2482                 5.2717                12.5690
 Frc consts  --     12.0762                 9.4381                26.8899
 IR Inten    --     37.2155                 5.9812               713.4302

                     79                     80                     81
                      A                      A                      A
 Frequencies --   2969.2476              3002.3469              3097.1794
 Red. masses --      1.0651                 1.0947                 1.0583
 Frc consts  --      5.5328                 5.8141                 5.9810
 IR Inten    --     56.3714                40.3103                 6.2734

                     82                     83                     84
                      A                      A                      A
 Frequencies --   3134.3432              3138.5533              3144.0694
 Red. masses --      1.0863                 1.0511                 1.0611
 Frc consts  --      6.2876                 6.1004                 6.1801
 IR Inten    --     34.8126                22.3155                 7.3639

                     85                     86                     87
                      A                      A                      A
 Frequencies --   3147.8377              3162.0457              3197.1845
 Red. masses --      1.1069                 1.0606                 1.0892
 Frc consts  --      6.4624                 6.2478                 6.5598
 IR Inten    --      1.8138                 5.5736                10.3644

                     88                     89                     90
                      A                      A                      A
 Frequencies --   3214.2292              3221.8560              3228.7403
 Red. masses --      1.1193                 1.0919                 1.1157
 Frc consts  --      6.8130                 6.6779                 6.8529
 IR Inten    --      0.7158                11.0016                39.7827

                     91                     92                     93
                      A                      A                      A
 Frequencies --   3236.7705              3240.0991              3468.2249
 Red. masses --      1.0959                 1.1162                 1.0761
 Frc consts  --      6.7649                 6.9044                 7.6261
 IR Inten    --      3.9892                12.3903               111.8344

 - Thermochemistry -
 -------------------
 Temperature   298.150 Kelvin.  Pressure   1.00000 Atm.
 Atom     1 has atomic number  6 and mass  12.00000

 Molecular mass:   245.11643 amu.
 Principal axes and moments of inertia in atomic units:
                           1         2         3
     Eigenvalues --  2770.714556060.192088062.51738
           X            0.99997   0.00738   0.00289
           Y           -0.00736   0.99995  -0.00694
           Z           -0.00294   0.00692   0.99997
 This molecule is an asymmetric top.
 Rotational symmetry number  1.
 Warning -- assumption of classical behavior for rotation
           may cause significant error
 Rotational temperatures (Kelvin)      0.03126     0.01429     0.01074
 Rotational constants (GHZ):           0.65136     0.29780     0.22384
 Zero-point vibrational energy     708794.9 (Joules/Mol)
                                  169.40605 (Kcal/Mol)
 Warning -- explicit consideration of  22 degrees of freedom as
           vibrations may cause significant error
 Vibrational temperatures:     40.87    48.53    74.76    91.39   121.81
          (Kelvin)            173.60   191.79   211.95   261.62   282.04
                              386.93   441.32   484.78   513.13   549.40
                              593.89   613.75   641.22   718.46   748.84
                              787.70   846.89   910.24   945.01   995.06
                             1046.44  1056.73  1085.90  1114.39  1128.87
                             1146.57  1153.48  1174.25  1232.73  1261.29
                             1280.97  1341.21  1344.53  1358.72  1372.54
                             1384.80  1423.58  1442.38  1467.99  1494.17
                             1511.78  1530.36  1554.24  1591.77  1623.37
                             1627.47  1634.68  1697.77  1734.06  1743.19
                             1796.32  1824.25  1826.70  1872.40  1885.68
                             1947.69  1961.08  2000.72  2031.45  2048.68
                             2071.79  2122.19  2141.13  2147.98  2175.92
                             2199.91  2204.88  2213.09  2253.94  2376.99
                             2419.47  2508.05  2741.65  4272.09  4319.71
                             4456.15  4509.62  4515.68  4523.61  4529.04
                             4549.48  4600.04  4624.56  4635.53  4645.44
                             4656.99  4661.78  4990.00

 Zero-point correction=                           0.269966 (Hartree/Particle)
 Thermal correction to Energy=                    0.285703
 Thermal correction to Enthalpy=                  0.286647
 Thermal correction to Gibbs Free Energy=         0.224996
 Sum of electronic and zero-point Energies=           -818.867344
 Sum of electronic and thermal Energies=              -818.851606
 Sum of electronic and thermal Enthalpies=            -818.850662
 Sum of electronic and thermal Free Energies=         -818.912313

                     E (Thermal)             CV                S
                      KCal/Mol        Cal/Mol-Kelvin    Cal/Mol-Kelvin
 Total                  179.281             60.538            129.756
 Electronic               0.000              0.000              0.000
 Translational            0.889              2.981             42.390
 Rotational               0.889              2.981             33.270
 Vibrational            177.504             54.576             54.095
 Vibration     1          0.593              1.984              5.938
 Vibration     2          0.594              1.983              5.597
 Vibration     3          0.596              1.977              4.741
 Vibration     4          0.597              1.972              4.345
 Vibration     5          0.601              1.960              3.780
 Vibration     6          0.609              1.932              3.090
 Vibration     7          0.613              1.920              2.898
 Vibration     8          0.617              1.906              2.707
 Vibration     9          0.630              1.864              2.309
 Vibration    10          0.636              1.845              2.170
 Vibration    11          0.673              1.730              1.603
 Vibration    12          0.697              1.661              1.380
 Vibration    13          0.718              1.602              1.227
 Vibration    14          0.732              1.562              1.137
 Vibration    15          0.751              1.509              1.032
 Vibration    16          0.777              1.442              0.917
 Vibration    17          0.788              1.412              0.870
 Vibration    18          0.805              1.370              0.809
 Vibration    19          0.855              1.251              0.660
 Vibration    20          0.875              1.205              0.609
 Vibration    21          0.903              1.145              0.549
 Vibration    22          0.946              1.056              0.470

 Optimization completed.
    -- Stationary point found.
 Normal termination of Gaussian 16 at Fri Dec 11 21:25:40 2020.

 ----------------------------------------------------------------------
 # B3LYP/6-311++G(d,p) empiricaldispersion=gd3bj scf=xqc pop=npa geom=c
 heck
 ----------------------------------------------------------------------

 ---------------------------------------
 CID_113771886_JID_8598_Energie_neutraal
 ---------------------------------------
 Structure from the checkpoint file:  "JID_8598.chk"
 Charge =  0 Multiplicity = 1

 SCF Done:  E(RB3LYP) =  -819.361260745     A.U. after   15 cycles
 Normal termination of Gaussian 16 at Fri Dec 11 21:30:29 2020.

 ----------------------------------------------------------------------
 # B3LYP/6-311++G(d,p) empiricaldispersion=gd3bj scf=xqc pop=npa geom=c
 heck
 ----------------------------------------------------------------------

 -------------------------------------
 CID_113771886_JID_8598_Energie_kation
 -------------------------------------
 Structure from the checkpoint file:  "JID_8598.chk"
 Charge =  1 Multiplicity = 2

 SCF Done:  E(UB3LYP) =  -819.075338690     A.U. after   24 cycles
 Normal termination of Gaussian 16 at Fri Dec 11 21:41:08 2020.
 Gaussian 16:  ES64L-G16RevA.03 25-Dec-2016

 ----------------------------------------------------------------------
 # B3LYP/6-311++G(d,p) empiricaldispersion=gd3bj scf=xqc pop=npa geom=c
 heck
 ----------------------------------------------------------------------

 ------------------------------------
 CID_113771886_JID_8598_Energie_anion
 ------------------------------------
 Structure from the checkpoint file:  "JID_8598.chk"
 Charge = -1 Multiplicity = 2

                         Standard orientation:
 ---------------------------------------------------------------------
 Center     Atomic      Atomic             Coordinates (Angstroms)
 Number     Number       Type             X           Y           Z
 ---------------------------------------------------------------------
      1          6           0       -0.186294   -2.044115    1.805731
      2          6           0       -0.708475   -1.805416    0.602374
      3          6           0       -2.185929   -1.571221    0.391038
      4          7           0       -2.409670   -0.439736   -0.506061
      5          6           0       -3.785829   -0.046318   -0.613863
      6          6           0       -4.505402    0.678445    0.510634
      7          6           0       -4.122401    1.406242   -0.762470
      8          6           0        0.168488   -1.731063   -0.639734
      9          7           0        1.311167   -0.841969   -0.450944
     10          6           0        1.264166    0.512776   -0.161569
     11          6           0        2.595461    0.922750    0.001663
     12          6           0        2.886936    2.233805    0.295836
     13          6           0        1.770923    3.085390    0.414372
     14          6           0        0.483766    2.583315    0.239375
     15          7           0        0.203278    1.292029   -0.050439
     16          8           0        3.429258   -0.152735   -0.170625
     17          6           0        2.628365   -1.272262   -0.438956
     18          8           0        3.067804   -2.377379   -0.615274
     19          1           0       -0.805944   -2.068140    2.697824
     20          1           0        0.876762   -2.225485    1.943930
     21          1           0       -2.642856   -2.459501   -0.074846
     22          1           0       -2.674727   -1.453675    1.373935
     23          1           0       -1.813598    0.342698   -0.234470
     24          1           0       -4.384973   -0.750103   -1.191321
     25          1           0       -5.556193    0.467462    0.691520
     26          1           0       -3.930635    0.902411    1.405964
     27          1           0       -3.300568    2.116867   -0.710793
     28          1           0       -4.906143    1.690692   -1.458738
     29          1           0        0.590986   -2.705704   -0.897438
     30          1           0       -0.422179   -1.362065   -1.480852
     31          1           0        3.904261    2.584423    0.428648
     32          1           0        1.910532    4.135895    0.644888
     33          1           0       -0.377291    3.238894    0.334459
 ---------------------------------------------------------------------

 SCF Done:  E(UB3LYP) =  -819.358094457     A.U. after   33 cycles
 SCF Done:  E(UB3LYP) =  -819.358094457     a.u. after    1 cycles

 The electronic state is 2-A.
 Alpha  occ. eigenvalues --  -19.07595 -18.99714 -14.25878 -14.18896 -14.17402
 Alpha  occ. eigenvalues --  -10.21268 -10.11557 -10.11226 -10.10889 -10.10069
 Alpha  occ. eigenvalues --  -10.09658 -10.08640 -10.07761 -10.07357 -10.06949
 Alpha  occ. eigenvalues --  -10.06401 -10.05659 -10.05190  -1.02219  -0.93291
 Alpha  occ. eigenvalues --   -0.86741  -0.81728  -0.80960  -0.73813  -0.69486
 Alpha  occ. eigenvalues --   -0.68360  -0.63777  -0.61309  -0.57050  -0.52964
 Alpha  occ. eigenvalues --   -0.52382  -0.50587  -0.49601  -0.48947  -0.44577
 Alpha  occ. eigenvalues --   -0.43629  -0.40869  -0.40452  -0.39591  -0.38461
 Alpha  occ. eigenvalues --   -0.36693  -0.36234  -0.35277  -0.34233  -0.32525
 Alpha  occ. eigenvalues --   -0.31871  -0.31341  -0.30411  -0.29684  -0.28810
 Alpha  occ. eigenvalues --   -0.28512  -0.28201  -0.27245  -0.26897  -0.25514
 Alpha  occ. eigenvalues --   -0.24571  -0.21934  -0.20365  -0.19891  -0.19200
 Alpha  occ. eigenvalues --   -0.16428  -0.16175  -0.14700  -0.11784  -0.10947
 Alpha  occ. eigenvalues --    0.04693
 Alpha virt. eigenvalues --    0.06057   0.07548   0.07940   0.08231   0.08841
 Alpha virt. eigenvalues --    0.09159   0.09728   0.10437   0.11120   0.11336
 Alpha virt. eigenvalues --    0.11570   0.11858   0.12509   0.13347   0.13688

  Beta  occ. eigenvalues --  -19.07625 -18.99644 -14.25912 -14.18896 -14.16944
  Beta  occ. eigenvalues --  -10.21190 -10.11467 -10.11225 -10.10844 -10.10058
  Beta  occ. eigenvalues --  -10.09651 -10.08627 -10.07676 -10.07350 -10.06935
  Beta  occ. eigenvalues --  -10.06382 -10.05684 -10.04805  -1.02163  -0.93188
  Beta  occ. eigenvalues --   -0.86621  -0.81709  -0.80468  -0.73787  -0.69444
  Beta  occ. eigenvalues --   -0.67799  -0.63543  -0.61222  -0.57021  -0.52871
  Beta  occ. eigenvalues --   -0.51879  -0.50552  -0.49462  -0.48918  -0.44417
  Beta  occ. eigenvalues --   -0.43525  -0.40737  -0.40359  -0.39519  -0.38315
  Beta  occ. eigenvalues --   -0.36546  -0.36121  -0.35208  -0.34125  -0.32460
  Beta  occ. eigenvalues --   -0.31837  -0.31309  -0.30367  -0.29557  -0.28525
  Beta  occ. eigenvalues --   -0.28093  -0.27684  -0.27111  -0.26874  -0.25381
  Beta  occ. eigenvalues --   -0.24309  -0.21838  -0.20096  -0.19677  -0.19129
  Beta  occ. eigenvalues --   -0.16213  -0.14400  -0.14263  -0.11653  -0.10312
  Beta virt. eigenvalues --    0.06828   0.07710   0.07973   0.08313   0.09070
  Beta virt. eigenvalues --    0.09324   0.09755   0.10013   0.10403   0.11197
  Beta virt. eigenvalues --    0.11541   0.11691   0.11825   0.12502   0.13321

 Mulliken charges and spin densities:
               1          2
     1  C   -0.445452  -0.056713
     2  C    0.975672   0.468165
     3  C   -0.281667  -0.836019
     4  N   -0.070730  -0.050741
     5  C   -0.615740   0.599300
     6  C    0.527834  -0.906140
     7  C    0.225596  -0.601777
     8  C   -1.034786   0.140243
     9  N   -0.023675  -0.030787
    10  C   -0.021706  -0.018636
    11  C    0.135421   0.031290
    12  C   -0.597416   0.340661
    13  C   -0.259228  -0.031780
    14  C   -0.103135   0.114444
    15  N   -0.047785   0.218318
    16  O   -0.146178  -0.006683
    17  C    0.323351   0.020712
    18  O   -0.385705   0.020882
    19  H    0.040256   0.085336
    20  H    0.185713  -0.013749
    21  H   -0.061945   0.226544
    22  H    0.076465   0.039610
    23  H    0.490001  -0.248044
    24  H   -0.499748   0.719362
    25  H   -0.252376   0.381507
    26  H    0.087741   0.052568
    27  H    0.071495   0.066408
    28  H   -0.065682   0.211491
    29  H    0.179843   0.037689
    30  H    0.212571   0.034114
    31  H    0.151911  -0.022023
    32  H    0.124077   0.004549
    33  H    0.105006   0.009899
 Sum of Mulliken charges =  -1.00000   1.00000

 Dipole moment (field-independent basis, Debye):
    X=              1.8300    Y=              1.1154    Z=              1.3736  Tot=              2.5456
 Quadrupole moment (field-independent basis, Debye-Ang):
   XX=           -191.9299   YY=           -138.4439   ZZ=           -122.1825
   XY=              5.1856   XZ=             -2.1139   YZ=             -0.9882

 Summary of Natural Population Analysis:

                                       Natural Population
                Natural  -----------------------------------------------
    Atom  No    Charge         Core      Valence    Rydberg      Total
 -----------------------------------------------------------------------
      C    1   -0.18562      0.99949     2.18042    0.00571     3.18562
      C    2   -0.00538      0.99952     1.99509    0.01076     3.00538
      C    3   -0.09804      0.99957     2.08746    0.01101     3.09804
      N    4   -0.35554      0.99972     2.84316    0.01265     3.85554
      C    5   -0.01151      0.99958     1.99758    0.01434     3.01151
      C    6   -0.21495      0.99963     2.20691    0.00841     3.21495
      C    7   -0.20292      0.99962     2.19482    0.00848     3.20292
      C    8   -0.10560      0.99956     2.09445    0.01158     3.10560
      N    9   -0.24720      0.99959     2.73869    0.00892     3.74720
      C   10    0.19234      0.99948     1.79516    0.01302     2.80766
      C   11    0.12614      0.99932     1.86199    0.01255     2.87386
      C   12   -0.04334      0.99953     2.03498    0.00884     3.04334
      C   13   -0.13947      0.99959     2.13154    0.00834     3.13947
      C   14    0.02993      0.99960     1.95701    0.01346     2.97007
      N   15   -0.20299      0.99966     2.69213    0.01121     3.70299
      O   16   -0.26243      0.99985     3.25576    0.00681     4.26243
      C   17    0.46600      0.99968     1.50802    0.02630     2.53400
      O   18   -0.31274      0.99986     3.30725    0.00563     4.31274
      H   19    0.09203      0.00000     0.40690    0.00107     0.40797
      H   20    0.09580      0.00000     0.40309    0.00111     0.40420
      H   21    0.09425      0.00000     0.40439    0.00136     0.40575
      H   22    0.08610      0.00000     0.41229    0.00161     0.41390
      H   23    0.19773      0.00000     0.29866    0.00360     0.30227
      H   24    0.09556      0.00000     0.40294    0.00149     0.40444
      H   25    0.10086      0.00000     0.39768    0.00146     0.39914
      H   26    0.10103      0.00000     0.39805    0.00092     0.39897
      H   27    0.10412      0.00000     0.39495    0.00093     0.39588
      H   28    0.10127      0.00000     0.39783    0.00089     0.39873
      H   29    0.11566      0.00000     0.38307    0.00128     0.38434
      H   30    0.11391      0.00000     0.38471    0.00139     0.38609
      H   31    0.09671      0.00000     0.40240    0.00089     0.40329
      H   32    0.09552      0.00000     0.40344    0.00105     0.40448
      H   33    0.08276      0.00000     0.41615    0.00109     0.41724
 =======================================================================
   * Total *    0.00000     17.99286    46.78895    0.21819    65.00000

 Normal termination of Gaussian 16 at Fri Dec 11 21:55:31 2020.
