 Gaussian 16, Revision A.03,

 -----------------------------------------------------------
 # opt freq B3LYP/6-31G(d) empiricaldispersion=gd3bj scf=xqc
 -----------------------------------------------------------

 -------------------------------
 CID_102514837_JID_9530_neutraal
 -------------------------------
 Symbolic Z-matrix:
 Charge =  0 Multiplicity = 1

 SCF Done:  E(RB3LYP) =  -1355.79655713     A.U. after   15 cycles
 SCF Done:  E(RB3LYP) =  -1355.82221753     A.U. after   14 cycles
 SCF Done:  E(RB3LYP) =  -1355.82536426     A.U. after   15 cycles
 SCF Done:  E(RB3LYP) =  -1355.82556499     A.U. after   15 cycles
 SCF Done:  E(RB3LYP) =  -1355.82717946     A.U. after   15 cycles
 SCF Done:  E(RB3LYP) =  -1355.82740904     A.U. after   14 cycles
 SCF Done:  E(RB3LYP) =  -1355.83152982     A.U. after   12 cycles
 SCF Done:  E(RB3LYP) =  -1355.82997307     A.U. after   14 cycles
 SCF Done:  E(RB3LYP) =  -1355.83200714     A.U. after   13 cycles
 SCF Done:  E(RB3LYP) =  -1355.83303444     A.U. after   12 cycles
 SCF Done:  E(RB3LYP) =  -1355.83616308     A.U. after    9 cycles
 SCF Done:  E(RB3LYP) =  -1355.83616348     A.U. after    9 cycles
 SCF Done:  E(RB3LYP) =  -1355.83616373     A.U. after    8 cycles
 SCF Done:  E(RB3LYP) =  -1355.83616377     A.U. after    7 cycles
 SCF Done:  E(RB3LYP) =  -1355.83616376     A.U. after    7 cycles
 Optimization completed.
    -- Stationary point found.
 Normal termination of Gaussian 16 at Sat Dec 12 10:35:50 2020.

 --------------------------------------------------------------------
 #N Geom=AllCheck Guess=TCheck SCRF=Check GenChk RB3LYP/6-31G(d) Freq
 --------------------------------------------------------------------

 Structure from the checkpoint file:  "JID_9530.chk"
 -------------------------------
 CID_102514837_JID_9530_neutraal
 -------------------------------
 Charge =  0 Multiplicity = 1

 SCF Done:  E(RB3LYP) =  -1355.83616376     A.U. after    1 cycles

  Exact polarizability: 183.623   8.420 135.081   4.527   4.490 133.747
 Approx polarizability: 247.249   7.267 191.964  10.497   5.441 201.410

                      1                      2                      3
                      A                      A                      A
 Frequencies --     11.5312                25.3441                33.3201
 Red. masses --      5.8340                 5.9758                 4.7829
 Frc consts  --      0.0005                 0.0023                 0.0031
 IR Inten    --      1.7576                 3.7977                 1.2088

                      4                      5                      6
                      A                      A                      A
 Frequencies --     44.4127                49.6151                58.6212
 Red. masses --      5.0756                 5.7230                 5.2427
 Frc consts  --      0.0059                 0.0083                 0.0106
 IR Inten    --      0.3157                 0.7545                 2.1414

                      7                      8                      9
                      A                      A                      A
 Frequencies --     83.3771                88.5539               107.4910
 Red. masses --      5.3650                 5.2439                 3.2390
 Frc consts  --      0.0220                 0.0242                 0.0220
 IR Inten    --      1.5783                 1.2843                 2.9210

                     10                     11                     12
                      A                      A                      A
 Frequencies --    128.6095               142.5532               166.0611
 Red. masses --      3.5772                 4.0896                 3.5953
 Frc consts  --      0.0349                 0.0490                 0.0584
 IR Inten    --      1.1930                 2.8152                 3.5532

                     13                     14                     15
                      A                      A                      A
 Frequencies --    182.0377               205.5229               212.0536
 Red. masses --      2.9138                 4.1601                 3.4287
 Frc consts  --      0.0569                 0.1035                 0.0908
 IR Inten    --      8.1372                22.3242                 1.6959

                     16                     17                     18
                      A                      A                      A
 Frequencies --    236.6975               269.5775               281.5176
 Red. masses --      4.1061                 8.3912                 3.8745
 Frc consts  --      0.1355                 0.3593                 0.1809
 IR Inten    --      9.6737                 1.0520                 1.7916

                     19                     20                     21
                      A                      A                      A
 Frequencies --    315.5535               320.3371               329.4896
 Red. masses --      3.2880                 3.2398                 3.0192
 Frc consts  --      0.1929                 0.1959                 0.1931
 IR Inten    --      1.8612                 0.7376                 6.3873

                     22                     23                     24
                      A                      A                      A
 Frequencies --    350.2118               363.6430               390.3492
 Red. masses --      2.9576                 2.6740                 2.2720
 Frc consts  --      0.2137                 0.2083                 0.2040
 IR Inten    --      3.2843                 1.0081                 2.2114

                     25                     26                     27
                      A                      A                      A
 Frequencies --    416.6790               424.5709               450.6273
 Red. masses --      5.6204                 3.0994                 4.1248
 Frc consts  --      0.5749                 0.3292                 0.4935
 IR Inten    --     13.2699                 5.6162                24.2974

                     28                     29                     30
                      A                      A                      A
 Frequencies --    462.2909               508.5936               526.7803
 Red. masses --      5.7892                 2.4986                 2.2265
 Frc consts  --      0.7290                 0.3808                 0.3640
 IR Inten    --     11.4291                16.2770                 5.1461

                     31                     32                     33
                      A                      A                      A
 Frequencies --    563.1334               572.6553               590.0759
 Red. masses --      2.3217                 4.1579                 2.9238
 Frc consts  --      0.4338                 0.8034                 0.5998
 IR Inten    --      3.3311                 4.9670                21.1934

                     34                     35                     36
                      A                      A                      A
 Frequencies --    593.5701               653.5314               676.5233
 Red. masses --      1.4787                 1.2228                 1.7901
 Frc consts  --      0.3070                 0.3077                 0.4827
 IR Inten    --     40.1912                37.2595                26.4454

                     37                     38                     39
                      A                      A                      A
 Frequencies --    702.5713               786.5127               815.8352
 Red. masses --      2.0449                 2.2549                 6.1501
 Frc consts  --      0.5947                 0.8218                 2.4118
 IR Inten    --    150.7462                17.1641               160.7620

                     40                     41                     42
                      A                      A                      A
 Frequencies --    823.7935               849.5928               866.2251
 Red. masses --      2.8230                 2.0473                 2.3478
 Frc consts  --      1.1288                 0.8707                 1.0379
 IR Inten    --      6.4546                 3.0959                17.2596

                     43                     44                     45
                      A                      A                      A
 Frequencies --    899.9325               936.4302               942.5664
 Red. masses --      2.2187                 2.5298                 3.4468
 Frc consts  --      1.0587                 1.3070                 1.8042
 IR Inten    --      9.2909                33.5445                 9.5704

                     46                     47                     48
                      A                      A                      A
 Frequencies --    958.6450               962.3318               995.9363
 Red. masses --      2.0118                 2.3347                 2.8978
 Frc consts  --      1.0893                 1.2739                 1.6935
 IR Inten    --     17.6723                32.2411                52.2519

                     49                     50                     51
                      A                      A                      A
 Frequencies --   1030.8052              1043.3317              1063.1930
 Red. masses --      2.3336                 2.0631                 2.1878
 Frc consts  --      1.4609                 1.3232                 1.4571
 IR Inten    --     12.5546                10.3152                12.0915

                     52                     53                     54
                      A                      A                      A
 Frequencies --   1071.8283              1090.4482              1125.8721
 Red. masses --      1.9265                 3.0539                 3.5011
 Frc consts  --      1.3040                 2.1395                 2.6148
 IR Inten    --     15.4861                17.7679                27.5582

                     55                     56                     57
                      A                      A                      A
 Frequencies --   1128.9511              1134.8432              1151.1266
 Red. masses --      2.1129                 4.8260                 6.7933
 Frc consts  --      1.5867                 3.6619                 5.3037
 IR Inten    --     43.4238               187.4778               149.6288

                     58                     59                     60
                      A                      A                      A
 Frequencies --   1157.7719              1173.5349              1183.8551
 Red. masses --      2.7101                 4.1354                 2.8618
 Frc consts  --      2.1403                 3.3555                 2.3631
 IR Inten    --     28.2441               137.2034                38.1160

                     61                     62                     63
                      A                      A                      A
 Frequencies --   1189.5038              1227.9358              1260.3908
 Red. masses --      3.7314                 1.4397                 1.3947
 Frc consts  --      3.1106                 1.2790                 1.3054
 IR Inten    --     85.0730                58.0033               106.1083

                     64                     65                     66
                      A                      A                      A
 Frequencies --   1272.1100              1281.5887              1289.5404
 Red. masses --      1.0967                 1.1308                 1.1644
 Frc consts  --      1.0457                 1.0943                 1.1408
 IR Inten    --      3.2421                 7.7662                 0.6906

                     67                     68                     69
                      A                      A                      A
 Frequencies --   1305.3796              1309.6443              1320.0033
 Red. masses --      1.2114                 1.1988                 1.1753
 Frc consts  --      1.2162                 1.2114                 1.2065
 IR Inten    --     17.9737                15.4036                12.2978

                     70                     71                     72
                      A                      A                      A
 Frequencies --   1347.2734              1350.3552              1367.8262
 Red. masses --      1.2198                 1.1512                 1.1385
 Frc consts  --      1.3045                 1.2368                 1.2550
 IR Inten    --     20.3544                12.3975                 9.1471

                     73                     74                     75
                      A                      A                      A
 Frequencies --   1382.7364              1391.0868              1402.0318
 Red. masses --      3.7275                 1.2133                 1.2321
 Frc consts  --      4.1990                 1.3834                 1.4269
 IR Inten    --    327.8192                25.2522                18.1290

                     76                     77                     78
                      A                      A                      A
 Frequencies --   1416.9818              1428.5277              1434.1851
 Red. masses --      1.2571                 1.2341                 1.2939
 Frc consts  --      1.4871                 1.4837                 1.5681
 IR Inten    --     26.6714                20.9462                 7.5606

                     79                     80                     81
                      A                      A                      A
 Frequencies --   1442.6032              1451.1177              1466.0609
 Red. masses --      1.2664                 1.3802                 1.1839
 Frc consts  --      1.5528                 1.7123                 1.4992
 IR Inten    --      2.2102                 3.3233                14.0180

                     82                     83                     84
                      A                      A                      A
 Frequencies --   1476.7562              1506.6613              1508.6035
 Red. masses --      1.3514                 1.0799                 1.0824
 Frc consts  --      1.7364                 1.4444                 1.4513
 IR Inten    --      1.0274                 1.4038                 3.3634

                     85                     86                     87
                      A                      A                      A
 Frequencies --   1516.7227              1517.2147              1522.8061
 Red. masses --      1.0849                 1.0823                 1.0877
 Frc consts  --      1.4705                 1.4679                 1.4862
 IR Inten    --      1.2323                 2.6629                 4.8638

                     88                     89                     90
                      A                      A                      A
 Frequencies --   1526.2692              1530.0907              1545.7013
 Red. masses --      1.0974                 1.1005                 1.0936
 Frc consts  --      1.5062                 1.5181                 1.5394
 IR Inten    --      5.4666                 2.7518                 3.7952

                     91                     92                     93
                      A                      A                      A
 Frequencies --   2237.9049              2986.6524              2990.1606
 Red. masses --      5.9337                 1.0678                 1.0694
 Frc consts  --     17.5088                 5.6118                 5.6337
 IR Inten    --      1.8603                37.8691                63.7151

                     94                     95                     96
                      A                      A                      A
 Frequencies --   2999.9713              3029.1290              3047.1216
 Red. masses --      1.0618                 1.0671                 1.0610
 Frc consts  --      5.6301                 5.7687                 5.8044
 IR Inten    --     52.6151                26.0718                47.4333

                     97                     98                     99
                      A                      A                      A
 Frequencies --   3053.2685              3058.0167              3064.1046
 Red. masses --      1.0981                 1.0619                 1.0612
 Frc consts  --      6.0312                 5.8509                 5.8705
 IR Inten    --     59.7576                21.2623                25.8306

                    100                    101                    102
                      A                      A                      A
 Frequencies --   3066.9216              3084.4619              3091.7227
 Red. masses --      1.0588                 1.0916                 1.0976
 Frc consts  --      5.8678                 6.1187                 6.1812
 IR Inten    --     25.3798                22.9398                32.6597

                    103                    104                    105
                      A                      A                      A
 Frequencies --   3094.4841              3105.3553              3112.5137
 Red. masses --      1.1007                 1.0997                 1.1039
 Frc consts  --      6.2102                 6.2483                 6.3007
 IR Inten    --     25.5900                46.8346                11.1804

                    106                    107                    108
                      A                      A                      A
 Frequencies --   3117.2213              3121.4390              3125.1580
 Red. masses --      1.0611                 1.1061                 1.1063
 Frc consts  --      6.0751                 6.3500                 6.3663
 IR Inten    --      6.2936                19.4328                23.0983

                    109                    110                    111
                      A                      A                      A
 Frequencies --   3199.2301              3479.4853              3494.6814
 Red. masses --      1.1040                 1.0654                 1.1607
 Frc consts  --      6.6576                 7.5997                 8.3518
 IR Inten    --      3.9931               254.4618                54.9416

 - Thermochemistry -
 -------------------
 Temperature   298.150 Kelvin.  Pressure   1.00000 Atm.
 Atom     1 has atomic number  6 and mass  12.00000

 Molecular mass:   296.09298 amu.
 Principal axes and moments of inertia in atomic units:
                           1         2         3
     Eigenvalues --  2764.12958********************
           X            0.99998  -0.00549   0.00042
           Y            0.00548   0.99987   0.01510
           Z           -0.00050  -0.01510   0.99989
 This molecule is an asymmetric top.
 Rotational symmetry number  1.
 Warning -- assumption of classical behavior for rotation
           may cause significant error
 Rotational temperatures (Kelvin)      0.03133     0.00860     0.00799
 Rotational constants (GHZ):           0.65291     0.17921     0.16639
 Zero-point vibrational energy     845031.1 (Joules/Mol)
                                  201.96727 (Kcal/Mol)
 Warning -- explicit consideration of  34 degrees of freedom as
           vibrations may cause significant error
 Vibrational temperatures:     16.59    36.46    47.94    63.90    71.39
          (Kelvin)             84.34   119.96   127.41   154.66   185.04
                              205.10   238.92   261.91   295.70   305.10
                              340.55   387.86   405.04   454.01   460.89
                              474.06   503.88   523.20   561.63   599.51
                              610.86   648.35   665.13   731.75   757.92
                              810.22   823.92   848.99   854.01   940.29
                              973.37  1010.84  1131.62  1173.80  1185.26
                             1222.37  1246.30  1294.80  1347.31  1356.14
                             1379.28  1384.58  1432.93  1483.10  1501.12
                             1529.70  1542.12  1568.91  1619.88  1624.31
                             1632.79  1656.21  1665.78  1688.46  1703.30
                             1711.43  1766.73  1813.42  1830.28  1843.92
                             1855.36  1878.15  1884.29  1899.19  1938.43
                             1942.86  1968.00  1989.45  2001.46  2017.21
                             2038.72  2055.33  2063.47  2075.58  2087.83
                             2109.33  2124.72  2167.75  2170.54  2182.23
                             2182.93  2190.98  2195.96  2201.46  2223.92
                             3219.85  4297.13  4302.17  4316.29  4358.24
                             4384.13  4392.97  4399.80  4408.56  4412.62
                             4437.85  4448.30  4452.27  4467.91  4478.21
                             4484.99  4491.05  4496.41  4602.98  5006.20
                             5028.07

 Zero-point correction=                           0.321855 (Hartree/Particle)
 Thermal correction to Energy=                    0.343091
 Thermal correction to Enthalpy=                  0.344035
 Thermal correction to Gibbs Free Energy=         0.268514
 Sum of electronic and zero-point Energies=          -1355.514308
 Sum of electronic and thermal Energies=             -1355.493073
 Sum of electronic and thermal Enthalpies=           -1355.492129
 Sum of electronic and thermal Free Energies=        -1355.567650

                     E (Thermal)             CV                S
                      KCal/Mol        Cal/Mol-Kelvin    Cal/Mol-Kelvin
 Total                  215.293             76.840            158.948
 Electronic               0.000              0.000              0.000
 Translational            0.889              2.981             42.954
 Rotational               0.889              2.981             34.067
 Vibrational            213.515             70.878             81.927
 Vibration     1          0.593              1.987              7.728
 Vibration     2          0.593              1.985              6.164
 Vibration     3          0.594              1.983              5.621
 Vibration     4          0.595              1.980              5.052
 Vibration     5          0.595              1.978              4.833
 Vibration     6          0.596              1.974              4.503
 Vibration     7          0.600              1.961              3.810
 Vibration     8          0.601              1.957              3.692
 Vibration     9          0.606              1.943              3.314
 Vibration    10          0.611              1.925              2.967
 Vibration    11          0.616              1.911              2.769
 Vibration    12          0.624              1.884              2.480
 Vibration    13          0.630              1.864              2.307
 Vibration    14          0.640              1.832              2.083
 Vibration    15          0.643              1.823              2.026
 Vibration    16          0.656              1.785              1.828
 Vibration    17          0.674              1.729              1.599
 Vibration    18          0.681              1.708              1.524
 Vibration    19          0.703              1.644              1.333
 Vibration    20          0.706              1.635              1.308
 Vibration    21          0.712              1.617              1.263
 Vibration    22          0.727              1.575              1.165
 Vibration    23          0.737              1.547              1.106
 Vibration    24          0.758              1.491              0.999
 Vibration    25          0.780              1.434              0.903
 Vibration    26          0.787              1.417              0.877
 Vibration    27          0.809              1.360              0.794
 Vibration    28          0.820              1.334              0.759
 Vibration    29          0.864              1.231              0.637
 Vibration    30          0.882              1.191              0.594
 Vibration    31          0.919              1.111              0.518
 Vibration    32          0.929              1.090              0.499
 Vibration    33          0.947              1.053              0.467
 Vibration    34          0.951              1.045              0.461

 Optimization completed.
    -- Stationary point found.
 Normal termination of Gaussian 16 at Sat Dec 12 10:59:35 2020.

 ----------------------------------------------------------------------
 # B3LYP/6-311++G(d,p) empiricaldispersion=gd3bj scf=xqc pop=npa geom=c
 heck
 ----------------------------------------------------------------------

 ---------------------------------------
 CID_102514837_JID_9530_Energie_neutraal
 ---------------------------------------
 Structure from the checkpoint file:  "JID_9530.chk"
 Charge =  0 Multiplicity = 1

 SCF Done:  E(RB3LYP) =  -1356.15832828     A.U. after   15 cycles
 Normal termination of Gaussian 16 at Sat Dec 12 11:10:14 2020.

 ----------------------------------------------------------------------
 # B3LYP/6-311++G(d,p) empiricaldispersion=gd3bj scf=xqc pop=npa geom=c
 heck
 ----------------------------------------------------------------------

 -------------------------------------
 CID_102514837_JID_9530_Energie_kation
 -------------------------------------
 Structure from the checkpoint file:  "JID_9530.chk"
 Charge =  1 Multiplicity = 2

 SCF Done:  E(UB3LYP) =  -1355.82851136     A.U. after   31 cycles
 Normal termination of Gaussian 16 at Sat Dec 12 11:42:07 2020.
 Gaussian 16:  ES64L-G16RevA.03 25-Dec-2016

 ----------------------------------------------------------------------
 # B3LYP/6-311++G(d,p) empiricaldispersion=gd3bj scf=xqc pop=npa geom=c
 heck
 ----------------------------------------------------------------------

 ------------------------------------
 CID_102514837_JID_9530_Energie_anion
 ------------------------------------
 Structure from the checkpoint file:  "JID_9530.chk"
 Charge = -1 Multiplicity = 2

                         Standard orientation:
 ---------------------------------------------------------------------
 Center     Atomic      Atomic             Coordinates (Angstroms)
 Number     Number       Type             X           Y           Z
 ---------------------------------------------------------------------
      1          6           0       -5.998760   -0.982582   -0.352094
      2          6           0       -4.792343   -0.935202   -0.355351
      3          6           0       -3.326701   -0.852735   -0.350429
      4          8           0       -2.779725   -0.788051    0.965138
      5          6           0       -3.027074    0.443360    1.637477
      6          6           0       -1.996650    1.515496    1.324220
      7          8           0       -2.205530    2.039729    0.015978
      8          6           0       -1.030709    2.481495   -0.647120
      9          6           0       -0.485390    1.411253   -1.581431
     10          8           0       -0.241555    0.246869   -0.812662
     11          6           0        0.110085   -0.888670   -1.579086
     12          6           0        0.298258   -2.061774   -0.636051
     13          8           0        1.512285   -2.021963    0.121461
     14          6           0        1.507013   -1.288580    1.344113
     15          6           0        2.015241    0.152939    1.212222
     16         16           0        3.423112    0.320608    0.066241
     17          8           0        2.884459    0.597778   -1.267315
     18          8           0        4.430030    1.189558    0.656055
     19          8           0        4.059697   -1.180253    0.073233
     20          1           0       -7.063757   -1.036208   -0.352662
     21          1           0       -2.902671   -1.758394   -0.797703
     22          1           0       -2.999691    0.006637   -0.944011
     23          1           0       -4.039054    0.808022    1.417110
     24          1           0       -2.975674    0.215418    2.708177
     25          1           0       -2.083692    2.326549    2.066651
     26          1           0       -0.999156    1.073098    1.410565
     27          1           0       -1.293839    3.368154   -1.235536
     28          1           0       -0.261652    2.781109    0.078632
     29          1           0       -1.231018    1.191730   -2.362245
     30          1           0        0.438891    1.757565   -2.067252
     31          1           0       -0.702690   -1.133988   -2.283856
     32          1           0        1.028014   -0.702561   -2.150081
     33          1           0       -0.556235   -2.120236    0.049576
     34          1           0        0.353719   -2.986793   -1.218122
     35          1           0        0.495826   -1.268266    1.766976
     36          1           0        2.160163   -1.843515    2.022794
     37          1           0        1.249224    0.802252    0.791609
     38          1           0        2.355631    0.526042    2.180921
     39          1           0        3.342748   -1.775669   -0.255322
 ---------------------------------------------------------------------

 SCF Done:  E(UB3LYP) =  -1356.14943526     A.U. after   33 cycles
 SCF Done:  E(UB3LYP) =  -1356.14943526     a.u. after    1 cycles

 The electronic state is 2-A.
 Alpha  occ. eigenvalues --  -88.99435 -19.08611 -19.06746 -19.05152 -19.04650
 Alpha  occ. eigenvalues --  -19.04619 -19.04129 -19.04070 -10.15797 -10.15519
 Alpha  occ. eigenvalues --  -10.14542 -10.14318 -10.14158 -10.13699 -10.13243
 Alpha  occ. eigenvalues --  -10.13191 -10.12906 -10.09765 -10.08916  -8.05520
 Alpha  occ. eigenvalues --   -6.01912  -6.01718  -6.01554  -1.06511  -0.98077
 Alpha  occ. eigenvalues --   -0.97085  -0.95944  -0.95390  -0.94776  -0.93457
 Alpha  occ. eigenvalues --   -0.72672  -0.70860  -0.69653  -0.67216  -0.64479
 Alpha  occ. eigenvalues --   -0.61114  -0.59657  -0.55587  -0.54348  -0.53166
 Alpha  occ. eigenvalues --   -0.52438  -0.46844  -0.45999  -0.44475  -0.43604
 Alpha  occ. eigenvalues --   -0.43004  -0.42502  -0.41791  -0.41407  -0.41215
 Alpha  occ. eigenvalues --   -0.40118  -0.39419  -0.39092  -0.37663  -0.36746
 Alpha  occ. eigenvalues --   -0.36551  -0.35448  -0.34915  -0.34232  -0.32039
 Alpha  occ. eigenvalues --   -0.31230  -0.30454  -0.30055  -0.29558  -0.28402
 Alpha  occ. eigenvalues --   -0.27452  -0.25958  -0.25740  -0.25055  -0.24782
 Alpha  occ. eigenvalues --   -0.24063  -0.23354  -0.22513  -0.20761  -0.20257
 Alpha  occ. eigenvalues --   -0.19930  -0.19674  -0.18884  -0.17152   0.03755
 Alpha virt. eigenvalues --    0.05435   0.05806   0.06376   0.07231   0.08024
 Alpha virt. eigenvalues --    0.08175   0.08408   0.09198   0.09486   0.10145
 Alpha virt. eigenvalues --    0.10337   0.10850   0.10983   0.11484   0.11648

  Beta  occ. eigenvalues --  -88.99430 -19.08593 -19.06736 -19.05144 -19.04642
  Beta  occ. eigenvalues --  -19.04617 -19.04125 -19.04062 -10.15768 -10.15503
  Beta  occ. eigenvalues --  -10.14535 -10.14294 -10.14150 -10.13683 -10.13223
  Beta  occ. eigenvalues --  -10.13173 -10.12884 -10.09765 -10.08902  -8.05514
  Beta  occ. eigenvalues --   -6.01904  -6.01713  -6.01550  -1.06485  -0.98060
  Beta  occ. eigenvalues --   -0.97070  -0.95932  -0.95360  -0.94764  -0.93441
  Beta  occ. eigenvalues --   -0.72632  -0.70835  -0.69630  -0.67187  -0.64448
  Beta  occ. eigenvalues --   -0.61080  -0.59614  -0.55552  -0.54306  -0.53119
  Beta  occ. eigenvalues --   -0.52392  -0.46818  -0.45968  -0.44445  -0.43581
  Beta  occ. eigenvalues --   -0.42974  -0.42477  -0.41758  -0.41385  -0.41180
  Beta  occ. eigenvalues --   -0.40094  -0.39388  -0.39064  -0.37632  -0.36719
  Beta  occ. eigenvalues --   -0.36527  -0.35416  -0.34886  -0.34204  -0.32016
  Beta  occ. eigenvalues --   -0.31201  -0.30422  -0.30021  -0.29526  -0.28380
  Beta  occ. eigenvalues --   -0.27431  -0.25916  -0.25711  -0.25035  -0.24749
  Beta  occ. eigenvalues --   -0.24048  -0.23332  -0.22500  -0.20743  -0.20215
  Beta  occ. eigenvalues --   -0.19915  -0.19656  -0.18872  -0.17128
  Beta virt. eigenvalues --    0.05773   0.06362   0.06676   0.06714   0.07834
  Beta virt. eigenvalues --    0.08224   0.08517   0.08775   0.09323   0.09715
  Beta virt. eigenvalues --    0.10432   0.10514   0.11014   0.11332   0.11770

 Mulliken charges and spin densities:
               1          2
     1  C   -1.923319   1.206906
     2  C    3.346724  -2.639238
     3  C   -1.081919   0.639341
     4  O   -0.027219   0.035496
     5  C    0.587500  -1.052140
     6  C   -0.385516   0.174770
     7  O   -0.069224   0.009089
     8  C   -0.202617  -0.127042
     9  C    0.001711  -0.204761
    10  O    0.081165  -0.011764
    11  C   -0.222388  -0.057303
    12  C    0.056633  -0.635941
    13  O   -0.155521   0.040581
    14  C    1.039722  -1.316791
    15  C   -0.973791   0.411952
    16  S    0.522628  -0.314535
    17  O   -0.206575  -0.005724
    18  O   -0.127919   0.010457
    19  O   -0.200760   0.002346
    20  H   -0.477178   0.642749
    21  H   -0.069673   0.242436
    22  H    0.143460  -0.046190
    23  H    0.268281  -0.099735
    24  H   -0.328366   0.511048
    25  H   -0.465776   0.629270
    26  H    0.123537   0.013572
    27  H    0.072873   0.107798
    28  H   -0.006137   0.161361
    29  H    0.053358   0.117075
    30  H    0.116604   0.041021
    31  H   -0.295515   0.412889
    32  H    0.214323   0.016370
    33  H    0.381471  -0.116169
    34  H   -0.717987   0.921749
    35  H   -0.315056   0.475263
    36  H   -0.021595   0.253883
    37  H    0.502074  -0.306338
    38  H   -0.432420   0.730442
    39  H    0.194407   0.125806
 Sum of Mulliken charges =  -1.00000   1.00000

 Dipole moment (field-independent basis, Debye):
    X=             -0.1090    Y=              2.3145    Z=             -2.8898  Tot=              3.7040
 Quadrupole moment (field-independent basis, Debye-Ang):
   XX=           -218.7884   YY=           -167.5481   ZZ=           -170.8684
   XY=             -8.2407   XZ=             -1.5957   YZ=             -8.4774

 Summary of Natural Population Analysis:

                                       Natural Population
                Natural  -----------------------------------------------
    Atom  No    Charge         Core      Valence    Rydberg      Total
 -----------------------------------------------------------------------
      C    1   -0.11846      0.99927     2.11555    0.00364     3.11846
      C    2   -0.01038      0.99935     2.00430    0.00673     3.01038
      C    3   -0.05498      0.99949     2.04165    0.01384     3.05498
      O    4   -0.29407      0.99989     3.28387    0.01030     4.29407
      C    5   -0.02137      0.99956     2.00816    0.01365     3.02137
      C    6   -0.02215      0.99956     2.00999    0.01260     3.02215
      O    7   -0.30705      0.99988     3.29742    0.00975     4.30705
      C    8   -0.01410      0.99957     2.00352    0.01101     3.01410
      C    9   -0.01950      0.99958     2.01034    0.00958     3.01950
      O   10   -0.31528      0.99988     3.30137    0.01404     4.31528
      C   11   -0.02519      0.99957     2.01347    0.01215     3.02519
      C   12   -0.01786      0.99955     2.00462    0.01370     3.01786
      O   13   -0.31762      0.99988     3.30630    0.01144     4.31762
      C   14   -0.01913      0.99956     2.00538    0.01418     3.01913
      C   15   -0.30747      0.99955     2.29361    0.01431     3.30747
      S   16    1.12396      4.99941     1.77364    0.10299     6.87604
      O   17   -0.46203      0.99990     3.45605    0.00608     4.46203
      O   18   -0.45098      0.99990     3.44539    0.00568     4.45098
      O   19   -0.44179      0.99990     3.43582    0.00606     4.44179
      H   20    0.11095      0.00000     0.38788    0.00117     0.38905
      H   21    0.10410      0.00000     0.39384    0.00207     0.39590
      H   22    0.10578      0.00000     0.39101    0.00321     0.39422
      H   23    0.08888      0.00000     0.40963    0.00149     0.41112
      H   24    0.09598      0.00000     0.40251    0.00151     0.40402
      H   25    0.08313      0.00000     0.41520    0.00168     0.41687
      H   26    0.08858      0.00000     0.40838    0.00304     0.41142
      H   27    0.09065      0.00000     0.40841    0.00094     0.40935
      H   28    0.08302      0.00000     0.41536    0.00162     0.41698
      H   29    0.08066      0.00000     0.41784    0.00150     0.41934
      H   30    0.09175      0.00000     0.40692    0.00134     0.40825
      H   31    0.08437      0.00000     0.41383    0.00180     0.41563
      H   32    0.09639      0.00000     0.40192    0.00170     0.40361
      H   33    0.09416      0.00000     0.40326    0.00257     0.40584
      H   34    0.09689      0.00000     0.40104    0.00207     0.40311
      H   35    0.10031      0.00000     0.39761    0.00208     0.39969
      H   36    0.09695      0.00000     0.40131    0.00174     0.40305
      H   37    0.12422      0.00000     0.37318    0.00259     0.37578
      H   38    0.12313      0.00000     0.37541    0.00146     0.37687
      H   39    0.25553      0.00000     0.24041    0.00406     0.24447
 =======================================================================
   * Total *   -0.00000     22.99326    55.67540    0.33134    79.00000

 Normal termination of Gaussian 16 at Sat Dec 12 12:15:59 2020.
