 Gaussian 16, Revision A.03,

 -----------------------------------------------------------
 # opt freq B3LYP/6-31G(d) empiricaldispersion=gd3bj scf=xqc
 -----------------------------------------------------------

 --------------------------------
 CID_116624636_JID_10034_neutraal
 --------------------------------
 Symbolic Z-matrix:
 Charge =  0 Multiplicity = 1

 SCF Done:  E(RB3LYP) =  -843.475174744     A.U. after   15 cycles
 SCF Done:  E(RB3LYP) =  -843.482281592     A.U. after   13 cycles
 SCF Done:  E(RB3LYP) =  -843.483616213     A.U. after   12 cycles
 SCF Done:  E(RB3LYP) =  -843.486121354     A.U. after   13 cycles
 SCF Done:  E(RB3LYP) =  -843.488757717     A.U. after   13 cycles
 SCF Done:  E(RB3LYP) =  -843.490123523     A.U. after   12 cycles
 SCF Done:  E(RB3LYP) =  -843.490401142     A.U. after   14 cycles
 SCF Done:  E(RB3LYP) =  -843.490727655     A.U. after   12 cycles
 SCF Done:  E(RB3LYP) =  -843.490836016     A.U. after   12 cycles
 SCF Done:  E(RB3LYP) =  -843.490913709     A.U. after   11 cycles
 SCF Done:  E(RB3LYP) =  -843.490962297     A.U. after    9 cycles
 SCF Done:  E(RB3LYP) =  -843.490962970     A.U. after    8 cycles
 SCF Done:  E(RB3LYP) =  -843.490963214     A.U. after    7 cycles
 SCF Done:  E(RB3LYP) =  -843.490963273     A.U. after    6 cycles
 SCF Done:  E(RB3LYP) =  -843.490963313     A.U. after    7 cycles
 Optimization completed.
    -- Stationary point found.
 Normal termination of Gaussian 16 at Sun Dec 13 12:47:22 2020.

 --------------------------------------------------------------------
 #N Geom=AllCheck Guess=TCheck SCRF=Check GenChk RB3LYP/6-31G(d) Freq
 --------------------------------------------------------------------

 Structure from the checkpoint file:  "JID_10034.chk"
 --------------------------------
 CID_116624636_JID_10034_neutraal
 --------------------------------
 Charge =  0 Multiplicity = 1

 SCF Done:  E(RB3LYP) =  -843.490963313     A.U. after    1 cycles

  Exact polarizability: 221.332  13.025 215.758  18.464  -0.202 121.231
 Approx polarizability: 302.362  31.391 382.535  41.349   4.689 207.966

                      1                      2                      3
                      A                      A                      A
 Frequencies --     25.2350                32.2393                38.8515
 Red. masses --      4.0501                 3.9153                 4.8531
 Frc consts  --      0.0015                 0.0024                 0.0043
 IR Inten    --      0.6438                 0.0093                 1.2174

                      4                      5                      6
                      A                      A                      A
 Frequencies --     53.9648                82.7292               112.4338
 Red. masses --      4.0644                 5.3303                 2.6542
 Frc consts  --      0.0070                 0.0215                 0.0198
 IR Inten    --      0.4733                 8.1090                 0.5418

                      7                      8                      9
                      A                      A                      A
 Frequencies --    135.0352               163.4300               182.2328
 Red. masses --      2.6901                 4.8107                 4.3897
 Frc consts  --      0.0289                 0.0757                 0.0859
 IR Inten    --      0.7910                 0.6532                 1.3747

                     10                     11                     12
                      A                      A                      A
 Frequencies --    208.2475               243.4106               247.7561
 Red. masses --      3.1410                 3.8196                 1.5910
 Frc consts  --      0.0803                 0.1333                 0.0575
 IR Inten    --      4.7316                 2.0648                 4.2380

                     13                     14                     15
                      A                      A                      A
 Frequencies --    268.4302               302.1363               332.7154
 Red. masses --      3.6399                 5.3825                 2.4027
 Frc consts  --      0.1545                 0.2895                 0.1567
 IR Inten    --      1.7502                 3.0980                 1.7010

                     16                     17                     18
                      A                      A                      A
 Frequencies --    350.5917               426.3382               440.7066
 Red. masses --      2.3313                 3.5471                 3.0060
 Frc consts  --      0.1688                 0.3799                 0.3440
 IR Inten    --      5.6210                 1.8461                 1.8364

                     19                     20                     21
                      A                      A                      A
 Frequencies --    456.3014               482.6332               502.7073
 Red. masses --      2.7453                 3.4471                 5.4713
 Frc consts  --      0.3368                 0.4731                 0.8147
 IR Inten    --      1.7360                 0.0627                 2.3787

                     22                     23                     24
                      A                      A                      A
 Frequencies --    523.0604               545.9590               558.8841
 Red. masses --      5.5852                 3.7305                 3.9556
 Frc consts  --      0.9003                 0.6551                 0.7280
 IR Inten    --      1.7972                 7.0576                 1.5544

                     25                     26                     27
                      A                      A                      A
 Frequencies --    586.8046               601.5477               629.6827
 Red. masses --      5.6884                 4.2823                 3.3801
 Frc consts  --      1.1541                 0.9130                 0.7896
 IR Inten    --      1.1059                 4.5058                 5.9857

                     28                     29                     30
                      A                      A                      A
 Frequencies --    639.0583               691.3389               728.2151
 Red. masses --      1.3284                 4.0248                 4.0449
 Frc consts  --      0.3196                 1.1334                 1.2638
 IR Inten    --     59.5234                 1.5346                 3.2186

                     31                     32                     33
                      A                      A                      A
 Frequencies --    745.1605               757.2496               764.0511
 Red. masses --      4.4290                 1.7835                 2.1710
 Frc consts  --      1.4490                 0.6026                 0.7467
 IR Inten    --      9.0949                 7.3527                 4.8787

                     34                     35                     36
                      A                      A                      A
 Frequencies --    765.8072               796.3115               807.1490
 Red. masses --      1.2105                 2.2070                 2.9998
 Frc consts  --      0.4183                 0.8245                 1.1515
 IR Inten    --      0.5687                24.2484                28.6712

                     37                     38                     39
                      A                      A                      A
 Frequencies --    810.7463               825.3791               838.8227
 Red. masses --      2.4559                 1.9003                 2.6126
 Frc consts  --      0.9511                 0.7627                 1.0831
 IR Inten    --     36.1667                 9.4255                 9.2749

                     40                     41                     42
                      A                      A                      A
 Frequencies --    878.9722               885.6655               899.6338
 Red. masses --      2.6728                 2.4013                 2.0694
 Frc consts  --      1.2166                 1.1098                 0.9868
 IR Inten    --      6.9224                 5.9643                 0.9290

                     43                     44                     45
                      A                      A                      A
 Frequencies --    915.3307               920.3844               966.7681
 Red. masses --      1.3846                 1.4825                 1.3004
 Frc consts  --      0.6835                 0.7399                 0.7161
 IR Inten    --      2.1803                 1.2946                 0.6878

                     46                     47                     48
                      A                      A                      A
 Frequencies --    976.8635               980.0738              1019.5091
 Red. masses --      1.7407                 1.4925                 1.2832
 Frc consts  --      0.9787                 0.8446                 0.7858
 IR Inten    --      0.1504                 6.1332                 5.6486

                     49                     50                     51
                      A                      A                      A
 Frequencies --   1028.8295              1054.5199              1072.1907
 Red. masses --      2.3115                 3.2861                 2.5470
 Frc consts  --      1.4415                 2.1530                 1.7251
 IR Inten    --      8.0250                 1.9935                 6.7074

                     52                     53                     54
                      A                      A                      A
 Frequencies --   1077.0379              1090.7649              1109.9212
 Red. masses --      2.4957                 1.5285                 2.0511
 Frc consts  --      1.7057                 1.0714                 1.4887
 IR Inten    --      3.3010                 7.8407                 4.1928

                     55                     56                     57
                      A                      A                      A
 Frequencies --   1113.7059              1139.9557              1180.4227
 Red. masses --      1.8226                 1.7144                 1.3385
 Frc consts  --      1.3319                 1.3126                 1.0989
 IR Inten    --      9.3104                 5.0441                 0.9036

                     58                     59                     60
                      A                      A                      A
 Frequencies --   1187.3876              1200.2139              1208.9696
 Red. masses --      1.6976                 1.2541                 1.2906
 Frc consts  --      1.4102                 1.0644                 1.1114
 IR Inten    --      5.3153                 1.7993                 0.0068

                     61                     62                     63
                      A                      A                      A
 Frequencies --   1238.1315              1253.1542              1262.4758
 Red. masses --      1.7671                 2.1816                 1.8897
 Frc consts  --      1.5960                 2.0186                 1.7745
 IR Inten    --     19.5688                 7.3545                80.6341

                     64                     65                     66
                      A                      A                      A
 Frequencies --   1273.8807              1312.0265              1314.9422
 Red. masses --      1.7545                 1.7049                 1.2646
 Frc consts  --      1.6775                 1.7291                 1.2883
 IR Inten    --      3.8833                 5.2587                 2.6110

                     67                     68                     69
                      A                      A                      A
 Frequencies --   1348.4964              1353.1177              1379.1361
 Red. masses --      3.0081                 2.0804                 2.0297
 Frc consts  --      3.2228                 2.2442                 2.2746
 IR Inten    --      3.7671                10.9316                 5.6901

                     70                     71                     72
                      A                      A                      A
 Frequencies --   1402.5233              1406.5925              1414.0174
 Red. masses --      1.6920                 2.6971                 1.3899
 Frc consts  --      1.9609                 3.1440                 1.6373
 IR Inten    --     37.5734                42.5139                 5.9345

                     73                     74                     75
                      A                      A                      A
 Frequencies --   1423.1296              1424.1365              1445.5877
 Red. masses --      2.0492                 2.5793                 1.2821
 Frc consts  --      2.4452                 3.0822                 1.5785
 IR Inten    --     35.5134                 7.4648                21.5007

                     76                     77                     78
                      A                      A                      A
 Frequencies --   1447.6904              1479.9588              1496.0437
 Red. masses --      2.1186                 2.4431                 2.0517
 Frc consts  --      2.6161                 3.1528                 2.7056
 IR Inten    --      1.2490               157.0153                 1.5380

                     79                     80                     81
                      A                      A                      A
 Frequencies --   1507.8118              1513.9180              1518.2339
 Red. masses --      1.2365                 2.3123                 1.0802
 Frc consts  --      1.6563                 3.1224                 1.4670
 IR Inten    --     27.3271                 1.0032                 4.2878

                     82                     83                     84
                      A                      A                      A
 Frequencies --   1529.2476              1531.4140              1538.3404
 Red. masses --      1.1314                 1.0539                 1.0606
 Frc consts  --      1.5589                 1.4563                 1.4787
 IR Inten    --     21.7041                13.6401                 7.9648

                     85                     86                     87
                      A                      A                      A
 Frequencies --   1571.7849              1636.2614              1638.9627
 Red. masses --      3.1920                 5.2987                 6.7860
 Frc consts  --      4.6462                 8.3585                10.7400
 IR Inten    --      9.3610                 0.3935                 0.2041

                     88                     89                     90
                      A                      A                      A
 Frequencies --   1662.2903              1685.8642              1784.1481
 Red. masses --      4.9286                 5.7988                11.3337
 Frc consts  --      8.0239                 9.7103                21.2562
 IR Inten    --      4.9234                 0.1005               335.4588

                     91                     92                     93
                      A                      A                      A
 Frequencies --   3043.8758              3049.2129              3060.7874
 Red. masses --      1.0391                 1.0647                 1.0664
 Frc consts  --      5.6721                 5.8327                 5.8865
 IR Inten    --     23.8318                29.4289                39.7952

                     94                     95                     96
                      A                      A                      A
 Frequencies --   3067.0051              3092.8192              3112.5850
 Red. masses --      1.0627                 1.0955                 1.0998
 Frc consts  --      5.8897                 6.1738                 6.2779
 IR Inten    --     27.5062                 5.3483                37.5604

                     97                     98                     99
                      A                      A                      A
 Frequencies --   3123.1518              3124.9767              3125.0493
 Red. masses --      1.1044                 1.1026                 1.0985
 Frc consts  --      6.3467                 6.3442                 6.3205
 IR Inten    --     22.4835                36.7151                10.6686

                    100                    101                    102
                      A                      A                      A
 Frequencies --   3174.4445              3178.3536              3183.6868
 Red. masses --      1.0872                 1.0867                 1.0887
 Frc consts  --      6.4551                 6.4680                 6.5017
 IR Inten    --     10.0850                 1.4589                12.7100

                    103                    104                    105
                      A                      A                      A
 Frequencies --   3191.9846              3205.2121              3206.2463
 Red. masses --      1.0895                 1.0948                 1.0954
 Frc consts  --      6.5404                 6.6265                 6.6345
 IR Inten    --     28.5155                38.5067                14.1368

                    106                    107                    108
                      A                      A                      A
 Frequencies --   3215.0597              3291.5695              3312.5870
 Red. masses --      1.0962                 1.0901                 1.1077
 Frc consts  --      6.6761                 6.9583                 7.1614
 IR Inten    --     22.8455                 2.8238                 0.9221

 - Thermochemistry -
 -------------------
 Temperature   298.150 Kelvin.  Pressure   1.00000 Atm.
 Atom     1 has atomic number  6 and mass  12.00000

 Molecular mass:   266.14191 amu.
 Principal axes and moments of inertia in atomic units:
                           1         2         3
     Eigenvalues --  2499.031389067.69339**********
           X            1.00000   0.00068  -0.00115
           Y           -0.00069   0.99998  -0.00623
           Z            0.00114   0.00623   0.99998
 This molecule is an asymmetric top.
 Rotational symmetry number  1.
 Warning -- assumption of classical behavior for rotation
           may cause significant error
 Rotational temperatures (Kelvin)      0.03466     0.00955     0.00830
 Rotational constants (GHZ):           0.72218     0.19903     0.17289
 Zero-point vibrational energy     838357.3 (Joules/Mol)
                                  200.37221 (Kcal/Mol)
 Warning -- explicit consideration of  26 degrees of freedom as
           vibrations may cause significant error
 Vibrational temperatures:     36.31    46.39    55.90    77.64   119.03
          (Kelvin)            161.77   194.29   235.14   262.19   299.62
                              350.21   356.47   386.21   434.71   478.70
                              504.42   613.41   634.08   656.52   694.40
                              723.28   752.57   785.51   804.11   844.28
                              865.49   905.97   919.46   994.68  1047.74
                             1072.12  1089.51  1099.30  1101.83  1145.71
                             1161.31  1166.48  1187.54  1206.88  1264.64
                             1274.28  1294.37  1316.96  1324.23  1390.96
                             1405.49  1410.11  1466.85  1480.26  1517.22
                             1542.64  1549.62  1569.37  1596.93  1602.37
                             1640.14  1698.36  1708.39  1726.84  1739.44
                             1781.40  1803.01  1816.42  1832.83  1887.71
                             1891.91  1940.19  1946.83  1984.27  2017.92
                             2023.77  2034.46  2047.57  2049.01  2079.88
                             2082.90  2129.33  2152.47  2169.40  2178.19
                             2184.40  2200.25  2203.36  2213.33  2261.45
                             2354.22  2358.10  2391.66  2425.58  2566.99
                             4379.46  4387.14  4403.79  4412.74  4449.88
                             4478.32  4493.52  4496.14  4496.25  4567.32
                             4572.94  4580.62  4592.55  4611.59  4613.07
                             4625.75  4735.83  4766.07

 Zero-point correction=                           0.319313 (Hartree/Particle)
 Thermal correction to Energy=                    0.336435
 Thermal correction to Enthalpy=                  0.337379
 Thermal correction to Gibbs Free Energy=         0.272716
 Sum of electronic and zero-point Energies=           -843.171650
 Sum of electronic and thermal Energies=              -843.154528
 Sum of electronic and thermal Enthalpies=            -843.153584
 Sum of electronic and thermal Free Energies=         -843.218247

                     E (Thermal)             CV                S
                      KCal/Mol        Cal/Mol-Kelvin    Cal/Mol-Kelvin
 Total                  211.116             67.304            136.094
 Electronic               0.000              0.000              0.000
 Translational            0.889              2.981             42.636
 Rotational               0.889              2.981             33.825
 Vibrational            209.339             61.342             59.634
 Vibration     1          0.593              1.985              6.173
 Vibration     2          0.594              1.983              5.687
 Vibration     3          0.594              1.981              5.317
 Vibration     4          0.596              1.976              4.667
 Vibration     5          0.600              1.961              3.825
 Vibration     6          0.607              1.939              3.226
 Vibration     7          0.613              1.918              2.873
 Vibration     8          0.623              1.887              2.510
 Vibration     9          0.630              1.864              2.305
 Vibration    10          0.642              1.828              2.059
 Vibration    11          0.659              1.774              1.778
 Vibration    12          0.661              1.766              1.746
 Vibration    13          0.673              1.731              1.606
 Vibration    14          0.694              1.670              1.405
 Vibration    15          0.715              1.610              1.247
 Vibration    16          0.727              1.574              1.164
 Vibration    17          0.788              1.413              0.871
 Vibration    18          0.801              1.381              0.824
 Vibration    19          0.815              1.347              0.777
 Vibration    20          0.839              1.289              0.703
 Vibration    21          0.858              1.244              0.651
 Vibration    22          0.878              1.199              0.603
 Vibration    23          0.901              1.149              0.553
 Vibration    24          0.914              1.120              0.526
 Vibration    25          0.944              1.060              0.473
 Vibration    26          0.960              1.029              0.447

                           ! Non-Optimized Parameters !
 Normal termination of Gaussian 16 at Sun Dec 13 13:09:41 2020.

 ----------------------------------------------------------------------
 # B3LYP/6-311++G(d,p) empiricaldispersion=gd3bj scf=xqc pop=npa geom=c
 heck
 ----------------------------------------------------------------------

 ----------------------------------------
 CID_116624636_JID_10034_Energie_neutraal
 ----------------------------------------
 Structure from the checkpoint file:  "JID_10034.chk"
 Charge =  0 Multiplicity = 1

 SCF Done:  E(RB3LYP) =  -843.711219729     A.U. after   15 cycles
 Normal termination of Gaussian 16 at Sun Dec 13 13:19:31 2020.

 ----------------------------------------------------------------------
 # B3LYP/6-311++G(d,p) empiricaldispersion=gd3bj scf=xqc pop=npa geom=c
 heck
 ----------------------------------------------------------------------

 --------------------------------------
 CID_116624636_JID_10034_Energie_kation
 --------------------------------------
 Structure from the checkpoint file:  "JID_10034.chk"
 Charge =  1 Multiplicity = 2

 SCF Done:  E(UB3LYP) =  -843.443663187     A.U. after   26 cycles
 Normal termination of Gaussian 16 at Sun Dec 13 13:44:50 2020.
 Gaussian 16:  ES64L-G16RevA.03 25-Dec-2016

 ----------------------------------------------------------------------
 # B3LYP/6-311++G(d,p) empiricaldispersion=gd3bj scf=xqc pop=npa geom=c
 heck
 ----------------------------------------------------------------------

 -------------------------------------
 CID_116624636_JID_10034_Energie_anion
 -------------------------------------
 Structure from the checkpoint file:  "JID_10034.chk"
 Charge = -1 Multiplicity = 2

                         Standard orientation:
 ---------------------------------------------------------------------
 Center     Atomic      Atomic             Coordinates (Angstroms)
 Number     Number       Type             X           Y           Z
 ---------------------------------------------------------------------
      1          6           0        5.491919   -0.599585   -0.249735
      2          6           0        4.882868    0.748824    0.136989
      3          6           0        3.656493    1.124383   -0.701979
      4          7           0        2.559366    0.182859   -0.546062
      5          6           0        2.204083   -0.869039   -1.391964
      6          6           0        1.153758   -1.510631   -0.831602
      7          7           0        0.865900   -0.868510    0.372903
      8          6           0        1.733138    0.197859    0.566434
      9          8           0        1.753802    0.994123    1.507739
     10          6           0       -0.204184   -1.198843    1.302908
     11          6           0       -1.574846   -1.107290    0.670755
     12          6           0       -2.278488   -2.265422    0.414775
     13          6           0       -3.547758   -2.236775   -0.209227
     14          6           0       -4.101356   -1.035464   -0.578441
     15          6           0       -3.417330    0.185023   -0.332359
     16          6           0       -3.982557    1.432908   -0.702482
     17          6           0       -3.316557    2.610698   -0.454302
     18          6           0       -2.054102    2.586941    0.181612
     19          6           0       -1.473400    1.394254    0.553902
     20          6           0       -2.133526    0.159380    0.306144
     21          1           0        4.767344   -1.411264   -0.123283
     22          1           0        6.363906   -0.830583    0.371195
     23          1           0        5.818536   -0.602621   -1.297656
     24          1           0        4.580816    0.744553    1.190403
     25          1           0        5.627986    1.547126    0.022917
     26          1           0        3.285598    2.108763   -0.401626
     27          1           0        3.907743    1.164052   -1.767673
     28          1           0        2.726677   -1.049990   -2.317767
     29          1           0        0.570992   -2.348443   -1.178776
     30          1           0       -0.046213   -2.213057    1.687055
     31          1           0       -0.086623   -0.504699    2.139266
     32          1           0       -1.847868   -3.222464    0.700386
     33          1           0       -4.075989   -3.167366   -0.395496
     34          1           0       -5.073989   -0.999193   -1.062734
     35          1           0       -4.956432    1.439124   -1.185828
     36          1           0       -3.759372    3.560147   -0.741915
     37          1           0       -1.534842    3.520043    0.380919
     38          1           0       -0.504477    1.409118    1.042247
 ---------------------------------------------------------------------

 SCF Done:  E(UB3LYP) =  -843.710395377     A.U. after   33 cycles
 SCF Done:  E(UB3LYP) =  -843.710395377     a.u. after    1 cycles

 The electronic state is 2-A.
 Alpha  occ. eigenvalues --  -18.97650 -14.25827 -14.25303 -10.18259 -10.11873
 Alpha  occ. eigenvalues --  -10.10681 -10.10435 -10.10335 -10.08065 -10.07232
 Alpha  occ. eigenvalues --  -10.05566 -10.05516 -10.04710 -10.04651 -10.04625
 Alpha  occ. eigenvalues --  -10.04473 -10.04125 -10.03818 -10.03760 -10.03138
 Alpha  occ. eigenvalues --   -0.95569  -0.88036  -0.82698  -0.74740  -0.70899
 Alpha  occ. eigenvalues --   -0.69424  -0.66701  -0.64651  -0.61738  -0.61392
 Alpha  occ. eigenvalues --   -0.60145  -0.57566  -0.52504  -0.51648  -0.49577
 Alpha  occ. eigenvalues --   -0.48713  -0.46744  -0.45284  -0.42424  -0.39461
 Alpha  occ. eigenvalues --   -0.38918  -0.38461  -0.37675  -0.37322  -0.36550
 Alpha  occ. eigenvalues --   -0.34890  -0.34181  -0.33179  -0.32503  -0.31867
 Alpha  occ. eigenvalues --   -0.31111  -0.30633  -0.29515  -0.29288  -0.28129
 Alpha  occ. eigenvalues --   -0.27317  -0.26816  -0.26293  -0.26193  -0.25576
 Alpha  occ. eigenvalues --   -0.24663  -0.22910  -0.21313  -0.20983  -0.20547
 Alpha  occ. eigenvalues --   -0.18066  -0.16982  -0.15861  -0.12459  -0.10210
 Alpha  occ. eigenvalues --   -0.09911   0.04143
 Alpha virt. eigenvalues --    0.05328   0.07371   0.07693   0.07943   0.08615
 Alpha virt. eigenvalues --    0.09090   0.09741   0.10238   0.10371   0.10437
 Alpha virt. eigenvalues --    0.10950   0.11253   0.11987   0.12130   0.12416

  Beta  occ. eigenvalues --  -18.97641 -14.25827 -14.25282 -10.18250 -10.11863
  Beta  occ. eigenvalues --  -10.10673 -10.10435 -10.10350 -10.08055 -10.07208
  Beta  occ. eigenvalues --  -10.05620 -10.05574 -10.04649 -10.04600 -10.04436
  Beta  occ. eigenvalues --  -10.04397 -10.04063 -10.03607 -10.03508 -10.02957
  Beta  occ. eigenvalues --   -0.95552  -0.88020  -0.82666  -0.74510  -0.70817
  Beta  occ. eigenvalues --   -0.69161  -0.66535  -0.64461  -0.61594  -0.61222
  Beta  occ. eigenvalues --   -0.59982  -0.57359  -0.52470  -0.51523  -0.49191
  Beta  occ. eigenvalues --   -0.48626  -0.46604  -0.45160  -0.42380  -0.39367
  Beta  occ. eigenvalues --   -0.38767  -0.38267  -0.37631  -0.37252  -0.36484
  Beta  occ. eigenvalues --   -0.34834  -0.34119  -0.33155  -0.32450  -0.31819
  Beta  occ. eigenvalues --   -0.31025  -0.30573  -0.29403  -0.29157  -0.28024
  Beta  occ. eigenvalues --   -0.27199  -0.26760  -0.26196  -0.25787  -0.25520
  Beta  occ. eigenvalues --   -0.24538  -0.22875  -0.21187  -0.20780  -0.19788
  Beta  occ. eigenvalues --   -0.17982  -0.16876  -0.14920  -0.11955  -0.10181
  Beta  occ. eigenvalues --   -0.08548
  Beta virt. eigenvalues --    0.06119   0.07549   0.07925   0.08057   0.08414
  Beta virt. eigenvalues --    0.08611   0.09072   0.09898   0.10282   0.10424
  Beta virt. eigenvalues --    0.10502   0.11073   0.11249   0.12050   0.12135

 Mulliken charges and spin densities:
               1          2
     1  C    0.332677  -0.907191
     2  C   -0.377962   0.272755
     3  C    0.187049  -0.314869
     4  N    0.131388   0.036342
     5  C   -0.388730   0.030426
     6  C    0.287621  -0.277455
     7  N    0.107648   0.026482
     8  C   -0.458667  -0.183834
     9  O   -0.346857   0.006306
    10  C   -0.687911  -0.002374
    11  C    0.766873   0.105691
    12  C   -0.266250   0.105550
    13  C   -0.341692   0.051527
    14  C   -0.367496   0.163124
    15  C    0.500807  -0.047131
    16  C   -0.383861   0.163159
    17  C   -0.313416   0.027531
    18  C   -0.332026   0.052089
    19  C   -0.336546   0.129098
    20  C    0.396515  -0.030733
    21  H    0.098276   0.073897
    22  H   -0.136660   0.266987
    23  H   -0.166594   0.303985
    24  H    0.206692  -0.027434
    25  H   -0.214205   0.364479
    26  H    0.175736   0.003891
    27  H   -0.160498   0.327636
    28  H   -0.131928   0.278070
    29  H    0.120565   0.043434
    30  H    0.174673  -0.001151
    31  H    0.231379   0.010904
    32  H    0.089528  -0.002939
    33  H    0.123955  -0.001034
    34  H    0.082024  -0.016887
    35  H    0.087149  -0.011317
    36  H    0.111210  -0.002903
    37  H    0.130563  -0.001436
    38  H    0.068971  -0.014676
 Sum of Mulliken charges =  -1.00000   1.00000

 Dipole moment (field-independent basis, Debye):
    X=             -0.6403    Y=             -2.1186    Z=              0.0034  Tot=              2.2132
 Quadrupole moment (field-independent basis, Debye-Ang):
   XX=           -206.2069   YY=           -140.2443   ZZ=           -142.8410
   XY=             -1.0378   XZ=              7.5453   YZ=             -3.5050

 Summary of Natural Population Analysis:

                                       Natural Population
                Natural  -----------------------------------------------
    Atom  No    Charge         Core      Valence    Rydberg      Total
 -----------------------------------------------------------------------
      C    1   -0.28967      0.99967     2.28486    0.00514     3.28967
      C    2   -0.19781      0.99964     2.18998    0.00820     3.19781
      C    3   -0.08099      0.99962     2.06966    0.01172     3.08099
      N    4   -0.24088      0.99963     2.73104    0.01020     3.74088
      C    5   -0.02924      0.99956     2.01843    0.01125     3.02924
      C    6   -0.02369      0.99956     2.01329    0.01084     3.02369
      N    7   -0.23157      0.99963     2.72173    0.01021     3.73157
      C    8    0.39500      0.99963     1.58100    0.02437     2.60500
      O    9   -0.35083      0.99988     3.34630    0.00465     4.35083
      C   10   -0.09149      0.99959     2.08199    0.00992     3.09149
      C   11   -0.00268      0.99952     1.98799    0.01518     3.00268
      C   12   -0.09542      0.99952     2.08754    0.00836     3.09542
      C   13   -0.10653      0.99957     2.09709    0.00987     3.10653
      C   14   -0.04848      0.99953     2.04069    0.00826     3.04848
      C   15   -0.05758      0.99955     2.04372    0.01430     3.05758
      C   16   -0.06224      0.99954     2.05384    0.00886     3.06224
      C   17   -0.10449      0.99957     2.09498    0.00994     3.10449
      C   18   -0.09362      0.99958     2.08492    0.00913     3.09362
      C   19   -0.09130      0.99959     2.07596    0.01575     3.09130
      C   20    0.03208      0.99947     1.95831    0.01014     2.96792
      H   21    0.10011      0.00000     0.39869    0.00120     0.39989
      H   22    0.09877      0.00000     0.40048    0.00075     0.40123
      H   23    0.09642      0.00000     0.40213    0.00145     0.40358
      H   24    0.10422      0.00000     0.39470    0.00107     0.39578
      H   25    0.09611      0.00000     0.40276    0.00113     0.40389
      H   26    0.10788      0.00000     0.39112    0.00100     0.39212
      H   27    0.09602      0.00000     0.40273    0.00125     0.40398
      H   28    0.10485      0.00000     0.39417    0.00099     0.39515
      H   29    0.10905      0.00000     0.38986    0.00109     0.39095
      H   30    0.09429      0.00000     0.40467    0.00104     0.40571
      H   31    0.11766      0.00000     0.38118    0.00117     0.38234
      H   32    0.08934      0.00000     0.40957    0.00109     0.41066
      H   33    0.09035      0.00000     0.40809    0.00155     0.40965
      H   34    0.08766      0.00000     0.41074    0.00159     0.41234
      H   35    0.09133      0.00000     0.40781    0.00086     0.40867
      H   36    0.09031      0.00000     0.40862    0.00106     0.40969
      H   37    0.09221      0.00000     0.40678    0.00100     0.40779
      H   38    0.10673      0.00000     0.39117    0.00210     0.39327
 =======================================================================
   * Total *    0.00188     19.99183    50.76859    0.23770    70.99812

 Normal termination of Gaussian 16 at Sun Dec 13 14:16:41 2020.
