 Gaussian 16, Revision A.03,

 -----------------------------------------------------------
 # opt freq B3LYP/6-31G(d) empiricaldispersion=gd3bj scf=xqc
 -----------------------------------------------------------

 ------------------------------
 CID_61234240_JID_6175_neutraal
 ------------------------------
 Symbolic Z-matrix:
 Charge =  0 Multiplicity = 1

 SCF Done:  E(RB3LYP) =  -726.899068974     A.U. after   15 cycles
 SCF Done:  E(RB3LYP) =  -726.903118715     A.U. after   12 cycles
 SCF Done:  E(RB3LYP) =  -726.903486252     A.U. after   12 cycles
 SCF Done:  E(RB3LYP) =  -726.903775122     A.U. after   11 cycles
 SCF Done:  E(RB3LYP) =  -726.903849492     A.U. after   11 cycles
 SCF Done:  E(RB3LYP) =  -726.903873780     A.U. after   10 cycles
 SCF Done:  E(RB3LYP) =  -726.903880329     A.U. after    9 cycles
 SCF Done:  E(RB3LYP) =  -726.903882074     A.U. after    8 cycles
 SCF Done:  E(RB3LYP) =  -726.903882348     A.U. after    8 cycles
 SCF Done:  E(RB3LYP) =  -726.903882473     A.U. after    7 cycles
 SCF Done:  E(RB3LYP) =  -726.903882518     A.U. after    7 cycles
 Optimization completed.
    -- Stationary point found.
 Normal termination of Gaussian 16 at Thu Dec 10 21:13:39 2020.

 --------------------------------------------------------------------
 #N Geom=AllCheck Guess=TCheck SCRF=Check GenChk RB3LYP/6-31G(d) Freq
 --------------------------------------------------------------------

 Structure from the checkpoint file:  "JID_6175.chk"
 ------------------------------
 CID_61234240_JID_6175_neutraal
 ------------------------------
 Charge =  0 Multiplicity = 1

 SCF Done:  E(RB3LYP) =  -726.903882518     A.U. after    1 cycles

  Exact polarizability: 167.454  -6.903 124.140  11.161   9.334 114.320
 Approx polarizability: 219.029 -12.897 198.679  17.499  32.460 185.999

                      1                      2                      3
                      A                      A                      A
 Frequencies --     38.0239                56.5216                84.7576
 Red. masses --      4.9215                 4.3827                 6.5792
 Frc consts  --      0.0042                 0.0082                 0.0278
 IR Inten    --      0.1403                 0.5029                 4.1797

                      4                      5                      6
                      A                      A                      A
 Frequencies --    117.0690               162.2467               181.5878
 Red. masses --      4.6947                 3.3659                 2.0149
 Frc consts  --      0.0379                 0.0522                 0.0391
 IR Inten    --      1.1058                 1.7203                 0.2910

                      7                      8                      9
                      A                      A                      A
 Frequencies --    207.8770               223.5579               283.4946
 Red. masses --      5.0156                 3.4308                 1.5776
 Frc consts  --      0.1277                 0.1010                 0.0747
 IR Inten    --      0.1552                 3.2154                20.0912

                     10                     11                     12
                      A                      A                      A
 Frequencies --    294.4802               331.8552               341.3627
 Red. masses --      2.5059                 2.0729                 3.4662
 Frc consts  --      0.1280                 0.1345                 0.2380
 IR Inten    --     12.2013                16.3148                15.5291

                     13                     14                     15
                      A                      A                      A
 Frequencies --    380.6633               428.5217               445.9758
 Red. masses --      3.3159                 4.5693                 3.6270
 Frc consts  --      0.2831                 0.4944                 0.4250
 IR Inten    --      1.4390                 0.7994                 6.1237

                     16                     17                     18
                      A                      A                      A
 Frequencies --    479.7616               494.3893               560.2852
 Red. masses --      2.1878                 3.7628                 4.9473
 Frc consts  --      0.2967                 0.5419                 0.9150
 IR Inten    --     10.3838                 1.8636                 3.2144

                     19                     20                     21
                      A                      A                      A
 Frequencies --    611.8482               627.6115               678.8316
 Red. masses --      3.2234                 4.2401                 4.5452
 Frc consts  --      0.7110                 0.9840                 1.2340
 IR Inten    --      5.4767                 1.7167                11.7395

                     22                     23                     24
                      A                      A                      A
 Frequencies --    754.4597               760.2598               764.5476
 Red. masses --      2.0506                 3.0894                 2.5558
 Frc consts  --      0.6877                 1.0521                 0.8802
 IR Inten    --     14.4332                 5.5215                37.8678

                     25                     26                     27
                      A                      A                      A
 Frequencies --    782.1014               811.5109               829.6059
 Red. masses --      4.4344                 1.6712                 1.3485
 Frc consts  --      1.5981                 0.6484                 0.5468
 IR Inten    --     13.1636                 4.5612                 8.4926

                     28                     29                     30
                      A                      A                      A
 Frequencies --    844.8557               870.7920               878.6508
 Red. masses --      2.9646                 2.3151                 1.3255
 Frc consts  --      1.2468                 1.0343                 0.6029
 IR Inten    --     10.6812                79.9193                 1.3714

                     31                     32                     33
                      A                      A                      A
 Frequencies --    892.5116               897.1671               910.7238
 Red. masses --      1.5270                 2.7668                 5.6869
 Frc consts  --      0.7167                 1.3121                 2.7791
 IR Inten    --     10.1859                 2.6350                12.3454

                     34                     35                     36
                      A                      A                      A
 Frequencies --    914.0185               926.1940               964.0445
 Red. masses --      1.7369                 2.8478                 3.1165
 Frc consts  --      0.8549                 1.4393                 1.7065
 IR Inten    --     73.9507                41.8348                 3.0170

                     37                     38                     39
                      A                      A                      A
 Frequencies --    997.9742              1007.9841              1029.6780
 Red. masses --      2.3362                 1.9776                 1.7153
 Frc consts  --      1.3709                 1.1838                 1.0715
 IR Inten    --     19.0076                10.8728                 4.4429

                     40                     41                     42
                      A                      A                      A
 Frequencies --   1043.9874              1051.3842              1080.3126
 Red. masses --      2.0352                 1.3543                 1.5975
 Frc consts  --      1.3069                 0.8821                 1.0984
 IR Inten    --     22.0013                23.0786                 7.6133

                     43                     44                     45
                      A                      A                      A
 Frequencies --   1119.4946              1123.9624              1141.2155
 Red. masses --      2.5345                 2.2681                 1.8326
 Frc consts  --      1.8715                 1.6882                 1.4062
 IR Inten    --     42.8492                 1.4304                 7.2737

                     46                     47                     48
                      A                      A                      A
 Frequencies --   1143.0591              1178.5527              1186.1210
 Red. masses --      1.4969                 1.4948                 2.1507
 Frc consts  --      1.1524                 1.2233                 1.7827
 IR Inten    --      6.5168                 2.0002                23.4681

                     49                     50                     51
                      A                      A                      A
 Frequencies --   1214.6766              1221.2548              1241.4781
 Red. masses --      1.5497                 1.8810                 2.3720
 Frc consts  --      1.3472                 1.6529                 2.1539
 IR Inten    --     23.8903                20.0273                 4.8899

                     52                     53                     54
                      A                      A                      A
 Frequencies --   1262.7833              1271.4822              1283.6344
 Red. masses --      1.6294                 1.3211                 1.9796
 Frc consts  --      1.5308                 1.2583                 1.9218
 IR Inten    --      3.4983                 3.5238                16.1368

                     55                     56                     57
                      A                      A                      A
 Frequencies --   1303.3629              1311.9511              1320.6313
 Red. masses --      1.4148                 1.5760                 1.4392
 Frc consts  --      1.4161                 1.5982                 1.4789
 IR Inten    --      6.5450                 2.5885                 8.6751

                     58                     59                     60
                      A                      A                      A
 Frequencies --   1351.6377              1359.3364              1365.2594
 Red. masses --      1.5003                 1.4903                 1.3439
 Frc consts  --      1.6149                 1.6224                 1.4759
 IR Inten    --     12.4579                 5.9528                15.2200

                     61                     62                     63
                      A                      A                      A
 Frequencies --   1377.8372              1393.2351              1406.8506
 Red. masses --      1.7167                 1.4484                 1.4204
 Frc consts  --      1.9202                 1.6565                 1.6564
 IR Inten    --     25.2147                29.0024                11.8532

                     64                     65                     66
                      A                      A                      A
 Frequencies --   1426.4390              1444.5266              1449.0390
 Red. masses --      2.4627                 3.3527                 1.4473
 Frc consts  --      2.9523                 4.1219                 1.7905
 IR Inten    --    134.2042               197.2085                17.4010

                     67                     68                     69
                      A                      A                      A
 Frequencies --   1507.2686              1519.4983              1520.8209
 Red. masses --      1.0895                 1.2628                 3.0147
 Frc consts  --      1.4584                 1.7178                 4.1083
 IR Inten    --      1.2228                20.5942                74.6873

                     70                     71                     72
                      A                      A                      A
 Frequencies --   1523.9848              1541.2484              1621.1495
 Red. masses --      1.1031                 1.0993                 5.6157
 Frc consts  --      1.5095                 1.5386                 8.6956
 IR Inten    --     10.3884                 3.5406                32.6949

                     73                     74                     75
                      A                      A                      A
 Frequencies --   1695.3762              1737.2185              3027.4750
 Red. masses --      1.0910                12.4532                 1.0600
 Frc consts  --      1.8476                22.1432                 5.7240
 IR Inten    --     24.4775               245.5335                25.1694

                     76                     77                     78
                      A                      A                      A
 Frequencies --   3034.3456              3061.9472              3070.7517
 Red. masses --      1.0839                 1.0612                 1.0997
 Frc consts  --      5.8799                 5.8619                 6.1095
 IR Inten    --     18.8512                16.6450                29.5607

                     79                     80                     81
                      A                      A                      A
 Frequencies --   3075.4218              3085.6766              3106.4943
 Red. masses --      1.0628                 1.0613                 1.1046
 Frc consts  --      5.9227                 5.9535                 6.2806
 IR Inten    --     35.7061                43.7645                30.1641

                     82                     83                     84
                      A                      A                      A
 Frequencies --   3110.5724              3130.3915              3142.8662
 Red. masses --      1.1073                 1.1058                 1.0886
 Frc consts  --      6.3126                 6.3845                 6.3353
 IR Inten    --      3.6503                39.5886                21.6896

                     85                     86                     87
                      A                      A                      A
 Frequencies --   3159.1061              3268.2374              3280.5872
 Red. masses --      1.0870                 1.0908                 1.0975
 Frc consts  --      6.3917                 6.8646                 6.9591
 IR Inten    --     23.2543                 5.2629                 0.9466

                     88                     89                     90
                      A                      A                      A
 Frequencies --   3303.2614              3446.3086              3532.4812
 Red. masses --      1.1049                 1.0492                 1.0921
 Frc consts  --      7.1032                 7.3423                 8.0292
 IR Inten    --      0.9678                 2.7506                 1.2827

 - Thermochemistry -
 -------------------
 Temperature   298.150 Kelvin.  Pressure   1.00000 Atm.
 Atom     1 has atomic number  6 and mass  12.00000

 Molecular mass:   220.12118 amu.
 Principal axes and moments of inertia in atomic units:
                           1         2         3
     Eigenvalues --  1831.593805074.132425323.23018
           X            0.99998   0.00284   0.00499
           Y           -0.00268   0.99947  -0.03252
           Z           -0.00508   0.03251   0.99946
 This molecule is an asymmetric top.
 Rotational symmetry number  1.
 Warning -- assumption of classical behavior for rotation
           may cause significant error
 Rotational temperatures (Kelvin)      0.04729     0.01707     0.01627
 Rotational constants (GHZ):           0.98534     0.35567     0.33903
 Zero-point vibrational energy     720413.9 (Joules/Mol)
                                  172.18305 (Kcal/Mol)
 Warning -- explicit consideration of  19 degrees of freedom as
           vibrations may cause significant error
 Vibrational temperatures:     54.71    81.32   121.95   168.44   233.44
          (Kelvin)            261.26   299.09   321.65   407.89   423.69
                              477.47   491.14   547.69   616.55   641.66
                              690.27   711.32   806.13   880.31   902.99
                              976.69  1085.50  1093.84  1100.01  1125.27
                             1167.58  1193.62  1215.56  1252.88  1264.18
                             1284.13  1290.82  1310.33  1315.07  1332.59
                             1387.05  1435.86  1450.26  1481.48  1502.06
                             1512.71  1554.33  1610.70  1617.13  1641.95
                             1644.61  1695.67  1706.56  1747.65  1757.11
                             1786.21  1816.86  1829.38  1846.86  1875.25
                             1887.61  1900.09  1944.71  1955.78  1964.30
                             1982.40  2004.55  2024.14  2052.33  2078.35
                             2084.84  2168.62  2186.22  2188.12  2192.67
                             2217.51  2332.47  2439.27  2499.47  4355.86
                             4365.75  4405.46  4418.13  4424.85  4439.60
                             4469.55  4475.42  4503.94  4521.88  4545.25
                             4702.26  4720.03  4752.66  4958.47  5082.45

 Zero-point correction=                           0.274391 (Hartree/Particle)
 Thermal correction to Energy=                    0.287750
 Thermal correction to Enthalpy=                  0.288694
 Thermal correction to Gibbs Free Energy=         0.233987
 Sum of electronic and zero-point Energies=           -726.629491
 Sum of electronic and thermal Energies=              -726.616132
 Sum of electronic and thermal Enthalpies=            -726.615188
 Sum of electronic and thermal Free Energies=         -726.669895

                     E (Thermal)             CV                S
                      KCal/Mol        Cal/Mol-Kelvin    Cal/Mol-Kelvin
 Total                  180.566             53.606            115.141
 Electronic               0.000              0.000              0.000
 Translational            0.889              2.981             42.070
 Rotational               0.889              2.981             32.270
 Vibrational            178.789             47.645             40.801
 Vibration     1          0.594              1.982              5.359
 Vibration     2          0.596              1.975              4.575
 Vibration     3          0.601              1.960              3.778
 Vibration     4          0.608              1.935              3.148
 Vibration     5          0.622              1.889              2.523
 Vibration     6          0.630              1.865              2.312
 Vibration     7          0.641              1.829              2.062
 Vibration     8          0.649              1.805              1.930
 Vibration     9          0.682              1.704              1.512
 Vibration    10          0.689              1.684              1.448
 Vibration    11          0.714              1.612              1.251
 Vibration    12          0.721              1.593              1.206
 Vibration    13          0.750              1.511              1.037
 Vibration    14          0.790              1.408              0.863
 Vibration    15          0.805              1.370              0.808
 Vibration    16          0.836              1.295              0.711
 Vibration    17          0.850              1.262              0.672
 Vibration    18          0.916              1.117              0.523
 Vibration    19          0.971              1.007              0.430

 Optimization completed.
    -- Stationary point found.
 Normal termination of Gaussian 16 at Thu Dec 10 21:25:22 2020.

 ----------------------------------------------------------------------
 # B3LYP/6-311++G(d,p) empiricaldispersion=gd3bj scf=xqc pop=npa geom=c
 heck
 ----------------------------------------------------------------------

 --------------------------------------
 CID_61234240_JID_6175_Energie_neutraal
 --------------------------------------
 Structure from the checkpoint file:  "JID_6175.chk"
 Charge =  0 Multiplicity = 1

 SCF Done:  E(RB3LYP) =  -727.109314627     A.U. after   15 cycles
 Normal termination of Gaussian 16 at Thu Dec 10 21:31:06 2020.

 ----------------------------------------------------------------------
 # B3LYP/6-311++G(d,p) empiricaldispersion=gd3bj scf=xqc pop=npa geom=c
 heck
 ----------------------------------------------------------------------

 ------------------------------------
 CID_61234240_JID_6175_Energie_kation
 ------------------------------------
 Structure from the checkpoint file:  "JID_6175.chk"
 Charge =  1 Multiplicity = 2

 SCF Done:  E(UB3LYP) =  -726.809963592     A.U. after   27 cycles
 Normal termination of Gaussian 16 at Thu Dec 10 21:44:50 2020.
 Gaussian 16:  ES64L-G16RevA.03 25-Dec-2016

 ----------------------------------------------------------------------
 # B3LYP/6-311++G(d,p) empiricaldispersion=gd3bj scf=xqc pop=npa geom=c
 heck
 ----------------------------------------------------------------------

 -----------------------------------
 CID_61234240_JID_6175_Energie_anion
 -----------------------------------
 Structure from the checkpoint file:  "JID_6175.chk"
 Charge = -1 Multiplicity = 2

                         Standard orientation:
 ---------------------------------------------------------------------
 Center     Atomic      Atomic             Coordinates (Angstroms)
 Number     Number       Type             X           Y           Z
 ---------------------------------------------------------------------
      1          6           0        2.270176   -1.816725    0.662327
      2          6           0        1.656255   -2.001177   -0.756649
      3          6           0        0.635030   -0.849451   -0.888671
      4          6           0        1.267571    0.447933   -1.429848
      5          6           0        2.518269    0.866875   -0.622710
      6          6           0        2.266851    0.742864    0.888997
      7          6           0        1.553593   -0.575269    1.237908
      8          7           0        0.266587   -0.625934    0.522587
      9          6           0       -0.795530    0.108374    0.988594
     10          8           0       -0.750151    0.756651    2.031312
     11          6           0       -2.053215    0.008321    0.209300
     12          6           0       -2.647267   -0.972169   -0.542337
     13          6           0       -3.938641   -0.482890   -0.910038
     14          6           0       -4.036763    0.760205   -0.355921
     15          8           0       -2.908787    1.069811    0.330549
     16          7           0        3.018139    2.211911   -0.920659
     17          1           0        3.354623   -1.675633    0.637170
     18          1           0        2.065357   -2.692123    1.284628
     19          1           0        2.405691   -1.963621   -1.552832
     20          1           0        1.144060   -2.964686   -0.832195
     21          1           0       -0.233779   -1.124620   -1.483970
     22          1           0        0.514172    1.246008   -1.374215
     23          1           0        1.531795    0.326161   -2.489343
     24          1           0        3.331505    0.178363   -0.888176
     25          1           0        1.630044    1.566945    1.232277
     26          1           0        3.220207    0.824098    1.422595
     27          1           0        1.370766   -0.635930    2.311027
     28          1           0       -2.227086   -1.940219   -0.773621
     29          1           0       -4.689814   -0.989483   -1.499165
     30          1           0       -4.804604    1.518609   -0.360319
     31          1           0        3.198986    2.298366   -1.920689
     32          1           0        2.288523    2.892889   -0.707265
 ---------------------------------------------------------------------

 SCF Done:  E(UB3LYP) =  -727.102176797     A.U. after   33 cycles
 SCF Done:  E(UB3LYP) =  -727.102176797     a.u. after    1 cycles

 The electronic state is 2-A.
 Alpha  occ. eigenvalues --  -19.06836 -18.95869 -14.21362 -14.19076 -10.14280
 Alpha  occ. eigenvalues --  -10.10927 -10.10330 -10.10052 -10.09823 -10.09412
 Alpha  occ. eigenvalues --  -10.07035 -10.06803 -10.06578 -10.05865 -10.05809
 Alpha  occ. eigenvalues --  -10.05684  -0.99895  -0.91285  -0.83664  -0.78482
 Alpha  occ. eigenvalues --   -0.69649  -0.68579  -0.66356  -0.64295  -0.64064
 Alpha  occ. eigenvalues --   -0.54758  -0.54466  -0.49829  -0.49269  -0.48010
 Alpha  occ. eigenvalues --   -0.45656  -0.43762  -0.42182  -0.39857  -0.37120
 Alpha  occ. eigenvalues --   -0.36333  -0.34819  -0.33811  -0.33128  -0.32453
 Alpha  occ. eigenvalues --   -0.31954  -0.30843  -0.30424  -0.29664  -0.29123
 Alpha  occ. eigenvalues --   -0.28425  -0.28173  -0.26115  -0.25671  -0.25248
 Alpha  occ. eigenvalues --   -0.23914  -0.22571  -0.21614  -0.21264  -0.17553
 Alpha  occ. eigenvalues --   -0.14700  -0.14109  -0.12582  -0.12065   0.04538
 Alpha virt. eigenvalues --    0.06589   0.07203   0.07590   0.08282   0.09013
 Alpha virt. eigenvalues --    0.09424   0.10237   0.10681   0.11189   0.11811
 Alpha virt. eigenvalues --    0.12297   0.13141   0.13510   0.13638   0.13832

  Beta  occ. eigenvalues --  -19.06674 -18.95687 -14.21342 -14.19050 -10.14141
  Beta  occ. eigenvalues --  -10.10796 -10.10240 -10.10040 -10.09825 -10.09404
  Beta  occ. eigenvalues --  -10.07030 -10.06787 -10.06624 -10.05789 -10.05772
  Beta  occ. eigenvalues --  -10.05673  -0.99626  -0.90988  -0.83543  -0.78435
  Beta  occ. eigenvalues --   -0.69505  -0.68470  -0.66313  -0.64256  -0.63816
  Beta  occ. eigenvalues --   -0.54697  -0.54290  -0.49667  -0.49192  -0.47951
  Beta  occ. eigenvalues --   -0.45482  -0.43651  -0.42122  -0.39801  -0.37031
  Beta  occ. eigenvalues --   -0.36141  -0.34507  -0.33418  -0.32983  -0.32380
  Beta  occ. eigenvalues --   -0.31883  -0.30787  -0.30372  -0.29587  -0.29050
  Beta  occ. eigenvalues --   -0.28303  -0.27852  -0.25984  -0.25628  -0.24881
  Beta  occ. eigenvalues --   -0.23744  -0.22524  -0.21590  -0.21177  -0.17048
  Beta  occ. eigenvalues --   -0.14455  -0.13963  -0.12175  -0.11421
  Beta virt. eigenvalues --    0.06940   0.07476   0.07921   0.08574   0.08673
  Beta virt. eigenvalues --    0.09283   0.09449   0.10618   0.11010   0.11344
  Beta virt. eigenvalues --    0.11984   0.12457   0.13621   0.13676   0.13934

 Mulliken charges and spin densities:
               1          2
     1  C   -0.482470  -0.088112
     2  C    1.203638  -1.760851
     3  C   -0.852880   1.248225
     4  C   -0.344350  -0.341668
     5  C    0.814267  -1.399621
     6  C   -0.451060   0.059427
     7  C    0.140258   0.130186
     8  N    0.224998  -0.024154
     9  C    0.178544  -0.567147
    10  O   -0.344084   0.069897
    11  C   -0.386980  -0.033122
    12  C    0.017188   0.774989
    13  C   -0.041538  -0.682140
    14  C   -0.072686   0.359417
    15  O    0.004896   0.033154
    16  N   -0.391596   0.138267
    17  H    0.099232   0.042124
    18  H    0.029958   0.116874
    19  H   -0.243761   0.406614
    20  H    0.006723   0.151408
    21  H   -0.425703   0.614199
    22  H    0.313836  -0.157604
    23  H   -0.726689   0.919565
    24  H    0.221669  -0.028056
    25  H    0.166745   0.042707
    26  H    0.002249   0.164475
    27  H    0.237441   0.004374
    28  H   -0.053635   0.224686
    29  H    0.016530   0.122002
    30  H    0.095564   0.050204
    31  H   -0.082694   0.313822
    32  H    0.126388   0.095861
 Sum of Mulliken charges =  -1.00000   1.00000

 Dipole moment (field-independent basis, Debye):
    X=             -1.7319    Y=             -1.1578    Z=              2.1105  Tot=              2.9655
 Quadrupole moment (field-independent basis, Debye-Ang):
   XX=           -144.8639   YY=           -124.0283   ZZ=           -139.3536
   XY=             -5.6448   XZ=             14.3886   YZ=             -6.6797

 Summary of Natural Population Analysis:

                                       Natural Population
                Natural  -----------------------------------------------
    Atom  No    Charge         Core      Valence    Rydberg      Total
 -----------------------------------------------------------------------
      C    1   -0.19454      0.99962     2.18644    0.00848     3.19454
      C    2   -0.19364      0.99962     2.18522    0.00880     3.19364
      C    3   -0.00687      0.99959     1.99275    0.01453     3.00687
      C    4   -0.20151      0.99959     2.19103    0.01089     3.20151
      C    5   -0.01748      0.99958     2.00599    0.01190     3.01748
      C    6   -0.19793      0.99959     2.18966    0.00868     3.19793
      C    7   -0.00409      0.99960     1.99238    0.01210     3.00409
      N    8   -0.26317      0.99965     2.75359    0.00993     3.76317
      C    9    0.33736      0.99959     1.64118    0.02188     2.66264
      O   10   -0.30206      0.99988     3.29742    0.00476     4.30206
      C   11    0.11924      0.99944     1.86581    0.01551     2.88076
      C   12   -0.12614      0.99952     2.11766    0.00896     3.12614
      C   13   -0.17055      0.99957     2.16232    0.00866     3.17055
      C   14    0.08292      0.99953     1.90319    0.01436     2.91708
      O   15   -0.20787      0.99986     3.20039    0.00763     4.20787
      N   16   -0.41956      0.99977     2.90951    0.01029     3.91956
      H   17    0.09781      0.00000     0.40121    0.00097     0.40219
      H   18    0.09978      0.00000     0.39926    0.00097     0.40022
      H   19    0.10095      0.00000     0.39772    0.00133     0.39905
      H   20    0.10123      0.00000     0.39750    0.00126     0.39877
      H   21    0.11050      0.00000     0.38710    0.00240     0.38950
      H   22    0.09917      0.00000     0.39926    0.00157     0.40083
      H   23    0.10345      0.00000     0.39387    0.00268     0.39655
      H   24    0.08814      0.00000     0.40969    0.00217     0.41186
      H   25    0.10868      0.00000     0.39018    0.00115     0.39132
      H   26    0.10088      0.00000     0.39812    0.00100     0.39912
      H   27    0.10928      0.00000     0.38930    0.00142     0.39072
      H   28    0.10778      0.00000     0.39137    0.00085     0.39222
      H   29    0.10414      0.00000     0.39516    0.00070     0.39586
      H   30    0.08863      0.00000     0.41056    0.00082     0.41137
      H   31    0.17563      0.00000     0.32244    0.00193     0.32437
      H   32    0.16984      0.00000     0.32841    0.00174     0.33016
 =======================================================================
   * Total *    0.00000     15.99401    42.80567    0.20032    59.00000

 Normal termination of Gaussian 16 at Thu Dec 10 22:02:10 2020.
