 Gaussian 16, Revision A.03,

 -----------------------------------------------------------
 # opt freq B3LYP/6-31G(d) empiricaldispersion=gd3bj scf=xqc
 -----------------------------------------------------------

 ----------------------------
 CID_64490320_JID_77_neutraal
 ----------------------------
 Symbolic Z-matrix:
 Charge =  0 Multiplicity = 1

 SCF Done:  E(RB3LYP) =  -409.159067775     A.U. after   12 cycles
 SCF Done:  E(RB3LYP) =  -409.162832389     A.U. after   11 cycles
 SCF Done:  E(RB3LYP) =  -409.162372073     A.U. after   11 cycles
 SCF Done:  E(RB3LYP) =  -409.163727571     A.U. after   10 cycles
 SCF Done:  E(RB3LYP) =  -409.164709198     A.U. after   10 cycles
 SCF Done:  E(RB3LYP) =  -409.164856431     A.U. after   11 cycles
 SCF Done:  E(RB3LYP) =  -409.165122130     A.U. after   10 cycles
 SCF Done:  E(RB3LYP) =  -409.165199299     A.U. after   10 cycles
 SCF Done:  E(RB3LYP) =  -409.165202861     A.U. after    8 cycles
 SCF Done:  E(RB3LYP) =  -409.165204469     A.U. after    7 cycles
 SCF Done:  E(RB3LYP) =  -409.165204660     A.U. after    7 cycles
 SCF Done:  E(RB3LYP) =  -409.165204708     A.U. after    6 cycles
 Optimization completed.
    -- Stationary point found.

 1\1\GINC-NODE313\FOpt\RB3LYP\6-31G(d)\C9H19N1\VSC10255\08-Dec-2020\0\\
 # opt freq B3LYP/6-31G(d) empiricaldispersion=gd3bj scf=xqc\\CID_64490
 320_JID_77_neutraal\\0,1\C,1.4627798596,0.0105561944,0.0237439526\C,0.
 7135196717,-0.8324055304,1.0705557101\C,1.1766787381,-0.3789799531,2.4
 690461291\C,-0.7996586808,-0.5865545429,0.9513117242\C,1.0437866675,-2
 .3409867183,0.9523671173\C,0.4478865844,-3.1838177675,-0.1898131678\C,
 0.9437146985,-2.8158311017,-1.5831110172\C,0.2845624482,-3.4491635283,
 -2.7861681719\C,0.1235776338,-1.9727208061,-2.5287301031\N,0.714734064

 Normal termination of Gaussian 16 at Tue Dec  8 10:17:18 2020.

 --------------------------------------------------------------------
 #N Geom=AllCheck Guess=TCheck SCRF=Check GenChk RB3LYP/6-31G(d) Freq
 --------------------------------------------------------------------

 Structure from the checkpoint file:  "JID_77.chk"
 ----------------------------
 CID_64490320_JID_77_neutraal
 ----------------------------
 Charge =  0 Multiplicity = 1

 SCF Done:  E(RB3LYP) =  -409.165204708     A.U. after    1 cycles

  Exact polarizability: 111.988   1.012  96.911   0.348  -0.844  88.447
 Approx polarizability: 138.412   2.221 136.990   1.540  -2.381 133.500

                      1                      2                      3
                      A                      A                      A
 Frequencies --     56.2920                90.4910               127.4852
 Red. masses --      2.9334                 2.2763                 2.7859
 Frc consts  --      0.0055                 0.0110                 0.0267
 IR Inten    --      0.2742                 0.0969                 0.0683

                      4                      5                      6
                      A                      A                      A
 Frequencies --    165.1412               217.1568               231.4500
 Red. masses --      2.7024                 2.5616                 1.0794
 Frc consts  --      0.0434                 0.0712                 0.0341
 IR Inten    --      0.5177                 0.8968                 0.0200

                      7                      8                      9
                      A                      A                      A
 Frequencies --    263.2150               268.3165               282.1352
 Red. masses --      1.1868                 1.1604                 2.1372
 Frc consts  --      0.0484                 0.0492                 0.1002
 IR Inten    --     30.3307                 2.5319                 0.6152

                     10                     11                     12
                      A                      A                      A
 Frequencies --    288.7951               303.6863               331.2352
 Red. masses --      1.1870                 2.2143                 2.5513
 Frc consts  --      0.0583                 0.1203                 0.1649
 IR Inten    --      0.3053                 2.8588                12.6515

                     13                     14                     15
                      A                      A                      A
 Frequencies --    349.4211               381.8112               420.2325
 Red. masses --      1.9665                 2.3343                 2.0121
 Frc consts  --      0.1415                 0.2005                 0.2094
 IR Inten    --      1.7097                 0.5508                 0.0434

                     16                     17                     18
                      A                      A                      A
 Frequencies --    465.2524               509.7831               547.9819
 Red. masses --      2.5998                 2.4819                 2.5843
 Frc consts  --      0.3316                 0.3800                 0.4572
 IR Inten    --      3.9491                 2.8094                 2.9102

                     19                     20                     21
                      A                      A                      A
 Frequencies --    758.8648               772.9203               816.1366
 Red. masses --      2.2054                 1.9894                 1.2336
 Frc consts  --      0.7483                 0.7002                 0.4841
 IR Inten    --      0.5504                 8.0352                 1.9719

                     22                     23                     24
                      A                      A                      A
 Frequencies --    835.2400               899.6482               918.4996
 Red. masses --      1.2897                 1.9624                 2.0852
 Frc consts  --      0.5301                 0.9358                 1.0364
 IR Inten    --     13.1229                70.8817                 1.0404

                     25                     26                     27
                      A                      A                      A
 Frequencies --    941.7166               945.2357               946.8014
 Red. masses --      1.8206                 3.0457                 2.2435
 Frc consts  --      0.9513                 1.6033                 1.1849
 IR Inten    --     18.3536                37.2897                16.3555

                     28                     29                     30
                      A                      A                      A
 Frequencies --    956.6046               971.5709               978.0600
 Red. masses --      1.6786                 1.2433                 1.5199
 Frc consts  --      0.9050                 0.6915                 0.8567
 IR Inten    --      0.8548                10.6005                47.8705

                     31                     32                     33
                      A                      A                      A
 Frequencies --   1032.9537              1057.0514              1062.9011
 Red. masses --      2.0415                 1.3439                 1.3832
 Frc consts  --      1.2834                 0.8847                 0.9207
 IR Inten    --      1.3015                 1.4817                 4.8734

                     34                     35                     36
                      A                      A                      A
 Frequencies --   1069.9953              1087.4471              1116.1114
 Red. masses --      1.3559                 1.3892                 2.0564
 Frc consts  --      0.9146                 0.9679                 1.5093
 IR Inten    --     12.6376                 2.4254                 2.6965

                     37                     38                     39
                      A                      A                      A
 Frequencies --   1147.0370              1157.8426              1185.9260
 Red. masses --      1.1149                 1.5480                 1.4601
 Frc consts  --      0.8642                 1.2227                 1.2099
 IR Inten    --      0.3945                 7.6042                 9.7534

                     40                     41                     42
                      A                      A                      A
 Frequencies --   1212.1584              1234.3896              1247.8746
 Red. masses --      1.3821                 1.9644                 2.3369
 Frc consts  --      1.1965                 1.7635                 2.1440
 IR Inten    --      0.5971                 2.1332                15.1146

                     43                     44                     45
                      A                      A                      A
 Frequencies --   1266.8121              1294.0823              1322.5881
 Red. masses --      2.0695                 2.7486                 1.5881
 Frc consts  --      1.9568                 2.7120                 1.6367
 IR Inten    --      3.6137                 6.2097                 8.6654

                     46                     47                     48
                      A                      A                      A
 Frequencies --   1362.3797              1390.9481              1421.4746
 Red. masses --      1.2966                 1.3440                 1.3790
 Frc consts  --      1.4179                 1.5320                 1.6417
 IR Inten    --      4.5526                 2.0710                 3.2067

                     49                     50                     51
                      A                      A                      A
 Frequencies --   1427.3497              1428.7081              1439.6464
 Red. masses --      1.2317                 1.2546                 1.5585
 Frc consts  --      1.4785                 1.5089                 1.9031
 IR Inten    --      4.7691                 6.5676                 6.6196

                     52                     53                     54
                      A                      A                      A
 Frequencies --   1459.4688              1493.4828              1509.4328
 Red. masses --      1.2372                 1.0884                 1.0743
 Frc consts  --      1.5527                 1.4303                 1.4421
 IR Inten    --      5.4351                 0.4991                 0.1590

                     55                     56                     57
                      A                      A                      A
 Frequencies --   1512.6588              1519.7538              1521.6365
 Red. masses --      1.0535                 1.0514                 1.0471
 Frc consts  --      1.4203                 1.4307                 1.4284
 IR Inten    --      0.1668                 0.1843                 1.3712

                     58                     59                     60
                      A                      A                      A
 Frequencies --   1533.4693              1538.9095              1540.8319
 Red. masses --      1.3206                 1.0598                 1.0758
 Frc consts  --      1.8297                 1.4788                 1.5048
 IR Inten    --      2.3881                 2.8456                 2.8216

                     61                     62                     63
                      A                      A                      A
 Frequencies --   1551.7469              1698.4766              3003.8296
 Red. masses --      1.0616                 1.0882                 1.0685
 Frc consts  --      1.5061                 1.8495                 5.6802
 IR Inten    --      9.3172                25.0177                23.1126

                     64                     65                     66
                      A                      A                      A
 Frequencies --   3034.7314              3036.5201              3042.2189
 Red. masses --      1.0679                 1.0457                 1.0410
 Frc consts  --      5.7948                 5.6810                 5.6766
 IR Inten    --     10.8369                31.0539                52.2892

                     67                     68                     69
                      A                      A                      A
 Frequencies --   3048.8829              3073.9788              3096.8774
 Red. masses --      1.0402                 1.0934                 1.1021
 Frc consts  --      5.6971                 6.0872                 6.2273
 IR Inten    --     19.9543                21.8925                 8.1982

                     70                     71                     72
                      A                      A                      A
 Frequencies --   3102.4899              3105.4403              3109.8478
 Red. masses --      1.1026                 1.1018                 1.1016
 Frc consts  --      6.2531                 6.2601                 6.2768
 IR Inten    --      4.4397                52.2591                78.4090

                     73                     74                     75
                      A                      A                      A
 Frequencies --   3123.9510              3131.3218              3135.4216
 Red. masses --      1.0987                 1.0851                 1.0557
 Frc consts  --      6.3174                 6.2685                 6.1146
 IR Inten    --     38.1157                27.6217                17.7002

                     76                     77                     78
                      A                      A                      A
 Frequencies --   3145.2706              3162.7053              3211.5275
 Red. masses --      1.0584                 1.0945                 1.1180
 Frc consts  --      6.1692                 6.4504                 6.7940
 IR Inten    --     11.7074                17.1587                 1.8939

                     79                     80                     81
                      A                      A                      A
 Frequencies --   3227.0234              3439.0039              3524.9902
 Red. masses --      1.1156                 1.0501                 1.0906
 Frc consts  --      6.8451                 7.3171                 7.9840
 IR Inten    --     25.7702                 4.1335                 2.1200

 - Thermochemistry -
 -------------------
 Temperature   298.150 Kelvin.  Pressure   1.00000 Atm.
 Atom     1 has atomic number  6 and mass  12.00000

 Molecular mass:   141.15175 amu.
 Principal axes and moments of inertia in atomic units:
                           1         2         3
     Eigenvalues --   930.241272108.442992544.85782
           X            1.00000  -0.00079  -0.00034
           Y            0.00079   0.99996  -0.00849
           Z            0.00034   0.00849   0.99996
 This molecule is an asymmetric top.
 Rotational symmetry number  1.
 Warning -- assumption of classical behavior for rotation
           may cause significant error
 Rotational temperatures (Kelvin)      0.09311     0.04108     0.03403
 Rotational constants (GHZ):           1.94008     0.85596     0.70917
 Zero-point vibrational energy     709641.3 (Joules/Mol)
                                  169.60834 (Kcal/Mol)
 Warning -- explicit consideration of  18 degrees of freedom as
           vibrations may cause significant error
 Vibrational temperatures:     80.99   130.20   183.42   237.60   312.44
          (Kelvin)            333.00   378.71   386.05   405.93   415.51
                              436.94   476.57   502.74   549.34   604.62
                              669.39   733.46   788.42  1091.84  1112.06
                             1174.24  1201.72  1294.39  1321.52  1354.92
                             1359.98  1362.24  1376.34  1397.87  1407.21
                             1486.19  1520.86  1529.28  1539.48  1564.59
                             1605.84  1650.33  1665.88  1706.28  1744.03
                             1776.01  1795.41  1822.66  1861.90  1902.91
                             1960.16  2001.26  2045.18  2053.64  2055.59
                             2071.33  2099.85  2148.79  2171.74  2176.38
                             2186.59  2189.30  2206.32  2214.15  2216.91
                             2232.62  2443.73  4321.84  4366.30  4368.88
                             4377.07  4386.66  4422.77  4455.72  4463.79
                             4468.04  4474.38  4494.67  4505.27  4511.17
                             4525.34  4550.43  4620.67  4642.97  4947.96
                             5071.67

 Zero-point correction=                           0.270288 (Hartree/Particle)
 Thermal correction to Energy=                    0.282370
 Thermal correction to Enthalpy=                  0.283314
 Thermal correction to Gibbs Free Energy=         0.233432
 Sum of electronic and zero-point Energies=           -408.894917
 Sum of electronic and thermal Energies=              -408.882835
 Sum of electronic and thermal Enthalpies=            -408.881891
 Sum of electronic and thermal Free Energies=         -408.931772

                     E (Thermal)             CV                S
                      KCal/Mol        Cal/Mol-Kelvin    Cal/Mol-Kelvin
 Total                  177.190             46.747            104.985
 Electronic               0.000              0.000              0.000
 Translational            0.889              2.981             40.745
 Rotational               0.889              2.981             29.991
 Vibrational            175.412             40.786             34.248
 Vibration     1          0.596              1.975              4.583
 Vibration     2          0.602              1.956              3.649
 Vibration     3          0.611              1.926              2.984
 Vibration     4          0.624              1.885              2.490
 Vibration     5          0.646              1.815              1.983
 Vibration     6          0.653              1.793              1.868
 Vibration     7          0.670              1.740              1.640
 Vibration     8          0.673              1.731              1.607
 Vibration     9          0.681              1.707              1.521
 Vibration    10          0.685              1.695              1.481
 Vibration    11          0.695              1.667              1.397
 Vibration    12          0.714              1.613              1.254
 Vibration    13          0.727              1.576              1.169
 Vibration    14          0.751              1.509              1.032
 Vibration    15          0.783              1.426              0.891
 Vibration    16          0.823              1.327              0.751
 Vibration    17          0.865              1.228              0.634
 Vibration    18          0.903              1.144              0.548

 Optimization completed.
    -- Stationary point found.

 1\1\GINC-NODE313\Freq\RB3LYP\6-31G(d)\C9H19N1\VSC10255\08-Dec-2020\0\\
 #N Geom=AllCheck Guess=TCheck SCRF=Check GenChk RB3LYP/6-31G(d) Freq\\
 CID_64490320_JID_77_neutraal\\0,1\C,1.4627798596,0.0105561944,0.023743
 9526\C,0.7135196717,-0.8324055304,1.0705557101\C,1.1766787381,-0.37897
 99531,2.4690461291\C,-0.7996586808,-0.5865545429,0.9513117242\C,1.0437
 866675,-2.3409867183,0.9523671173\C,0.4478865844,-3.1838177675,-0.1898
 131678\C,0.9437146985,-2.8158311017,-1.5831110172\C,0.2845624482,-3.44
 91635283,-2.7861681719\C,0.1235776338,-1.9727208061,-2.5287301031\N,0.

 Normal termination of Gaussian 16 at Tue Dec  8 10:22:55 2020.

 ----------------------------------------------------------------------
 # B3LYP/6-311++G(d,p) empiricaldispersion=gd3bj scf=xqc pop=npa geom=c
 heck
 ----------------------------------------------------------------------

 ------------------------------------
 CID_64490320_JID_77_Energie_neutraal
 ------------------------------------
 Structure from the checkpoint file:  "JID_77.chk"
 Charge =  0 Multiplicity = 1

 SCF Done:  E(RB3LYP) =  -409.287819751     A.U. after   13 cycles
 Normal termination of Gaussian 16 at Tue Dec  8 10:24:57 2020.

 ----------------------------------------------------------------------
 # B3LYP/6-311++G(d,p) empiricaldispersion=gd3bj scf=xqc pop=npa geom=c
 heck
 ----------------------------------------------------------------------

 ----------------------------------
 CID_64490320_JID_77_Energie_kation
 ----------------------------------
 Structure from the checkpoint file:  "JID_77.chk"
 Charge =  1 Multiplicity = 2

 SCF Done:  E(UB3LYP) =  -408.961278601     A.U. after   23 cycles
 Normal termination of Gaussian 16 at Tue Dec  8 10:29:38 2020.
 Gaussian 16:  ES64L-G16RevA.03 25-Dec-2016

 ---------------------------------
 CID_64490320_JID_77_Energie_anion
 ---------------------------------
 Structure from the checkpoint file:  "JID_77.chk"
 Charge = -1 Multiplicity = 2

                         Standard orientation:
 ---------------------------------------------------------------------
 Center     Atomic      Atomic             Coordinates (Angstroms)
 Number     Number       Type             X           Y           Z
 ---------------------------------------------------------------------
      1          6           0       -1.453188   -1.324890   -0.924488
      2          6           0       -1.652474   -0.110152   -0.001186
      3          6           0       -3.039311    0.493247   -0.298640
      4          6           0       -1.618864   -0.561607    1.468314
      5          6           0       -0.609077    1.003471   -0.265809
      6          6           0        0.843932    0.843051    0.216962
      7          6           0        1.630761   -0.262554   -0.476635
      8          6           0        2.998753   -0.629016    0.049903
      9          6           0        1.858955   -1.608417    0.166976
     10          7           0        1.477224    2.169777    0.071162
     11          1           0       -2.255198   -2.057174   -0.770111
     12          1           0       -0.500941   -1.825447   -0.740769
     13          1           0       -1.479289   -1.021588   -1.978522
     14          1           0       -3.827962   -0.257463   -0.168803
     15          1           0       -3.258416    1.333164    0.371243
     16          1           0       -3.095170    0.863094   -1.329842
     17          1           0       -0.686674   -1.080890    1.711825
     18          1           0       -1.716480    0.294255    2.147286
     19          1           0       -2.445133   -1.251483    1.677587
     20          1           0       -0.588977    1.204109   -1.348966
     21          1           0       -0.970362    1.926095    0.204217
     22          1           0        0.837654    0.627749    1.294218
     23          1           0        1.526933   -0.265619   -1.562032
     24          1           0        3.793613   -0.839053   -0.660170
     25          1           0        3.338599   -0.143840    0.962900
     26          1           0        1.438917   -1.775886    1.155270
     27          1           0        1.867684   -2.493289   -0.463645
     28          1           0        2.466816    2.084566    0.303863
     29          1           0        1.456904    2.431461   -0.916060
 ---------------------------------------------------------------------

 SCF Done:  E(UB3LYP) =  -409.269688238     A.U. after   28 cycles

 The electronic state is 2-A.
 Alpha  occ. eigenvalues --  -14.18575 -10.09451 -10.07886 -10.07024 -10.06823
 Alpha  occ. eigenvalues --  -10.06632 -10.05628 -10.05305 -10.05287 -10.04604
 Alpha  occ. eigenvalues --   -0.79037  -0.74415  -0.71700  -0.61394  -0.58281
 Alpha  occ. eigenvalues --   -0.57862  -0.52994  -0.49926  -0.46836  -0.43542
 Alpha  occ. eigenvalues --   -0.38799  -0.37885  -0.37069  -0.34742  -0.33927
 Alpha  occ. eigenvalues --   -0.32835  -0.30954  -0.29766  -0.28395  -0.27252
 Alpha  occ. eigenvalues --   -0.26704  -0.25813  -0.25472  -0.24255  -0.21868
 Alpha  occ. eigenvalues --   -0.21602  -0.21479  -0.19496  -0.18273  -0.13901
 Alpha  occ. eigenvalues --    0.04806
 Alpha virt. eigenvalues --    0.06766   0.07645   0.07881   0.09215   0.09460
 Alpha virt. eigenvalues --    0.09603   0.10513   0.10752   0.11878   0.12399
 Alpha virt. eigenvalues --    0.12493   0.12869   0.13152   0.14258   0.15179

  Beta  occ. eigenvalues --  -14.18552 -10.09444 -10.07881 -10.07010 -10.06805
  Beta  occ. eigenvalues --  -10.06602 -10.05613 -10.05282 -10.05262 -10.04581
  Beta  occ. eigenvalues --   -0.79003  -0.74381  -0.71679  -0.61353  -0.58235
  Beta  occ. eigenvalues --   -0.57816  -0.52948  -0.49850  -0.46780  -0.43494
  Beta  occ. eigenvalues --   -0.38745  -0.37849  -0.37022  -0.34705  -0.33895
  Beta  occ. eigenvalues --   -0.32804  -0.30917  -0.29736  -0.28359  -0.27219
  Beta  occ. eigenvalues --   -0.26673  -0.25785  -0.25437  -0.24223  -0.21841
  Beta  occ. eigenvalues --   -0.21572  -0.21450  -0.19464  -0.18244  -0.13875
  Beta virt. eigenvalues --    0.07011   0.07772   0.08315   0.08591   0.09779
  Beta virt. eigenvalues --    0.10021   0.10253   0.10949   0.11130   0.12355
  Beta virt. eigenvalues --    0.12881   0.13002   0.13320   0.13418   0.14539

 Mulliken charges and spin densities:
               1          2
     1  C    0.367325  -1.038866
     2  C   -1.378136   2.354695
     3  C    0.021046  -0.571299
     4  C    0.632023  -1.328753
     5  C    1.365001  -2.147832
     6  C    1.764347  -2.107132
     7  C   -2.145297   2.375777
     8  C    0.250825  -0.766660
     9  C    0.846531  -1.340096
    10  N   -0.361287   0.134215
    11  H   -0.100437   0.240707
    12  H   -0.150862   0.326699
    13  H   -0.213743   0.356212
    14  H   -0.219243   0.365122
    15  H   -0.113354   0.241492
    16  H   -0.142109   0.274136
    17  H   -0.026751   0.134706
    18  H   -0.040333   0.191130
    19  H   -0.252549   0.397340
    20  H    0.085670   0.083007
    21  H    0.191758  -0.013580
    22  H    0.008308   0.211921
    23  H   -0.488230   0.715095
    24  H   -0.693082   0.858360
    25  H   -0.117322   0.243901
    26  H   -0.107731   0.235071
    27  H    0.037763   0.113365
    28  H   -0.021720   0.241855
    29  H    0.001590   0.219414
 Sum of Mulliken charges =  -1.00000   1.00000

 Dipole moment (field-independent basis, Debye):
    X=             -1.2238    Y=              0.7723    Z=              1.7804  Tot=              2.2943
 Quadrupole moment (field-independent basis, Debye-Ang):
   XX=           -131.9505   YY=           -107.8022   ZZ=           -103.7051
   XY=             -1.2391   XZ=              5.3098   YZ=             -1.9462

 Summary of Natural Population Analysis:

                                       Natural Population
                Natural  -----------------------------------------------
    Atom  No    Charge         Core      Valence    Rydberg      Total
 -----------------------------------------------------------------------
      C    1   -0.28450      0.99962     2.27760    0.00728     3.28450
      C    2   -0.04924      0.99959     2.03883    0.01083     3.04924
      C    3   -0.28120      0.99963     2.27424    0.00733     3.28120
      C    4   -0.28503      0.99962     2.27816    0.00725     3.28503
      C    5   -0.18641      0.99957     2.17622    0.01062     3.18641
      C    6   -0.01512      0.99957     2.00264    0.01291     3.01512
      C    7   -0.12388      0.99956     2.11143    0.01289     3.12388
      C    8   -0.19856      0.99961     2.18911    0.00984     3.19856
      C    9   -0.19975      0.99961     2.19078    0.00936     3.19975
      N   10   -0.41923      0.99978     2.90972    0.00973     3.91923
      H   11    0.09728      0.00000     0.40163    0.00109     0.40272
      H   12    0.10432      0.00000     0.39400    0.00168     0.39568
      H   13    0.09898      0.00000     0.39981    0.00121     0.40102
      H   14    0.09886      0.00000     0.40012    0.00103     0.40114
      H   15    0.09741      0.00000     0.40163    0.00096     0.40259
      H   16    0.09935      0.00000     0.39966    0.00099     0.40065
      H   17    0.09891      0.00000     0.39984    0.00125     0.40109
      H   18    0.09860      0.00000     0.40045    0.00095     0.40140
      H   19    0.10011      0.00000     0.39893    0.00096     0.39989
      H   20    0.09656      0.00000     0.40202    0.00142     0.40344
      H   21    0.10402      0.00000     0.39442    0.00156     0.39598
      H   22    0.08957      0.00000     0.40814    0.00229     0.41043
      H   23    0.10547      0.00000     0.39223    0.00230     0.39453
      H   24    0.10556      0.00000     0.39250    0.00194     0.39444
      H   25    0.09856      0.00000     0.40028    0.00116     0.40144
      H   26    0.10040      0.00000     0.39831    0.00129     0.39960
      H   27    0.10402      0.00000     0.39484    0.00115     0.39598
      H   28    0.17439      0.00000     0.32362    0.00199     0.32561
      H   29    0.17056      0.00000     0.32749    0.00196     0.32944
 =======================================================================
   * Total *    0.00000      9.99616    29.87863    0.12521    40.00000

 Normal termination of Gaussian 16 at Tue Dec  8 10:37:26 2020.
