 Gaussian 16, Revision A.03,

 -----------------------------------------------------------
 # opt freq B3LYP/6-31G(d) empiricaldispersion=gd3bj scf=xqc
 -----------------------------------------------------------

 ------------------------------
 CID_63887528_JID_8147_neutraal
 ------------------------------
 Symbolic Z-matrix:
 Charge =  0 Multiplicity = 1

 SCF Done:  E(RB3LYP) =  -791.893323486     A.U. after   14 cycles
 SCF Done:  E(RB3LYP) =  -791.897929876     A.U. after   12 cycles
 SCF Done:  E(RB3LYP) =  -791.898584875     A.U. after   12 cycles
 SCF Done:  E(RB3LYP) =  -791.899235008     A.U. after   11 cycles
 SCF Done:  E(RB3LYP) =  -791.899502636     A.U. after   11 cycles
 SCF Done:  E(RB3LYP) =  -791.899772113     A.U. after   11 cycles
 SCF Done:  E(RB3LYP) =  -791.899992124     A.U. after   11 cycles
 SCF Done:  E(RB3LYP) =  -791.900106434     A.U. after   11 cycles
 SCF Done:  E(RB3LYP) =  -791.900429331     A.U. after   10 cycles
 SCF Done:  E(RB3LYP) =  -791.901024118     A.U. after   11 cycles
 SCF Done:  E(RB3LYP) =  -791.901529455     A.U. after   10 cycles
 SCF Done:  E(RB3LYP) =  -791.901532954     A.U. after   10 cycles
 SCF Done:  E(RB3LYP) =  -791.901533169     A.U. after    9 cycles
 SCF Done:  E(RB3LYP) =  -791.901533223     A.U. after    7 cycles
 SCF Done:  E(RB3LYP) =  -791.901533236     A.U. after    6 cycles
 Optimization completed.
    -- Stationary point found.
 Normal termination of Gaussian 16 at Fri Dec 11 19:27:05 2020.

 --------------------------------------------------------------------
 #N Geom=AllCheck Guess=TCheck SCRF=Check GenChk RB3LYP/6-31G(d) Freq
 --------------------------------------------------------------------

 Structure from the checkpoint file:  "JID_8147.chk"
 ------------------------------
 CID_63887528_JID_8147_neutraal
 ------------------------------
 Charge =  0 Multiplicity = 1

 SCF Done:  E(RB3LYP) =  -791.901533236     A.U. after    1 cycles

  Exact polarizability: 212.503   6.665 195.027 -10.161   4.144 121.497
 Approx polarizability: 287.401   8.559 274.181 -20.901   8.202 184.545

                      1                      2                      3
                      A                      A                      A
 Frequencies --     23.6280                34.2811                44.7396
 Red. masses --      3.1422                 2.9375                 3.4626
 Frc consts  --      0.0010                 0.0020                 0.0041
 IR Inten    --      0.4533                 0.1397                 0.5400

                      4                      5                      6
                      A                      A                      A
 Frequencies --     62.9369                71.7659                80.1146
 Red. masses --      3.1601                 2.5377                 2.4524
 Frc consts  --      0.0074                 0.0077                 0.0093
 IR Inten    --      2.7953                 1.2093                 1.5115

                      7                      8                      9
                      A                      A                      A
 Frequencies --    110.7684               125.1939               143.3345
 Red. masses --      3.6655                 2.6581                 1.8719
 Frc consts  --      0.0265                 0.0245                 0.0227
 IR Inten    --      0.9334                 1.9148                 1.0118

                     10                     11                     12
                      A                      A                      A
 Frequencies --    160.8243               177.5871               206.8024
 Red. masses --      2.1726                 2.2752                 2.5387
 Frc consts  --      0.0331                 0.0423                 0.0640
 IR Inten    --      1.1603                 1.8281                 0.1711

                     13                     14                     15
                      A                      A                      A
 Frequencies --    211.4742               224.7612               231.7613
 Red. masses --      2.2732                 1.1141                 1.7980
 Frc consts  --      0.0599                 0.0332                 0.0569
 IR Inten    --      0.3954                 0.0693                 0.3566

                     16                     17                     18
                      A                      A                      A
 Frequencies --    253.9979               259.1375               267.0073
 Red. masses --      1.2705                 1.7053                 1.5159
 Frc consts  --      0.0483                 0.0675                 0.0637
 IR Inten    --      0.8167                 1.4281                 0.1188

                     19                     20                     21
                      A                      A                      A
 Frequencies --    283.5167               290.8498               301.6149
 Red. masses --      2.0034                 1.2906                 2.4391
 Frc consts  --      0.0949                 0.0643                 0.1307
 IR Inten    --      0.3198                 0.3507                 1.4569

                     22                     23                     24
                      A                      A                      A
 Frequencies --    307.8553               353.6549               386.3463
 Red. masses --      2.2642                 3.4545                 2.6546
 Frc consts  --      0.1264                 0.2546                 0.2335
 IR Inten    --      0.7096                 2.5615                 1.1076

                     25                     26                     27
                      A                      A                      A
 Frequencies --    395.5131               432.0844               458.4328
 Red. masses --      2.4730                 2.9371                 2.4879
 Frc consts  --      0.2279                 0.3231                 0.3081
 IR Inten    --      1.1877                 3.9861                 2.9178

                     28                     29                     30
                      A                      A                      A
 Frequencies --    466.8133               490.6213               501.5006
 Red. masses --      3.4125                 3.1487                 3.8076
 Frc consts  --      0.4381                 0.4466                 0.5642
 IR Inten    --      1.7104                 4.2437                 3.6279

                     31                     32                     33
                      A                      A                      A
 Frequencies --    525.6665               571.3431               626.4294
 Red. masses --      3.8361                 4.0129                 4.2041
 Frc consts  --      0.6245                 0.7718                 0.9720
 IR Inten    --      3.0800                 0.6871                 6.0126

                     34                     35                     36
                      A                      A                      A
 Frequencies --    674.7745               712.8904               735.6065
 Red. masses --      4.4997                 5.0613                 3.2554
 Frc consts  --      1.2071                 1.5155                 1.0379
 IR Inten    --      5.8487                 3.0166                13.0837

                     37                     38                     39
                      A                      A                      A
 Frequencies --    763.2647               775.8460               824.1164
 Red. masses --      4.5311                 1.7943                 2.9885
 Frc consts  --      1.5553                 0.6364                 1.1959
 IR Inten    --      2.0311                68.4534                19.7231

                     40                     41                     42
                      A                      A                      A
 Frequencies --    861.1859               875.9822               905.4300
 Red. masses --      1.6510                 1.8684                 1.5884
 Frc consts  --      0.7214                 0.8447                 0.7672
 IR Inten    --     12.0298                 9.8934                 9.1528

                     43                     44                     45
                      A                      A                      A
 Frequencies --    909.9899               936.8793               944.5458
 Red. masses --      2.0542                 1.2348                 1.1807
 Frc consts  --      1.0022                 0.6386                 0.6206
 IR Inten    --     10.1168                 1.7586                 2.3755

                     46                     47                     48
                      A                      A                      A
 Frequencies --    953.1062               970.6335               980.5590
 Red. masses --      1.4244                 1.8835                 1.4765
 Frc consts  --      0.7624                 1.0455                 0.8365
 IR Inten    --      0.1268                 0.1922                 0.4773

                     49                     50                     51
                      A                      A                      A
 Frequencies --   1011.2658              1027.7131              1067.8895
 Red. masses --      2.0538                 3.0570                 3.8306
 Frc consts  --      1.2375                 1.9023                 2.5738
 IR Inten    --     15.6513                11.4717                74.2144

                     52                     53                     54
                      A                      A                      A
 Frequencies --   1103.6493              1115.2657              1127.0899
 Red. masses --      2.9147                 2.6814                 2.9787
 Frc consts  --      2.0917                 1.9650                 2.2294
 IR Inten    --     22.0382                21.8533                21.0073

                     55                     56                     57
                      A                      A                      A
 Frequencies --   1144.8600              1154.3070              1186.1344
 Red. masses --      2.2805                 2.0954                 1.3344
 Frc consts  --      1.7611                 1.6450                 1.1061
 IR Inten    --     15.5408                15.8148                12.4831

                     58                     59                     60
                      A                      A                      A
 Frequencies --   1187.0491              1187.3801              1196.3011
 Red. masses --      1.5539                 1.2668                 2.0402
 Frc consts  --      1.2901                 1.0523                 1.7203
 IR Inten    --      6.2848                 2.1750                67.8129

                     61                     62                     63
                      A                      A                      A
 Frequencies --   1207.3286              1209.7848              1225.8437
 Red. masses --      1.9265                 1.7860                 1.4313
 Frc consts  --      1.6545                 1.5401                 1.2672
 IR Inten    --     58.5241                11.8806                 3.0373

                     64                     65                     66
                      A                      A                      A
 Frequencies --   1240.3741              1246.9719              1273.1004
 Red. masses --      1.6910                 2.3171                 1.6961
 Frc consts  --      1.5329                 2.1228                 1.6197
 IR Inten    --     14.5794                65.8320                39.2706

                     67                     68                     69
                      A                      A                      A
 Frequencies --   1300.7455              1329.9086              1348.3796
 Red. masses --      1.4005                 3.9393                 1.6473
 Frc consts  --      1.3961                 4.1050                 1.7646
 IR Inten    --     11.9882               193.9681                41.3467

                     70                     71                     72
                      A                      A                      A
 Frequencies --   1357.2105              1365.5943              1372.5974
 Red. masses --      1.6692                 1.7914                 1.4361
 Frc consts  --      1.8116                 1.9683                 1.5941
 IR Inten    --     42.1684                10.7773                20.6152

                     73                     74                     75
                      A                      A                      A
 Frequencies --   1394.2082              1419.3000              1425.7767
 Red. masses --      1.5733                 1.3117                 1.2539
 Frc consts  --      1.8018                 1.5568                 1.5018
 IR Inten    --     17.5577                 2.0948                 2.7973

                     76                     77                     78
                      A                      A                      A
 Frequencies --   1434.2246              1438.1195              1443.1979
 Red. masses --      1.3898                 2.1706                 1.2831
 Frc consts  --      1.6843                 2.6449                 1.5746
 IR Inten    --     25.1980                 9.1751                 8.6443

                     79                     80                     81
                      A                      A                      A
 Frequencies --   1450.4088              1493.6934              1498.2403
 Red. masses --      1.5134                 1.2101                 1.1652
 Frc consts  --      1.8758                 1.5907                 1.5410
 IR Inten    --     19.8224                25.3467                33.3950

                     82                     83                     84
                      A                      A                      A
 Frequencies --   1507.8682              1513.5363              1515.0129
 Red. masses --      1.2862                 1.0484                 1.0733
 Frc consts  --      1.7229                 1.4150                 1.4515
 IR Inten    --      2.2727                 0.6089                 7.0164

                     85                     86                     87
                      A                      A                      A
 Frequencies --   1518.2102              1518.2926              1519.9275
 Red. masses --      1.0515                 1.0483                 1.0480
 Frc consts  --      1.4280                 1.4238                 1.4265
 IR Inten    --      0.2459                 7.2730                 5.9045

                     88                     89                     90
                      A                      A                      A
 Frequencies --   1522.5119              1534.2712              1536.2614
 Red. masses --      1.0613                 1.0669                 1.0629
 Frc consts  --      1.4494                 1.4798                 1.4780
 IR Inten    --      3.8641                10.4243                46.7541

                     91                     92                     93
                      A                      A                      A
 Frequencies --   1537.7977              1538.5089              1542.4484
 Red. masses --      1.0823                 1.0541                 1.0587
 Frc consts  --      1.5080                 1.4701                 1.4840
 IR Inten    --     15.9635                10.1088                 2.2682

                     94                     95                     96
                      A                      A                      A
 Frequencies --   1542.8286              1556.7108              1566.5501
 Red. masses --      1.0503                 1.0822                 2.8644
 Frc consts  --      1.4730                 1.5451                 4.1416
 IR Inten    --      6.6267                 8.4676               162.0386

                     97                     98                     99
                      A                      A                      A
 Frequencies --   1627.1505              1669.2328              3019.0958
 Red. masses --      8.1643                 6.1646                 1.0628
 Frc consts  --     12.7357                10.1203                 5.7077
 IR Inten    --     14.8591                16.7272                15.2211

                    100                    101                    102
                      A                      A                      A
 Frequencies --   3027.1475              3027.3519              3031.2953
 Red. masses --      1.0699                 1.0429                 1.0405
 Frc consts  --      5.7766                 5.6312                 5.6331
 IR Inten    --     18.7812                67.5061                63.3715

                    103                    104                    105
                      A                      A                      A
 Frequencies --   3035.5537              3038.8332              3043.6423
 Red. masses --      1.0767                 1.0528                 1.0359
 Frc consts  --      5.8456                 5.7283                 5.6542
 IR Inten    --     19.0379                26.6006                13.0682

                    106                    107                    108
                      A                      A                      A
 Frequencies --   3044.6608              3050.2377              3054.0239
 Red. masses --      1.0410                 1.0389                 1.0857
 Frc consts  --      5.6855                 5.6947                 5.9665
 IR Inten    --     50.4433                43.6242                27.8261

                    109                    110                    111
                      A                      A                      A
 Frequencies --   3086.3073              3100.8937              3108.1144
 Red. masses --      1.1066                 1.0998                 1.1027
 Frc consts  --      6.2102                 6.2306                 6.2761
 IR Inten    --     39.5835                 5.6100                 2.2373

                    112                    113                    114
                      A                      A                      A
 Frequencies --   3109.8693              3112.7712              3115.4435
 Red. masses --      1.0984                 1.0937                 1.1013
 Frc consts  --      6.2587                 6.2436                 6.2981
 IR Inten    --     81.0744                45.7262                74.4725

                    115                    116                    117
                      A                      A                      A
 Frequencies --   3120.6187              3122.8888              3124.5459
 Red. masses --      1.1007                 1.1016                 1.1021
 Frc consts  --      6.3152                 6.3300                 6.3392
 IR Inten    --     56.1178                12.3666                36.0256

                    118                    119                    120
                      A                      A                      A
 Frequencies --   3136.0206              3152.0754              3157.4589
 Red. masses --      1.1023                 1.1058                 1.1003
 Frc consts  --      6.3874                 6.4730                 6.4628
 IR Inten    --     29.1398                29.3424                29.2033

                    121                    122                    123
                      A                      A                      A
 Frequencies --   3226.4582              3229.2943              3468.2959
 Red. masses --      1.0887                 1.0892                 1.0736
 Frc consts  --      6.6776                 6.6920                 7.6087
 IR Inten    --      9.3043                 3.2236                 1.1925

 - Thermochemistry -
 -------------------
 Temperature   298.150 Kelvin.  Pressure   1.00000 Atm.
 Atom     1 has atomic number  6 and mass  12.00000

 Molecular mass:   251.18853 amu.
 Principal axes and moments of inertia in atomic units:
                           1         2         3
     Eigenvalues --  3606.882676877.887789673.43223
           X            1.00000  -0.00245  -0.00196
           Y            0.00245   1.00000  -0.00000
           Z            0.00196  -0.00000   1.00000
 This molecule is an asymmetric top.
 Rotational symmetry number  1.
 Warning -- assumption of classical behavior for rotation
           may cause significant error
 Rotational temperatures (Kelvin)      0.02401     0.01259     0.00895
 Rotational constants (GHZ):           0.50036     0.26240     0.18657
 Zero-point vibrational energy    1004271.6 (Joules/Mol)
                                  240.02667 (Kcal/Mol)
 Warning -- explicit consideration of  32 degrees of freedom as
           vibrations may cause significant error
 Vibrational temperatures:     34.00    49.32    64.37    90.55   103.26
          (Kelvin)            115.27   159.37   180.13   206.23   231.39
                              255.51   297.54   304.26   323.38   333.45
                              365.45   372.84   384.16   407.92   418.47
                              433.96   442.94   508.83   555.87   569.06
                              621.67   659.58   671.64   705.89   721.55
                              756.32   822.04   901.29   970.85  1025.69
                             1058.37  1098.17  1116.27  1185.72  1239.05
                             1260.34  1302.71  1309.27  1347.96  1358.99
                             1371.31  1396.53  1410.81  1454.99  1478.65
                             1536.45  1587.91  1604.62  1621.63  1647.20
                             1660.79  1706.58  1707.90  1708.38  1721.21
                             1737.08  1740.61  1763.72  1784.62  1794.11
                             1831.71  1871.48  1913.44  1940.02  1952.72
                             1964.79  1974.86  2005.95  2042.06  2051.37
                             2063.53  2069.13  2076.44  2086.81  2149.09
                             2155.63  2169.49  2177.64  2179.77  2184.37
                             2184.48  2186.84  2190.56  2207.47  2210.34
                             2212.55  2213.57  2219.24  2219.79  2239.76
                             2253.92  2341.11  2401.65  4343.81  4355.39
                             4355.68  4361.36  4367.48  4372.20  4379.12
                             4380.59  4388.61  4394.06  4440.51  4461.49
                             4471.88  4474.41  4478.58  4482.43  4489.87
                             4493.14  4495.52  4512.03  4535.13  4542.88
                             4642.15  4646.23  4990.10

 Zero-point correction=                           0.382507 (Hartree/Particle)
 Thermal correction to Energy=                    0.403174
 Thermal correction to Enthalpy=                  0.404119
 Thermal correction to Gibbs Free Energy=         0.332599
 Sum of electronic and zero-point Energies=           -791.519026
 Sum of electronic and thermal Energies=              -791.498359
 Sum of electronic and thermal Enthalpies=            -791.497415
 Sum of electronic and thermal Free Energies=         -791.568934

                     E (Thermal)             CV                S
                      KCal/Mol        Cal/Mol-Kelvin    Cal/Mol-Kelvin
 Total                  252.996             76.563            150.526
 Electronic               0.000              0.000              0.000
 Translational            0.889              2.981             42.463
 Rotational               0.889              2.981             33.839
 Vibrational            251.218             70.601             74.224
 Vibration     1          0.593              1.985              6.303
 Vibration     2          0.594              1.983              5.565
 Vibration     3          0.595              1.980              5.037
 Vibration     4          0.597              1.972              4.363
 Vibration     5          0.598              1.967              4.104
 Vibration     6          0.600              1.963              3.888
 Vibration     7          0.607              1.941              3.255
 Vibration     8          0.610              1.928              3.019
 Vibration     9          0.616              1.910              2.759
 Vibration    10          0.622              1.890              2.540
 Vibration    11          0.628              1.870              2.354
 Vibration    12          0.641              1.830              2.072
 Vibration    13          0.643              1.823              2.031
 Vibration    14          0.649              1.803              1.920
 Vibration    15          0.653              1.792              1.865
 Vibration    16          0.665              1.756              1.703
 Vibration    17          0.668              1.747              1.668
 Vibration    18          0.672              1.734              1.616
 Vibration    19          0.682              1.704              1.512
 Vibration    20          0.687              1.691              1.469
 Vibration    21          0.694              1.671              1.408
 Vibration    22          0.698              1.659              1.374
 Vibration    23          0.730              1.568              1.150
 Vibration    24          0.755              1.499              1.014
 Vibration    25          0.762              1.480              0.979
 Vibration    26          0.793              1.400              0.852
 Vibration    27          0.816              1.342              0.771
 Vibration    28          0.824              1.324              0.747
 Vibration    29          0.846              1.271              0.682
 Vibration    30          0.857              1.247              0.654
 Vibration    31          0.881              1.193              0.597
 Vibration    32          0.927              1.093              0.502

 Optimization completed.
    -- Stationary point found.
 Normal termination of Gaussian 16 at Fri Dec 11 19:49:14 2020.

 ----------------------------------------------------------------------
 # B3LYP/6-311++G(d,p) empiricaldispersion=gd3bj scf=xqc pop=npa geom=c
 heck
 ----------------------------------------------------------------------

 --------------------------------------
 CID_63887528_JID_8147_Energie_neutraal
 --------------------------------------
 Structure from the checkpoint file:  "JID_8147.chk"
 Charge =  0 Multiplicity = 1

 SCF Done:  E(RB3LYP) =  -792.122681511     A.U. after   15 cycles
 Normal termination of Gaussian 16 at Fri Dec 11 20:00:25 2020.

 ----------------------------------------------------------------------
 # B3LYP/6-311++G(d,p) empiricaldispersion=gd3bj scf=xqc pop=npa geom=c
 heck
 ----------------------------------------------------------------------

 ------------------------------------
 CID_63887528_JID_8147_Energie_kation
 ------------------------------------
 Structure from the checkpoint file:  "JID_8147.chk"
 Charge =  1 Multiplicity = 2

 SCF Done:  E(UB3LYP) =  -791.849021633     A.U. after   25 cycles
 Normal termination of Gaussian 16 at Fri Dec 11 20:26:55 2020.
 Gaussian 16:  ES64L-G16RevA.03 25-Dec-2016

 ----------------------------------------------------------------------
 # B3LYP/6-311++G(d,p) empiricaldispersion=gd3bj scf=xqc pop=npa geom=c
 heck
 ----------------------------------------------------------------------

 -----------------------------------
 CID_63887528_JID_8147_Energie_anion
 -----------------------------------
 Structure from the checkpoint file:  "JID_8147.chk"
 Charge = -1 Multiplicity = 2

                         Standard orientation:
 ---------------------------------------------------------------------
 Center     Atomic      Atomic             Coordinates (Angstroms)
 Number     Number       Type             X           Y           Z
 ---------------------------------------------------------------------
      1          6           0       -0.351283    3.894885   -0.558701
      2          6           0        0.481534    2.623277   -0.349664
      3          6           0        1.287987    2.728131    0.959463
      4          6           0       -0.336264    1.334665   -0.369585
      5          6           0       -1.708923    1.360003   -0.078357
      6          6           0       -2.486417    0.210663   -0.038530
      7          6           0       -1.888584   -1.039166   -0.294873
      8          6           0       -0.525640   -1.081464   -0.572361
      9          6           0        0.254668    0.083733   -0.616744
     10          6           0        1.729193   -0.104394   -0.912369
     11          7           0        2.338283   -0.973625    0.099386
     12          6           0        3.785396   -1.174821   -0.033193
     13          6           0        4.629739    0.091787    0.189947
     14          6           0        4.210023   -2.291051    0.923329
     15          8           0       -2.712403   -2.129997   -0.259413
     16          6           0       -2.135540   -3.395458   -0.533224
     17          8           0       -3.835470    0.333209    0.195516
     18          6           0       -4.292570   -0.235948    1.422471
     19          1           0       -1.012705    4.092726    0.292495
     20          1           0       -0.969815    3.827223   -1.459786
     21          1           0        0.311285    4.761091   -0.662712
     22          1           0        1.197817    2.581895   -1.179389
     23          1           0        0.608849    2.770543    1.819065
     24          1           0        1.946909    1.864900    1.098644
     25          1           0        1.907694    3.632837    0.968340
     26          1           0       -2.220353    2.294666    0.120055
     27          1           0       -0.026163   -2.026851   -0.747062
     28          1           0        1.849403   -0.609382   -1.881473
     29          1           0        2.229485    0.867715   -1.011064
     30          1           0        2.126623   -0.603739    1.026447
     31          1           0        3.949179   -1.521079   -1.063852
     32          1           0        4.502284    0.458468    1.217042
     33          1           0        5.696000   -0.112715    0.038187
     34          1           0        4.346168    0.898440   -0.493853
     35          1           0        3.623460   -3.195744    0.738902
     36          1           0        5.274027   -2.526594    0.810367
     37          1           0        4.046023   -1.987071    1.965717
     38          1           0       -1.701931   -3.428297   -1.541136
     39          1           0       -1.358259   -3.651743    0.198583
     40          1           0       -2.951360   -4.117237   -0.465475
     41          1           0       -4.144622   -1.319765    1.440846
     42          1           0       -3.775385    0.219525    2.278013
     43          1           0       -5.359527   -0.009178    1.482921
 ---------------------------------------------------------------------

 SCF Done:  E(UB3LYP) =  -792.109705133     A.U. after   33 cycles
 SCF Done:  E(UB3LYP) =  -792.109705133     a.u. after    1 cycles

 The electronic state is 2-A.
 Alpha  occ. eigenvalues --  -19.06531 -19.05066 -14.20377 -10.14078 -10.13273
 Alpha  occ. eigenvalues --  -10.13159 -10.12791 -10.10801 -10.10248 -10.09232
 Alpha  occ. eigenvalues --  -10.08693 -10.08636 -10.07754 -10.07699 -10.07431
 Alpha  occ. eigenvalues --  -10.07142 -10.06650 -10.06610  -0.98534  -0.96075
 Alpha  occ. eigenvalues --   -0.81915  -0.76801  -0.71436  -0.69113  -0.65714
 Alpha  occ. eigenvalues --   -0.65416  -0.61489  -0.60731  -0.59747  -0.59500
 Alpha  occ. eigenvalues --   -0.55817  -0.52703  -0.50279  -0.49492  -0.47233
 Alpha  occ. eigenvalues --   -0.44213  -0.42306  -0.40865  -0.38572  -0.38519
 Alpha  occ. eigenvalues --   -0.37934  -0.36936  -0.36463  -0.35865  -0.35148
 Alpha  occ. eigenvalues --   -0.34807  -0.33979  -0.33270  -0.33012  -0.31493
 Alpha  occ. eigenvalues --   -0.30870  -0.30208  -0.29815  -0.29214  -0.28942
 Alpha  occ. eigenvalues --   -0.28438  -0.26599  -0.26393  -0.26047  -0.25443
 Alpha  occ. eigenvalues --   -0.25112  -0.24810  -0.24270  -0.23252  -0.22060
 Alpha  occ. eigenvalues --   -0.19353  -0.15406  -0.13312  -0.12587   0.03955
 Alpha virt. eigenvalues --    0.05499   0.06099   0.06731   0.07082   0.07590
 Alpha virt. eigenvalues --    0.07945   0.08399   0.08717   0.09047   0.09280
 Alpha virt. eigenvalues --    0.09642   0.09873   0.10408   0.10563   0.11085

  Beta  occ. eigenvalues --  -19.06527 -19.05065 -14.20368 -10.14079 -10.13269
  Beta  occ. eigenvalues --  -10.13120 -10.12777 -10.10791 -10.10237 -10.09226
  Beta  occ. eigenvalues --  -10.08692 -10.08637 -10.07743 -10.07686 -10.07414
  Beta  occ. eigenvalues --  -10.07120 -10.06627 -10.06579  -0.98525  -0.96068
  Beta  occ. eigenvalues --   -0.81896  -0.76789  -0.71420  -0.69089  -0.65688
  Beta  occ. eigenvalues --   -0.65388  -0.61454  -0.60695  -0.59704  -0.59451
  Beta  occ. eigenvalues --   -0.55787  -0.52664  -0.50253  -0.49439  -0.47205
  Beta  occ. eigenvalues --   -0.44189  -0.42288  -0.40845  -0.38545  -0.38493
  Beta  occ. eigenvalues --   -0.37905  -0.36917  -0.36437  -0.35837  -0.35123
  Beta  occ. eigenvalues --   -0.34783  -0.33950  -0.33240  -0.32983  -0.31469
  Beta  occ. eigenvalues --   -0.30842  -0.30181  -0.29787  -0.29188  -0.28918
  Beta  occ. eigenvalues --   -0.28413  -0.26574  -0.26371  -0.26025  -0.25415
  Beta  occ. eigenvalues --   -0.25089  -0.24782  -0.24237  -0.23234  -0.22032
  Beta  occ. eigenvalues --   -0.19343  -0.15367  -0.13295  -0.12569
  Beta virt. eigenvalues --    0.05801   0.06371   0.06557   0.07149   0.07362
  Beta virt. eigenvalues --    0.07954   0.08123   0.08691   0.08961   0.09236
  Beta virt. eigenvalues --    0.09323   0.09891   0.10292   0.10678   0.10820

 Mulliken charges and spin densities:
               1          2
     1  C    0.067470  -0.639522
     2  C   -0.912999   0.994875
     3  C    0.210591  -0.984992
     4  C    1.135316  -0.497460
     5  C   -0.542562   0.303349
     6  C   -0.772039   0.026338
     7  C   -1.860696   1.278548
     8  C    0.325934  -0.279871
     9  C    3.085650  -1.969077
    10  C   -2.015037   1.091164
    11  N    0.190095  -0.046362
    12  C   -0.524293   0.544324
    13  C    0.616025  -1.101824
    14  C    0.120858  -0.703941
    15  O   -0.202979   0.036435
    16  C    0.707527  -1.043662
    17  O   -0.157564   0.006192
    18  C    0.065368  -0.371186
    19  H    0.074795   0.053137
    20  H    0.055971   0.085009
    21  H   -0.190768   0.355871
    22  H   -0.281808   0.476159
    23  H   -0.033567   0.183012
    24  H    0.485774  -0.340793
    25  H   -0.283002   0.419987
    26  H    0.195785  -0.007491
    27  H    0.627499  -0.401798
    28  H   -0.378070   0.526760
    29  H    0.949243  -0.864089
    30  H    0.108429   0.066324
    31  H    0.027987   0.121261
    32  H   -0.011907   0.147032
    33  H   -0.204672   0.355658
    34  H   -0.519917   0.668171
    35  H   -0.140658   0.297538
    36  H   -0.081969   0.213744
    37  H   -0.072454   0.200563
    38  H   -0.194606   0.344327
    39  H   -0.136616   0.310013
    40  H   -0.584144   0.770216
    41  H    0.018436   0.150031
    42  H   -0.009330   0.129198
    43  H    0.042904   0.096834
 Sum of Mulliken charges =  -1.00000   1.00000

 Dipole moment (field-independent basis, Debye):
    X=             -3.0140    Y=              2.3069    Z=              0.8162  Tot=              3.8823
 Quadrupole moment (field-independent basis, Debye-Ang):
   XX=           -202.4472   YY=           -186.6573   ZZ=           -142.8964
   XY=            -11.4020   XZ=             -3.4262   YZ=              0.3650

 Summary of Natural Population Analysis:

                                       Natural Population
                Natural  -----------------------------------------------
    Atom  No    Charge         Core      Valence    Rydberg      Total
 -----------------------------------------------------------------------
      C    1   -0.28464      0.99966     2.27840    0.00658     3.28464
      C    2   -0.12044      0.99958     2.11136    0.00950     3.12044
      C    3   -0.27929      0.99964     2.27351    0.00614     3.27929
      C    4   -0.01713      0.99946     2.00810    0.00957     3.01713
      C    5   -0.11348      0.99948     2.10628    0.00773     3.11348
      C    6    0.13725      0.99933     1.84984    0.01358     2.86275
      C    7    0.14047      0.99933     1.84758    0.01262     2.85953
      C    8   -0.12902      0.99949     2.12116    0.00838     3.12902
      C    9   -0.01594      0.99948     2.00718    0.00928     3.01594
      C   10   -0.09409      0.99958     2.08471    0.00980     3.09409
      N   11   -0.33868      0.99974     2.82791    0.01103     3.83868
      C   12   -0.01248      0.99962     2.00125    0.01161     3.01248
      C   13   -0.29522      0.99965     2.28973    0.00583     3.29522
      C   14   -0.28360      0.99965     2.27877    0.00518     3.28360
      O   15   -0.27511      0.99986     3.26469    0.01056     4.27511
      C   16   -0.10095      0.99960     2.09207    0.00927     3.10095
      O   17   -0.28711      0.99986     3.27737    0.00988     4.28711
      C   18   -0.09690      0.99959     2.08948    0.00783     3.09690
      H   19    0.09506      0.00000     0.40397    0.00097     0.40494
      H   20    0.10142      0.00000     0.39776    0.00082     0.39858
      H   21    0.10166      0.00000     0.39756    0.00079     0.39834
      H   22    0.09921      0.00000     0.39877    0.00201     0.40079
      H   23    0.09678      0.00000     0.40219    0.00103     0.40322
      H   24    0.09918      0.00000     0.39947    0.00135     0.40082
      H   25    0.09896      0.00000     0.40006    0.00098     0.40104
      H   26    0.10506      0.00000     0.39317    0.00178     0.39494
      H   27    0.11207      0.00000     0.38614    0.00180     0.38793
      H   28    0.09551      0.00000     0.40296    0.00153     0.40449
      H   29    0.08634      0.00000     0.41126    0.00240     0.41366
      H   30    0.16962      0.00000     0.32750    0.00288     0.33038
      H   31    0.08819      0.00000     0.40999    0.00182     0.41181
      H   32    0.09549      0.00000     0.40329    0.00121     0.40451
      H   33    0.10073      0.00000     0.39826    0.00101     0.39927
      H   34    0.10038      0.00000     0.39833    0.00129     0.39962
      H   35    0.10462      0.00000     0.39403    0.00135     0.39538
      H   36    0.09822      0.00000     0.40082    0.00096     0.40178
      H   37    0.09463      0.00000     0.40434    0.00103     0.40537
      H   38    0.08563      0.00000     0.41292    0.00145     0.41437
      H   39    0.08667      0.00000     0.41167    0.00166     0.41333
      H   40    0.09457      0.00000     0.40411    0.00132     0.40543
      H   41    0.09121      0.00000     0.40677    0.00202     0.40879
      H   42    0.07895      0.00000     0.41937    0.00168     0.42105
      H   43    0.08620      0.00000     0.41264    0.00116     0.41380
 =======================================================================
   * Total *    0.00000     17.99261    50.80672    0.20068    69.00000

 Normal termination of Gaussian 16 at Fri Dec 11 21:02:41 2020.
