 Gaussian 16, Revision A.03,

 -----------------------------------------------------------
 # opt freq B3LYP/6-31G(d) empiricaldispersion=gd3bj scf=xqc
 -----------------------------------------------------------

 -------------------------------
 CID_131123622_JID_4134_neutraal
 -------------------------------
 Symbolic Z-matrix:
 Charge =  0 Multiplicity = 1

 SCF Done:  E(RB3LYP) =  -1005.84016123     A.U. after   15 cycles
 SCF Done:  E(RB3LYP) =  -1005.84534572     A.U. after   13 cycles
 SCF Done:  E(RB3LYP) =  -1005.84628698     A.U. after   13 cycles
 SCF Done:  E(RB3LYP) =  -1005.84687644     A.U. after   13 cycles
 SCF Done:  E(RB3LYP) =  -1005.84773769     A.U. after   15 cycles
 SCF Done:  E(RB3LYP) =  -1005.84824410     A.U. after   12 cycles
 SCF Done:  E(RB3LYP) =  -1005.84875853     A.U. after   12 cycles
 SCF Done:  E(RB3LYP) =  -1005.84879780     A.U. after   13 cycles
 SCF Done:  E(RB3LYP) =  -1005.84885313     A.U. after   12 cycles
 SCF Done:  E(RB3LYP) =  -1005.84885462     A.U. after    9 cycles
 SCF Done:  E(RB3LYP) =  -1005.84885490     A.U. after    8 cycles
 Optimization completed.
    -- Stationary point found.
 Normal termination of Gaussian 16 at Mon Dec 14 13:08:17 2020.

 --------------------------------------------------------------------
 #N Geom=AllCheck Guess=TCheck SCRF=Check GenChk RB3LYP/6-31G(d) Freq
 --------------------------------------------------------------------

 Structure from the checkpoint file:  "JID_4134.chk"
 -------------------------------
 CID_131123622_JID_4134_neutraal
 -------------------------------
 Charge =  0 Multiplicity = 1

 SCF Done:  E(RB3LYP) =  -1005.84885490     A.U. after    1 cycles

  Exact polarizability: 155.330 -14.645 140.075  -7.519  -3.697  80.001
 Approx polarizability: 234.834 -35.364 249.899  -2.084  -9.686 128.558

 ******    1 imaginary frequencies (negative Signs) ******

                      1                      2                      3
                      A                      A                      A
 Frequencies --    -41.8607                46.0075                71.8632
 Red. masses --      1.0229                 5.6024                 3.9414
 Frc consts  --      0.0011                 0.0070                 0.0120
 IR Inten    --      0.3712                 3.1607                 1.2262

                      4                      5                      6
                      A                      A                      A
 Frequencies --     95.9665               122.4332               136.3161
 Red. masses --      5.1532                12.1668                 3.8424
 Frc consts  --      0.0280                 0.1075                 0.0421
 IR Inten    --      0.4905                 2.2708                 7.1168

                      7                      8                      9
                      A                      A                      A
 Frequencies --    167.1895               222.1993               242.4564
 Red. masses --      5.5597                 3.1081                 5.0595
 Frc consts  --      0.0916                 0.0904                 0.1752
 IR Inten    --      1.9175                 1.7589                 3.0616

                     10                     11                     12
                      A                      A                      A
 Frequencies --    253.7212               281.5027               313.8528
 Red. masses --      5.2054                 7.5767                 6.9655
 Frc consts  --      0.1974                 0.3537                 0.4043
 IR Inten    --      2.5116                 5.6330                 0.4826

                     13                     14                     15
                      A                      A                      A
 Frequencies --    366.1223               409.1174               434.5850
 Red. masses --      3.4875                 6.3799                 2.9921
 Frc consts  --      0.2754                 0.6292                 0.3329
 IR Inten    --      4.7128                12.8612                 3.2860

                     16                     17                     18
                      A                      A                      A
 Frequencies --    458.4890               477.4907               508.5334
 Red. masses --      6.2702                 7.2081                 3.9977
 Frc consts  --      0.7766                 0.9683                 0.6091
 IR Inten    --      2.1050                 9.1689                19.4447

                     19                     20                     21
                      A                      A                      A
 Frequencies --    552.1978               597.1274               619.1356
 Red. masses --      5.1167                 5.8415                 5.7290
 Frc consts  --      0.9192                 1.2272                 1.2939
 IR Inten    --     33.4766                 1.4342                12.5756

                     22                     23                     24
                      A                      A                      A
 Frequencies --    670.6444               700.5647               720.6761
 Red. masses --      2.5251                 5.2788                 6.0288
 Frc consts  --      0.6691                 1.5264                 1.8448
 IR Inten    --     68.7139                33.2600                 2.1190

                     25                     26                     27
                      A                      A                      A
 Frequencies --    749.4958               756.0725               904.4978
 Red. masses --      4.5267                 5.5506                 6.3357
 Frc consts  --      1.4982                 1.8695                 3.0539
 IR Inten    --     25.9299                66.9360                 5.8739

                     28                     29                     30
                      A                      A                      A
 Frequencies --    926.7980               957.0964               992.1599
 Red. masses --      1.3251                 1.3830                 1.2129
 Frc consts  --      0.6706                 0.7464                 0.7035
 IR Inten    --      6.1539                 0.4363                 2.0147

                     31                     32                     33
                      A                      A                      A
 Frequencies --   1016.1072              1019.7620              1036.6020
 Red. masses --      1.1722                 1.4730                 1.3637
 Frc consts  --      0.7131                 0.9025                 0.8634
 IR Inten    --     50.4139                11.2501                 2.6922

                     34                     35                     36
                      A                      A                      A
 Frequencies --   1072.3202              1073.4818              1127.7627
 Red. masses --      2.1672                 2.3416                 7.9459
 Frc consts  --      1.4682                 1.5898                 5.9543
 IR Inten    --     21.0035                 6.8975               153.0607

                     37                     38                     39
                      A                      A                      A
 Frequencies --   1230.6609              1259.2182              1286.8259
 Red. masses --      1.9894                 5.4688                 1.6426
 Frc consts  --      1.7752                 5.1091                 1.6026
 IR Inten    --      2.8928                14.7567                31.1622

                     40                     41                     42
                      A                      A                      A
 Frequencies --   1298.3942              1325.9944              1332.8333
 Red. masses --      7.5156                 3.5352                 1.5901
 Frc consts  --      7.4649                 3.6622                 1.6643
 IR Inten    --      8.4475                87.6670                10.7810

                     43                     44                     45
                      A                      A                      A
 Frequencies --   1384.2137              1432.6964              1435.2021
 Red. masses --      6.9617                 1.1942                 1.3069
 Frc consts  --      7.8591                 1.4442                 1.5860
 IR Inten    --     33.7437                19.6963                 5.2289

                     46                     47                     48
                      A                      A                      A
 Frequencies --   1498.2389              1511.3720              1525.6124
 Red. masses --      1.1871                 1.0455                 2.3574
 Frc consts  --      1.5700                 1.4070                 3.2327
 IR Inten    --     23.8991                 8.0745                24.9342

                     49                     50                     51
                      A                      A                      A
 Frequencies --   1583.2394              1638.6116              1691.4493
 Red. masses --      5.2755                 7.1605                 4.2890
 Frc consts  --      7.7913                11.3278                 7.2298
 IR Inten    --     15.8033               101.9338                 5.5273

                     52                     53                     54
                      A                      A                      A
 Frequencies --   2353.2391              3056.0172              3110.6184
 Red. masses --     12.6757                 1.0394                 1.0998
 Frc consts  --     41.3575                 5.7195                 6.2696
 IR Inten    --     19.7412                 6.5935                 8.7002

                     55                     56                     57
                      A                      A                      A
 Frequencies --   3169.3648              3177.8906              3197.7877
 Red. masses --      1.1006                 1.0578                 1.0919
 Frc consts  --      6.5138                 6.2941                 6.5785
 IR Inten    --      5.8122                 2.9240                 7.1040

                     58                     59                     60
                      A                      A                      A
 Frequencies --   3230.1178              3236.7920              3269.7904
 Red. masses --      1.0914                 1.0974                 1.1169
 Frc consts  --      6.7091                 6.7737                 7.0359
 IR Inten    --      5.3875                 3.4209                 1.0968

 - Thermochemistry -
 -------------------
 Temperature   298.150 Kelvin.  Pressure   1.00000 Atm.
 Atom     1 has atomic number  6 and mass  12.00000

 Molecular mass:   208.03065 amu.
 Principal axes and moments of inertia in atomic units:
                           1         2         3
     Eigenvalues --  1988.254293467.179694609.02603
           X            0.99948  -0.02763  -0.01648
           Y            0.02742   0.99954  -0.01271
           Z            0.01682   0.01226   0.99978
 This molecule is an asymmetric top.
 Rotational symmetry number  1.
 Warning -- assumption of classical behavior for rotation
           may cause significant error
 Rotational temperatures (Kelvin)      0.04356     0.02498     0.01879
 Rotational constants (GHZ):           0.90770     0.52052     0.39157
    1 imaginary frequencies ignored.
 Zero-point vibrational energy     414724.5 (Joules/Mol)
                                   99.12155 (Kcal/Mol)
 Warning -- explicit consideration of  20 degrees of freedom as
           vibrations may cause significant error
 Vibrational temperatures:     66.19   103.40   138.07   176.15   196.13
          (Kelvin)            240.55   319.70   348.84   365.05   405.02
                              451.56   526.77   588.63   625.27   659.66
                              687.00   731.67   794.49   859.13   890.80
                              964.91  1007.96  1036.89  1078.36  1087.82
                             1301.37  1333.46  1377.05  1427.50  1461.95
                             1467.21  1491.44  1542.83  1544.50  1622.60
                             1770.65  1811.73  1851.46  1868.10  1907.81
                             1917.65  1991.57  2061.33  2064.94  2155.63
                             2174.53  2195.02  2277.93  2357.60  2433.62
                             3385.79  4396.93  4475.49  4560.01  4572.28
                             4600.90  4647.42  4657.02  4704.50

 Zero-point correction=                           0.157960 (Hartree/Particle)
 Thermal correction to Energy=                    0.170636
 Thermal correction to Enthalpy=                  0.171580
 Thermal correction to Gibbs Free Energy=         0.118335
 Sum of electronic and zero-point Energies=          -1005.690895
 Sum of electronic and thermal Energies=             -1005.678219
 Sum of electronic and thermal Enthalpies=           -1005.677275
 Sum of electronic and thermal Free Energies=        -1005.730520

                     E (Thermal)             CV                S
                      KCal/Mol        Cal/Mol-Kelvin    Cal/Mol-Kelvin
 Total                  107.076             46.954            112.063
 Electronic               0.000              0.000              0.000
 Translational            0.889              2.981             41.901
 Rotational               0.889              2.981             31.830
 Vibrational            105.298             40.992             38.332
 Vibration     1          0.595              1.979              4.982
 Vibration     2          0.598              1.967              4.102
 Vibration     3          0.603              1.952              3.535
 Vibration     4          0.610              1.930              3.062
 Vibration     5          0.614              1.917              2.855
 Vibration     6          0.624              1.883              2.467
 Vibration     7          0.648              1.807              1.941
 Vibration     8          0.659              1.775              1.785
 Vibration     9          0.665              1.757              1.705
 Vibration    10          0.681              1.708              1.525
 Vibration    11          0.702              1.647              1.342
 Vibration    12          0.739              1.542              1.096
 Vibration    13          0.773              1.450              0.930
 Vibration    14          0.795              1.395              0.844
 Vibration    15          0.817              1.342              0.771
 Vibration    16          0.834              1.300              0.717
 Vibration    17          0.864              1.231              0.637
 Vibration    18          0.908              1.135              0.540
 Vibration    19          0.955              1.038              0.455
 Vibration    20          0.979              0.991              0.418

                           ! Non-Optimized Parameters !
 Normal termination of Gaussian 16 at Mon Dec 14 13:13:40 2020.

 ----------------------------------------------------------------------
 # B3LYP/6-311++G(d,p) empiricaldispersion=gd3bj scf=xqc pop=npa geom=c
 heck
 ----------------------------------------------------------------------

 ---------------------------------------
 CID_131123622_JID_4134_Energie_neutraal
 ---------------------------------------
 Structure from the checkpoint file:  "JID_4134.chk"
 Charge =  0 Multiplicity = 1

 SCF Done:  E(RB3LYP) =  -1006.03930515     A.U. after   16 cycles
 Normal termination of Gaussian 16 at Mon Dec 14 13:15:39 2020.

 ----------------------------------------------------------------------
 # B3LYP/6-311++G(d,p) empiricaldispersion=gd3bj scf=xqc pop=npa geom=c
 heck
 ----------------------------------------------------------------------

 -------------------------------------
 CID_131123622_JID_4134_Energie_kation
 -------------------------------------
 Structure from the checkpoint file:  "JID_4134.chk"
 Charge =  1 Multiplicity = 2

 SCF Done:  E(UB3LYP) =  -1005.67701516     A.U. after   33 cycles
 SCF Done:  E(UB3LYP) =  -1005.67701981     a.u. after    4 cycles
 Normal termination of Gaussian 16 at Mon Dec 14 13:35:56 2020.
 Gaussian 16:  ES64L-G16RevA.03 25-Dec-2016

 ----------------------------------------------------------------------
 # B3LYP/6-311++G(d,p) empiricaldispersion=gd3bj scf=xqc pop=npa geom=c
 heck
 ----------------------------------------------------------------------

 ------------------------------------
 CID_131123622_JID_4134_Energie_anion
 ------------------------------------
 Structure from the checkpoint file:  "JID_4134.chk"
 Charge = -1 Multiplicity = 2

                         Standard orientation:
 ---------------------------------------------------------------------
 Center     Atomic      Atomic             Coordinates (Angstroms)
 Number     Number       Type             X           Y           Z
 ---------------------------------------------------------------------
      1          6           0        3.760925   -1.515356    0.184649
      2          6           0        2.619014   -0.539420    0.118604
      3          6           0        1.302311   -0.985867   -0.091322
      4          6           0        0.277512   -0.059344   -0.147892
      5          6           0        0.572599    1.307012    0.007976
      6          6           0        1.917050    1.648955    0.222502
      7          7           0        2.909680    0.761422    0.273100
      8          6           0       -0.421528    2.332406   -0.004315
      9          7           0       -1.216685    3.180011    0.034683
     10         16           0       -1.395746   -0.659850   -0.510560
     11          8           0       -1.873307    0.077769   -1.684759
     12          8           0       -1.309068   -2.127502   -0.506244
     13          6           0       -2.349862   -0.140202    0.905033
     14          6           0       -2.824123   -1.054420    1.745304
     15          1           0        4.704827   -0.974628    0.270029
     16          1           0        3.654380   -2.179873    1.050751
     17          1           0        3.787301   -2.149497   -0.708744
     18          1           0        1.075464   -2.039176   -0.213818
     19          1           0        2.186805    2.693711    0.355231
     20          1           0       -2.534538    0.927668    0.956044
     21          1           0       -3.450768   -0.766277    2.584377
     22          1           0       -2.606880   -2.109068    1.605403
 ---------------------------------------------------------------------

 SCF Done:  E(UB3LYP) =  -1006.08324858     A.U. after   25 cycles

 The electronic state is 2-A.
 Alpha  occ. eigenvalues --  -88.91533 -18.98558 -18.98111 -14.17704 -14.17247
 Alpha  occ. eigenvalues --  -10.09308 -10.08315 -10.08122 -10.07927 -10.07585
 Alpha  occ. eigenvalues --  -10.07057 -10.06938 -10.05765 -10.05534  -7.97833
 Alpha  occ. eigenvalues --   -5.94141  -5.94013  -5.93931  -0.97719  -0.87550
 Alpha  occ. eigenvalues --   -0.82163  -0.77772  -0.70208  -0.68070  -0.66832
 Alpha  occ. eigenvalues --   -0.60381  -0.56928  -0.51699  -0.50065  -0.45190
 Alpha  occ. eigenvalues --   -0.42695  -0.39241  -0.38008  -0.36516  -0.34832
 Alpha  occ. eigenvalues --   -0.33097  -0.32362  -0.31831  -0.30982  -0.28526
 Alpha  occ. eigenvalues --   -0.28046  -0.27814  -0.25715  -0.23952  -0.22923
 Alpha  occ. eigenvalues --   -0.21590  -0.20437  -0.19920  -0.19698  -0.17648
 Alpha  occ. eigenvalues --   -0.17085  -0.16243  -0.13725  -0.13481   0.01496
 Alpha virt. eigenvalues --    0.06829   0.08260   0.08841   0.09256   0.10325
 Alpha virt. eigenvalues --    0.11235   0.11771   0.12180   0.13260   0.14219
 Alpha virt. eigenvalues --    0.14682   0.15270   0.15547   0.15702   0.16516

  Beta  occ. eigenvalues --  -88.91532 -18.98524 -18.98053 -14.17512 -14.16926
  Beta  occ. eigenvalues --  -10.09400 -10.08314 -10.07942 -10.07867 -10.07355
  Beta  occ. eigenvalues --  -10.06718 -10.06644 -10.05783 -10.05573  -7.97828
  Beta  occ. eigenvalues --   -5.94142  -5.93995  -5.93929  -0.97553  -0.87416
  Beta  occ. eigenvalues --   -0.81646  -0.77472  -0.69574  -0.67728  -0.66467
  Beta  occ. eigenvalues --   -0.60048  -0.56534  -0.51564  -0.49430  -0.44924
  Beta  occ. eigenvalues --   -0.42498  -0.39016  -0.37772  -0.36305  -0.34657
  Beta  occ. eigenvalues --   -0.32979  -0.31947  -0.31528  -0.30832  -0.28367
  Beta  occ. eigenvalues --   -0.27834  -0.27014  -0.25535  -0.23656  -0.21942
  Beta  occ. eigenvalues --   -0.21450  -0.20271  -0.19625  -0.19072  -0.17260
  Beta  occ. eigenvalues --   -0.16634  -0.14998  -0.13110  -0.12360
  Beta virt. eigenvalues --    0.06978   0.07930   0.08269   0.08835   0.10285
  Beta virt. eigenvalues --    0.10478   0.11202   0.11787   0.12153   0.13245
  Beta virt. eigenvalues --    0.14212   0.14716   0.15327   0.15598   0.15749

 Mulliken charges and spin densities:
               1          2
     1  C   -0.652801  -0.016428
     2  C   -0.653771   0.149382
     3  C    0.925405   0.042475
     4  C   -0.452400   0.367331
     5  C    1.738153   0.145334
     6  C   -0.446749  -0.058605
     7  N   -0.007563   0.153418
     8  C   -1.903210  -0.070211
     9  N   -0.244739   0.103680
    10  S    0.208872  -0.006118
    11  O   -0.107951  -0.032274
    12  O   -0.180499   0.009904
    13  C   -0.065445   0.012854
    14  C   -0.505042   0.193784
    15  H    0.147781   0.000293
    16  H    0.134517   0.007275
    17  H    0.128864   0.006226
    18  H    0.239457   0.002912
    19  H    0.175828   0.004151
    20  H    0.240462  -0.001844
    21  H    0.109478  -0.006474
    22  H    0.171354  -0.007066
 Sum of Mulliken charges =  -1.00000   1.00000

 Dipole moment (field-independent basis, Debye):
    X=              1.7131    Y=             -3.0332    Z=              2.7373  Tot=              4.4304
 Quadrupole moment (field-independent basis, Debye-Ang):
   XX=           -119.2799   YY=           -117.2497   ZZ=           -100.3595
   XY=              0.7330   XZ=             -8.9448   YZ=             -1.1389

 Summary of Natural Population Analysis:

                                       Natural Population
                Natural  -----------------------------------------------
    Atom  No    Charge         Core      Valence    Rydberg      Total
 -----------------------------------------------------------------------
      C    1   -0.30015      0.99964     2.29601    0.00450     3.30015
      C    2    0.15162      0.99957     1.83559    0.01323     2.84838
      C    3   -0.12466      0.99945     2.11726    0.00795     3.12466
      C    4   -0.01888      0.99933     2.00232    0.01723     3.01888
      C    5   -0.08335      0.99936     2.07217    0.01183     3.08335
      C    6    0.03510      0.99957     1.95236    0.01297     2.96490
      N    7   -0.20480      0.99967     2.69314    0.01198     3.70480
      C    8    0.14782      0.99964     1.83435    0.01819     2.85218
      N    9   -0.16620      0.99979     2.65571    0.01070     3.66620
      S   10    1.03520      4.99913     1.86761    0.09806     6.96480
      O   11   -0.45973      0.99991     3.45454    0.00528     4.45973
      O   12   -0.47949      0.99991     3.47272    0.00686     4.47949
      C   13   -0.22445      0.99947     2.21308    0.01190     3.22445
      C   14   -0.12255      0.99957     2.11542    0.00756     3.12255
      H   15    0.10454      0.00000     0.39412    0.00134     0.39546
      H   16    0.10078      0.00000     0.39828    0.00094     0.39922
      H   17    0.10020      0.00000     0.39890    0.00090     0.39980
      H   18    0.11339      0.00000     0.38558    0.00103     0.38661
      H   19    0.08797      0.00000     0.41074    0.00129     0.41203
      H   20    0.11667      0.00000     0.38179    0.00154     0.38333
      H   21    0.08917      0.00000     0.40963    0.00120     0.41083
      H   22    0.10179      0.00000     0.39690    0.00131     0.39821
 =======================================================================
   * Total *    0.00000     17.99401    35.75822    0.24777    54.00000

 Normal termination of Gaussian 16 at Mon Dec 14 13:40:01 2020.
