 Gaussian 16, Revision A.03,

 -----------------------------------------------------------
 # opt freq B3LYP/6-31G(d) empiricaldispersion=gd3bj scf=xqc
 -----------------------------------------------------------

 -------------------------------
 CID_140483969_JID_3806_neutraal
 -------------------------------
 Symbolic Z-matrix:
 Charge =  0 Multiplicity = 1

 SCF Done:  E(RB3LYP) =  -608.716002130     A.U. after   16 cycles
 SCF Done:  E(RB3LYP) =  -608.723732106     A.U. after   14 cycles
 SCF Done:  E(RB3LYP) =  -608.725486938     A.U. after   13 cycles
 SCF Done:  E(RB3LYP) =  -608.726448205     A.U. after   14 cycles
 SCF Done:  E(RB3LYP) =  -608.726886391     A.U. after   14 cycles
 SCF Done:  E(RB3LYP) =  -608.727935747     A.U. after   14 cycles
 SCF Done:  E(RB3LYP) =  -608.727938795     A.U. after   15 cycles
 SCF Done:  E(RB3LYP) =  -608.729711362     A.U. after   14 cycles
 SCF Done:  E(RB3LYP) =  -608.730622417     A.U. after   14 cycles
 SCF Done:  E(RB3LYP) =  -608.731855977     A.U. after   14 cycles
 SCF Done:  E(RB3LYP) =  -608.734584080     A.U. after   12 cycles
 SCF Done:  E(RB3LYP) =  -608.734602642     A.U. after   12 cycles
 SCF Done:  E(RB3LYP) =  -608.734618701     A.U. after   11 cycles
 SCF Done:  E(RB3LYP) =  -608.734623510     A.U. after   11 cycles
 SCF Done:  E(RB3LYP) =  -608.734624018     A.U. after    9 cycles
 SCF Done:  E(RB3LYP) =  -608.734624117     A.U. after    8 cycles
 Optimization completed.
    -- Stationary point found.
 Normal termination of Gaussian 16 at Sun Dec 13 20:06:27 2020.

 --------------------------------------------------------------------
 #N Geom=AllCheck Guess=TCheck SCRF=Check GenChk RB3LYP/6-31G(d) Freq
 --------------------------------------------------------------------

 Structure from the checkpoint file:  "JID_3806.chk"
 -------------------------------
 CID_140483969_JID_3806_neutraal
 -------------------------------
 Charge =  0 Multiplicity = 1

 SCF Done:  E(RB3LYP) =  -608.734624117     A.U. after    1 cycles

  Exact polarizability: 110.362  -2.152 101.410   7.782   3.830  92.927
 Approx polarizability: 163.163  -9.103 175.488  28.581  11.956 176.024

                      1                      2                      3
                      A                      A                      A
 Frequencies --     44.0816                83.5158               103.6454
 Red. masses --      3.6570                 3.8215                 4.7233
 Frc consts  --      0.0042                 0.0157                 0.0299
 IR Inten    --      0.4288                 4.6949                 3.0789

                      4                      5                      6
                      A                      A                      A
 Frequencies --    116.7213               152.8837               242.2864
 Red. masses --      2.5819                 8.8783                 3.8830
 Frc consts  --      0.0207                 0.1223                 0.1343
 IR Inten    --      0.6255                 5.7956                 1.0521

                      7                      8                      9
                      A                      A                      A
 Frequencies --    302.1054               330.3369               369.3298
 Red. masses --      4.5011                 2.5538                 3.0393
 Frc consts  --      0.2420                 0.1642                 0.2443
 IR Inten    --      1.7259                 5.8747                 4.0928

                     10                     11                     12
                      A                      A                      A
 Frequencies --    382.4124               417.5485               437.8141
 Red. masses --      4.1677                 5.8006                 2.9695
 Frc consts  --      0.3591                 0.5959                 0.3354
 IR Inten    --      3.4653                11.3503                 7.0494

                     13                     14                     15
                      A                      A                      A
 Frequencies --    468.9253               519.3964               546.8491
 Red. masses --      2.9007                 4.2795                 4.9312
 Frc consts  --      0.3758                 0.6802                 0.8688
 IR Inten    --     10.5475                44.0210                 0.6656

                     16                     17                     18
                      A                      A                      A
 Frequencies --    591.1448               637.0594               661.8187
 Red. masses --      5.0591                 5.0825                 2.0798
 Frc consts  --      1.0416                 1.2153                 0.5367
 IR Inten    --     33.7258                 5.3620                13.9043

                     19                     20                     21
                      A                      A                      A
 Frequencies --    717.1155               769.9663               803.5065
 Red. masses --      5.4760                 5.6207                 7.9930
 Frc consts  --      1.6592                 1.9633                 3.0405
 IR Inten    --      5.7977                60.6216                17.4421

                     22                     23                     24
                      A                      A                      A
 Frequencies --    852.1055               887.8134               898.0735
 Red. masses --      3.8418                 2.7220                 5.5341
 Frc consts  --      1.6435                 1.2641                 2.6298
 IR Inten    --      2.8913                 2.7984                35.0267

                     25                     26                     27
                      A                      A                      A
 Frequencies --    916.2808               943.3894               960.5701
 Red. masses --      3.5098                 1.6137                 1.3623
 Frc consts  --      1.7362                 0.8462                 0.7406
 IR Inten    --     32.2776                18.3353                36.2390

                     28                     29                     30
                      A                      A                      A
 Frequencies --    972.5656               990.6631               995.3462
 Red. masses --      2.4084                 4.3422                 2.4378
 Frc consts  --      1.3422                 2.5108                 1.4230
 IR Inten    --     17.8522                39.0177                 6.9006

                     31                     32                     33
                      A                      A                      A
 Frequencies --   1031.8004              1037.9225              1061.1048
 Red. masses --      1.2111                 2.8446                 2.3280
 Frc consts  --      0.7597                 1.8055                 1.5444
 IR Inten    --      6.3370               128.4607                 2.3900

                     34                     35                     36
                      A                      A                      A
 Frequencies --   1100.3055              1159.7711              1190.3975
 Red. masses --      2.3029                 3.5135                 2.0706
 Frc consts  --      1.6427                 2.7844                 1.7287
 IR Inten    --     31.6663                53.7335                 0.7495

                     37                     38                     39
                      A                      A                      A
 Frequencies --   1206.5816              1234.4108              1253.5383
 Red. masses --      2.3053                 1.2755                 1.6784
 Frc consts  --      1.9774                 1.1451                 1.5539
 IR Inten    --      6.5642                10.9976                 3.7006

                     40                     41                     42
                      A                      A                      A
 Frequencies --   1292.4353              1302.5627              1317.2605
 Red. masses --      1.2696                 1.2477                 1.2915
 Frc consts  --      1.2495                 1.2473                 1.3203
 IR Inten    --      9.3567                13.0812                14.3637

                     43                     44                     45
                      A                      A                      A
 Frequencies --   1331.8060              1345.6474              1371.0255
 Red. masses --      1.2667                 1.3038                 1.7680
 Frc consts  --      1.3238                 1.3910                 1.9581
 IR Inten    --      1.5101                 6.0135                21.2611

                     46                     47                     48
                      A                      A                      A
 Frequencies --   1384.4554              1478.9936              1503.1085
 Red. masses --      1.3299                 1.1804                 1.0795
 Frc consts  --      1.5019                 1.5212                 1.4370
 IR Inten    --     22.1237                 7.5142                 3.7807

                     49                     50                     51
                      A                      A                      A
 Frequencies --   1506.3094              1517.2738              1733.8411
 Red. masses --      1.1144                 1.0908                 4.4698
 Frc consts  --      1.4897                 1.4796                 7.9170
 IR Inten    --      9.0177                 3.2208                 2.0573

                     52                     53                     54
                      A                      A                      A
 Frequencies --   1860.8468              2108.0025              3078.6809
 Red. masses --     12.5847                11.5088                 1.0628
 Frc consts  --     25.6752                30.1316                 5.9353
 IR Inten    --    355.2297                10.5178                22.2424

                     55                     56                     57
                      A                      A                      A
 Frequencies --   3103.4804              3107.7475              3146.1819
 Red. masses --      1.0610                 1.0616                 1.0999
 Frc consts  --      6.0210                 6.0411                 6.4145
 IR Inten    --     30.2992                17.4286                 1.1246

                     58                     59                     60
                      A                      A                      A
 Frequencies --   3163.0915              3163.5811              3173.6585
 Red. masses --      1.0742                 1.1059                 1.0800
 Frc consts  --      6.3324                 6.5209                 6.4091
 IR Inten    --     15.3037                 3.1494                 4.3707

                     61                     62                     63
                      A                      A                      A
 Frequencies --   3174.8308              3180.5801              3250.1565
 Red. masses --      1.0890                 1.1078                 1.1165
 Frc consts  --      6.4672                 6.6027                 6.9488
 IR Inten    --     26.4321                 8.4445                15.8312

 - Thermochemistry -
 -------------------
 Temperature   298.150 Kelvin.  Pressure   1.00000 Atm.
 Atom     1 has atomic number  6 and mass  12.00000

 Molecular mass:   178.07423 amu.
 Principal axes and moments of inertia in atomic units:
                           1         2         3
     Eigenvalues --  1298.800412382.195812778.61794
           X            0.99994   0.00468  -0.00976
           Y           -0.00470   0.99999  -0.00119
           Z            0.00975   0.00124   0.99995
 This molecule is an asymmetric top.
 Rotational symmetry number  1.
 Warning -- assumption of classical behavior for rotation
           may cause significant error
 Rotational temperatures (Kelvin)      0.06669     0.03636     0.03117
 Rotational constants (GHZ):           1.38954     0.75760     0.64951
 Zero-point vibrational energy     478426.5 (Joules/Mol)
                                  114.34667 (Kcal/Mol)
 Warning -- explicit consideration of  16 degrees of freedom as
           vibrations may cause significant error
 Vibrational temperatures:     63.42   120.16   149.12   167.94   219.97
          (Kelvin)            348.60   434.66   475.28   531.38   550.21
                              600.76   629.92   674.68   747.30   786.79
                              850.53   916.59   952.21  1031.77  1107.81
                             1156.07  1225.99  1277.37  1292.13  1318.32
                             1357.33  1382.05  1399.31  1425.34  1432.08
                             1484.53  1493.34  1526.69  1583.09  1668.65
                             1712.72  1736.00  1776.04  1803.56  1859.53
                             1874.10  1895.24  1916.17  1936.09  1972.60
                             1991.92  2127.94  2162.64  2167.24  2183.02
                             2494.61  2677.34  3032.95  4429.54  4465.22
                             4471.36  4526.65  4550.98  4551.69  4566.19
                             4567.87  4576.15  4676.25

 Zero-point correction=                           0.182223 (Hartree/Particle)
 Thermal correction to Energy=                    0.193350
 Thermal correction to Enthalpy=                  0.194294
 Thermal correction to Gibbs Free Energy=         0.144889
 Sum of electronic and zero-point Energies=           -608.552401
 Sum of electronic and thermal Energies=              -608.541274
 Sum of electronic and thermal Enthalpies=            -608.540330
 Sum of electronic and thermal Free Energies=         -608.589735

                     E (Thermal)             CV                S
                      KCal/Mol        Cal/Mol-Kelvin    Cal/Mol-Kelvin
 Total                  121.329             43.005            103.980
 Electronic               0.000              0.000              0.000
 Translational            0.889              2.981             41.438
 Rotational               0.889              2.981             30.531
 Vibrational            119.551             37.043             32.011
 Vibration     1          0.595              1.980              5.067
 Vibration     2          0.600              1.961              3.807
 Vibration     3          0.605              1.946              3.385
 Vibration     4          0.608              1.935              3.154
 Vibration     5          0.619              1.899              2.636
 Vibration     6          0.658              1.775              1.786
 Vibration     7          0.694              1.670              1.405
 Vibration     8          0.713              1.615              1.258
 Vibration     9          0.742              1.535              1.083
 Vibration    10          0.752              1.508              1.030
 Vibration    11          0.781              1.432              0.900
 Vibration    12          0.798              1.388              0.834
 Vibration    13          0.826              1.319              0.741
 Vibration    14          0.874              1.207              0.611
 Vibration    15          0.902              1.147              0.551
 Vibration    16          0.949              1.051              0.465

 Optimization completed.
    -- Stationary point found.
 Normal termination of Gaussian 16 at Sun Dec 13 20:12:25 2020.

 ----------------------------------------------------------------------
 # B3LYP/6-311++G(d,p) empiricaldispersion=gd3bj scf=xqc pop=npa geom=c
 heck
 ----------------------------------------------------------------------

 ---------------------------------------
 CID_140483969_JID_3806_Energie_neutraal
 ---------------------------------------
 Structure from the checkpoint file:  "JID_3806.chk"
 Charge =  0 Multiplicity = 1

 SCF Done:  E(RB3LYP) =  -608.906049397     A.U. after   15 cycles
 Normal termination of Gaussian 16 at Sun Dec 13 20:14:48 2020.

 ----------------------------------------------------------------------
 # B3LYP/6-311++G(d,p) empiricaldispersion=gd3bj scf=xqc pop=npa geom=c
 heck
 ----------------------------------------------------------------------

 -------------------------------------
 CID_140483969_JID_3806_Energie_kation
 -------------------------------------
 Structure from the checkpoint file:  "JID_3806.chk"
 Charge =  1 Multiplicity = 2

 SCF Done:  E(UB3LYP) =  -608.582012572     A.U. after   29 cycles
 Normal termination of Gaussian 16 at Sun Dec 13 20:21:18 2020.
 Gaussian 16:  ES64L-G16RevA.03 25-Dec-2016

 ----------------------------------------------------------------------
 # B3LYP/6-311++G(d,p) empiricaldispersion=gd3bj scf=xqc pop=npa geom=c
 heck
 ----------------------------------------------------------------------

 ------------------------------------
 CID_140483969_JID_3806_Energie_anion
 ------------------------------------
 Structure from the checkpoint file:  "JID_3806.chk"
 Charge = -1 Multiplicity = 2

                         Standard orientation:
 ---------------------------------------------------------------------
 Center     Atomic      Atomic             Coordinates (Angstroms)
 Number     Number       Type             X           Y           Z
 ---------------------------------------------------------------------
      1          6           0        3.010810   -1.373729   -0.537629
      2          6           0        2.908464   -0.188463    0.062801
      3          6           0        1.999543    0.910160   -0.396381
      4          8           0        1.154870    1.389287    0.695423
      5          7           0       -0.079971    0.783925    0.752500
      6          6           0       -0.298356   -0.572454    1.265895
      7          6           0       -1.856926   -0.440183    1.302518
      8          7           0       -2.138038    0.174331   -0.014676
      9          6           0       -1.031030    1.083481   -0.224134
     10          8           0       -0.927659    1.889605   -1.117865
     11          6           0       -2.122490   -0.850381   -1.111149
     12          6           0       -0.863356   -1.627990   -0.834033
     13          6           0       -0.143629   -1.604558    0.166018
     14          1           0        2.395890   -1.630540   -1.395735
     15          1           0        3.704033   -2.133842   -0.188228
     16          1           0        3.519607    0.044202    0.934306
     17          1           0        2.568533    1.803088   -0.675952
     18          1           0        1.378428    0.613630   -1.243963
     19          1           0        0.209735   -0.724525    2.216236
     20          1           0       -2.155735    0.257616    2.088664
     21          1           0       -2.377846   -1.390202    1.414835
     22          1           0       -3.021083   -1.467455   -1.031059
     23          1           0       -2.131369   -0.326206   -2.067772
 ---------------------------------------------------------------------

 SCF Done:  E(UB3LYP) =  -608.926581253     A.U. after   30 cycles

 The electronic state is 2-A.
 Alpha  occ. eigenvalues --  -19.04340 -18.96934 -14.24743 -14.18757 -10.16092
 Alpha  occ. eigenvalues --  -10.09861 -10.08131 -10.07421 -10.06472 -10.05097
 Alpha  occ. eigenvalues --  -10.04662  -9.95864  -9.95560  -0.97930  -0.91485
 Alpha  occ. eigenvalues --   -0.83001  -0.72907  -0.66476  -0.62259  -0.60063
 Alpha  occ. eigenvalues --   -0.56425  -0.50999  -0.49422  -0.45066  -0.42712
 Alpha  occ. eigenvalues --   -0.38532  -0.38330  -0.35868  -0.33785  -0.32830
 Alpha  occ. eigenvalues --   -0.32510  -0.31040  -0.29899  -0.29651  -0.27623
 Alpha  occ. eigenvalues --   -0.26630  -0.25065  -0.24354  -0.23712  -0.22804
 Alpha  occ. eigenvalues --   -0.17399  -0.15852  -0.14421  -0.13523  -0.11270
 Alpha  occ. eigenvalues --   -0.08566  -0.07542   0.04504
 Alpha virt. eigenvalues --    0.08953   0.09584   0.10733   0.10898   0.11060
 Alpha virt. eigenvalues --    0.11917   0.12555   0.12741   0.13841   0.14201
 Alpha virt. eigenvalues --    0.14671   0.15889   0.16092   0.17121   0.17848

  Beta  occ. eigenvalues --  -19.04332 -18.96938 -14.24710 -14.18662 -10.16095
  Beta  occ. eigenvalues --  -10.09850 -10.07903 -10.07419 -10.06262 -10.05029
  Beta  occ. eigenvalues --  -10.04665  -9.95279  -9.95033  -0.97885  -0.91473
  Beta  occ. eigenvalues --   -0.82833  -0.72736  -0.66342  -0.61830  -0.59630
  Beta  occ. eigenvalues --   -0.56372  -0.50681  -0.49181  -0.44951  -0.42619
  Beta  occ. eigenvalues --   -0.38222  -0.37990  -0.35784  -0.33726  -0.32642
  Beta  occ. eigenvalues --   -0.32276  -0.30494  -0.29757  -0.29394  -0.27529
  Beta  occ. eigenvalues --   -0.26333  -0.24957  -0.24305  -0.23568  -0.22380
  Beta  occ. eigenvalues --   -0.17355  -0.15552  -0.14302  -0.13196  -0.10666
  Beta  occ. eigenvalues --   -0.07043  -0.04856
  Beta virt. eigenvalues --    0.08895   0.09471   0.10373   0.10746   0.11073
  Beta virt. eigenvalues --    0.11810   0.12322   0.12585   0.13648   0.14019
  Beta virt. eigenvalues --    0.14614   0.14689   0.15927   0.16095   0.17151

 Mulliken charges and spin densities:
               1          2
     1  C   -0.583488   0.021402
     2  C    0.323348   0.038852
     3  C   -0.358145  -0.000499
     4  O    0.184352   0.003643
     5  N   -0.512160   0.007937
     6  C    0.761806   0.070040
     7  C   -0.768901  -0.014721
     8  N   -0.018263   0.041485
     9  C   -0.050393  -0.010691
    10  O   -0.369616  -0.000847
    11  C   -0.210973  -0.280597
    12  C   -0.004582   0.639152
    13  C   -0.736267   0.313613
    14  H    0.129037  -0.023747
    15  H    0.067281   0.030579
    16  H    0.129636  -0.000012
    17  H    0.157604   0.000173
    18  H    0.194748   0.003652
    19  H    0.221940   0.009704
    20  H    0.105774   0.036576
    21  H    0.159581  -0.004031
    22  H    0.041392   0.088595
    23  H    0.136289   0.029743
 Sum of Mulliken charges =  -1.00000   1.00000

 Dipole moment (field-independent basis, Debye):
    X=              1.5034    Y=              2.0371    Z=              2.9642  Tot=              3.8983
 Quadrupole moment (field-independent basis, Debye-Ang):
   XX=            -93.1783   YY=           -107.4603   ZZ=            -87.8457
   XY=              3.2116   XZ=             -4.0472   YZ=             -2.8398

 Summary of Natural Population Analysis:

                                       Natural Population
                Natural  -----------------------------------------------
    Atom  No    Charge         Core      Valence    Rydberg      Total
 -----------------------------------------------------------------------
      C    1   -0.17162      0.99957     2.16454    0.00752     3.17162
      C    2   -0.09865      0.99957     2.08972    0.00936     3.09865
      C    3   -0.03366      0.99955     2.02262    0.01150     3.03366
      O    4   -0.20967      0.99989     3.19859    0.01119     4.20967
      N    5   -0.10812      0.99956     2.59282    0.01575     3.60812
      C    6   -0.01744      0.99954     2.00260    0.01530     3.01744
      C    7   -0.08109      0.99962     2.07151    0.00996     3.08109
      N    8   -0.27557      0.99972     2.76280    0.01305     3.77557
      C    9    0.41673      0.99964     1.55505    0.02858     2.58327
      O   10   -0.32051      0.99986     3.31438    0.00627     4.32051
      C   11   -0.10385      0.99957     2.08886    0.01542     3.10385
      C   12    0.05687      0.99881     1.92863    0.01570     2.94313
      C   13    0.00278      0.99879     1.98209    0.01633     2.99722
      H   14    0.10246      0.00000     0.39618    0.00137     0.39754
      H   15    0.08645      0.00000     0.41238    0.00117     0.41355
      H   16    0.08578      0.00000     0.41264    0.00158     0.41422
      H   17    0.08764      0.00000     0.41115    0.00122     0.41236
      H   18    0.10207      0.00000     0.39589    0.00205     0.39793
      H   19    0.09468      0.00000     0.40373    0.00160     0.40532
      H   20    0.09409      0.00000     0.40457    0.00134     0.40591
      H   21    0.09875      0.00000     0.40005    0.00120     0.40125
      H   22    0.09195      0.00000     0.40657    0.00148     0.40805
      H   23    0.09995      0.00000     0.39846    0.00159     0.40005
 =======================================================================
   * Total *    0.00000     12.99369    33.81580    0.19051    47.00000

 Normal termination of Gaussian 16 at Sun Dec 13 20:27:58 2020.
