 Gaussian 16, Revision A.03,

 -----------------------------------------------------------
 # opt freq B3LYP/6-31G(d) empiricaldispersion=gd3bj scf=xqc
 -----------------------------------------------------------

 -------------------------------
 CID_12074870_JID_10400_neutraal
 -------------------------------
 Symbolic Z-matrix:
 Charge =  0 Multiplicity = 1

 SCF Done:  E(RB3LYP) =  -913.902445357     A.U. after   15 cycles
 SCF Done:  E(RB3LYP) =  -913.906258358     A.U. after   13 cycles
 SCF Done:  E(RB3LYP) =  -913.902626924     A.U. after   13 cycles
 SCF Done:  E(RB3LYP) =  -913.907561405     A.U. after   13 cycles
 SCF Done:  E(RB3LYP) =  -913.908071790     A.U. after   13 cycles
 SCF Done:  E(RB3LYP) =  -913.909281586     A.U. after   12 cycles
 SCF Done:  E(RB3LYP) =  -913.909460660     A.U. after   12 cycles
 SCF Done:  E(RB3LYP) =  -913.909552604     A.U. after   11 cycles
 SCF Done:  E(RB3LYP) =  -913.909592000     A.U. after   11 cycles
 SCF Done:  E(RB3LYP) =  -913.909610463     A.U. after   10 cycles
 SCF Done:  E(RB3LYP) =  -913.909616687     A.U. after    8 cycles
 SCF Done:  E(RB3LYP) =  -913.909618007     A.U. after    8 cycles
 SCF Done:  E(RB3LYP) =  -913.909618473     A.U. after    8 cycles
 SCF Done:  E(RB3LYP) =  -913.909618629     A.U. after    7 cycles
 Optimization completed.
    -- Stationary point found.
 Normal termination of Gaussian 16 at Sun Dec 13 20:47:00 2020.

 --------------------------------------------------------------------
 #N Geom=AllCheck Guess=TCheck SCRF=Check GenChk RB3LYP/6-31G(d) Freq
 --------------------------------------------------------------------

 Structure from the checkpoint file:  "JID_10400.chk"
 -------------------------------
 CID_12074870_JID_10400_neutraal
 -------------------------------
 Charge =  0 Multiplicity = 1

 SCF Done:  E(RB3LYP) =  -913.909618629     A.U. after    1 cycles

  Exact polarizability: 226.758   6.765 166.613  18.849  -4.219 115.236
 Approx polarizability: 315.133  29.662 263.713  38.735  -5.626 187.112

                      1                      2                      3
                      A                      A                      A
 Frequencies --     23.7643                45.9880                55.5125
 Red. masses --      6.1351                 4.1688                 4.7360
 Frc consts  --      0.0020                 0.0052                 0.0086
 IR Inten    --      1.9589                 0.9063                 2.2121

                      4                      5                      6
                      A                      A                      A
 Frequencies --     65.1041                92.6387               102.3583
 Red. masses --      5.1702                 4.5808                 3.2046
 Frc consts  --      0.0129                 0.0232                 0.0198
 IR Inten    --      0.8657                 0.6599                 1.8747

                      7                      8                      9
                      A                      A                      A
 Frequencies --    107.6488               131.3892               157.5370
 Red. masses --      3.3556                 4.2880                 6.9058
 Frc consts  --      0.0229                 0.0436                 0.1010
 IR Inten    --      0.3655                 1.2011                 3.3797

                     10                     11                     12
                      A                      A                      A
 Frequencies --    173.4949               219.7689               276.5102
 Red. masses --      3.8734                 4.0921                 2.7725
 Frc consts  --      0.0687                 0.1164                 0.1249
 IR Inten    --      0.3124                 3.0723                 2.9192

                     13                     14                     15
                      A                      A                      A
 Frequencies --    281.6620               330.1963               358.1739
 Red. masses --      4.3095                 2.1650                 2.1212
 Frc consts  --      0.2014                 0.1391                 0.1603
 IR Inten    --      2.1415                 0.9837                 2.4775

                     16                     17                     18
                      A                      A                      A
 Frequencies --    377.7641               389.0363               418.4240
 Red. masses --      5.6486                 4.6269                 3.8613
 Frc consts  --      0.4749                 0.4126                 0.3983
 IR Inten    --     11.7873                11.7671                 9.7485

                     19                     20                     21
                      A                      A                      A
 Frequencies --    436.1678               448.5914               471.0495
 Red. masses --      3.3592                 3.1877                 2.3214
 Frc consts  --      0.3765                 0.3779                 0.3035
 IR Inten    --      4.4619                 1.9877                 4.6722

                     22                     23                     24
                      A                      A                      A
 Frequencies --    513.6206               539.6445               556.0476
 Red. masses --      3.6745                 2.7198                 2.9302
 Frc consts  --      0.5711                 0.4667                 0.5338
 IR Inten    --      7.5516                 4.2879                 1.4810

                     25                     26                     27
                      A                      A                      A
 Frequencies --    624.5905               640.1588               662.3157
 Red. masses --      4.3225                 4.0530                 3.4359
 Frc consts  --      0.9935                 0.9786                 0.8880
 IR Inten    --      3.3849                 2.8227                 4.7322

                     28                     29                     30
                      A                      A                      A
 Frequencies --    678.6234               683.3316               695.2618
 Red. masses --      4.2157                 3.4832                 1.3063
 Frc consts  --      1.1439                 0.9583                 0.3720
 IR Inten    --      7.0284                10.5767                57.1255

                     31                     32                     33
                      A                      A                      A
 Frequencies --    716.7972               753.7332               761.5742
 Red. masses --      4.0767                 9.8854                 5.1653
 Frc consts  --      1.2341                 3.3089                 1.7651
 IR Inten    --      5.0056                17.5037                48.4556

                     34                     35                     36
                      A                      A                      A
 Frequencies --    763.0388               803.1425               828.6633
 Red. masses --      1.2980                 1.2328                 2.7769
 Frc consts  --      0.4453                 0.4685                 1.1235
 IR Inten    --      6.5087                54.0695                 3.6381

                     37                     38                     39
                      A                      A                      A
 Frequencies --    849.8330               858.5532               861.2911
 Red. masses --      1.5092                 1.7507                 1.3624
 Frc consts  --      0.6422                 0.7603                 0.5955
 IR Inten    --      2.0644                24.7666                 0.2589

                     40                     41                     42
                      A                      A                      A
 Frequencies --    883.4782               886.3900               924.3785
 Red. masses --      2.8321                 2.4385                 6.3417
 Frc consts  --      1.3024                 1.1288                 3.1927
 IR Inten    --      1.0206                 4.0000                21.8048

                     43                     44                     45
                      A                      A                      A
 Frequencies --    931.0517               943.9084               989.0146
 Red. masses --      1.5299                 2.5683                 2.4233
 Frc consts  --      0.7814                 1.3482                 1.3965
 IR Inten    --      0.7833                 2.8679                 1.6453

                     46                     47                     48
                      A                      A                      A
 Frequencies --   1005.1775              1053.6954              1061.3859
 Red. masses --      2.2735                 2.7987                 2.7433
 Frc consts  --      1.3534                 1.8308                 1.8208
 IR Inten    --      0.3024                 7.5701                23.3718

                     49                     50                     51
                      A                      A                      A
 Frequencies --   1075.7050              1099.4066              1111.0642
 Red. masses --      2.8394                 2.7722                 1.7664
 Frc consts  --      1.9358                 1.9742                 1.2847
 IR Inten    --      9.7194                 4.6843                20.2550

                     52                     53                     54
                      A                      A                      A
 Frequencies --   1113.8938              1118.3153              1147.2272
 Red. masses --      1.4684                 1.9243                 2.3455
 Frc consts  --      1.0735                 1.4179                 1.8188
 IR Inten    --     43.5048                 0.6202                11.4011

                     55                     56                     57
                      A                      A                      A
 Frequencies --   1151.8684              1176.8003              1193.9465
 Red. masses --      2.0533                 1.1641                 2.5529
 Frc consts  --      1.6051                 0.9498                 2.1441
 IR Inten    --      9.0361                 2.3782                 0.5340

                     58                     59                     60
                      A                      A                      A
 Frequencies --   1209.9328              1216.2779              1244.2924
 Red. masses --      1.4456                 1.3754                 3.4596
 Frc consts  --      1.2469                 1.1988                 3.1559
 IR Inten    --      1.9418                 1.5496                23.4120

                     61                     62                     63
                      A                      A                      A
 Frequencies --   1266.0516              1274.9877              1293.8615
 Red. masses --      1.9374                 1.6152                 1.2911
 Frc consts  --      1.8297                 1.5470                 1.2735
 IR Inten    --     18.3917                13.4489                15.1852

                     64                     65                     66
                      A                      A                      A
 Frequencies --   1305.9644              1321.6823              1339.6678
 Red. masses --      1.3427                 1.7723                 1.5616
 Frc consts  --      1.3492                 1.8241                 1.6512
 IR Inten    --     39.9702                36.2340                10.7242

                     67                     68                     69
                      A                      A                      A
 Frequencies --   1364.5000              1385.0579              1392.8404
 Red. masses --      1.5606                 1.4921                 1.5229
 Frc consts  --      1.7119                 1.6865                 1.7408
 IR Inten    --     54.8973                13.0151                 3.4325

                     70                     71                     72
                      A                      A                      A
 Frequencies --   1397.5231              1400.4895              1407.7745
 Red. masses --      1.4084                 3.0565                 1.9782
 Frc consts  --      1.6206                 3.5321                 2.3099
 IR Inten    --     13.1854                12.5256                 2.5186

                     73                     74                     75
                      A                      A                      A
 Frequencies --   1410.4773              1413.6410              1418.9916
 Red. masses --      1.6311                 1.8380                 2.2786
 Frc consts  --      1.9119                 2.1641                 2.7032
 IR Inten    --      4.7338                19.3542                48.1194

                     76                     77                     78
                      A                      A                      A
 Frequencies --   1431.9336              1436.2322              1485.9490
 Red. masses --      1.4730                 1.9172                 3.9796
 Frc consts  --      1.7796                 2.3300                 5.1772
 IR Inten    --     17.9731                 5.9339               231.6993

                     79                     80                     81
                      A                      A                      A
 Frequencies --   1498.1341              1500.5887              1507.9131
 Red. masses --      1.1372                 1.1158                 1.2491
 Frc consts  --      1.5038                 1.4804                 1.6734
 IR Inten    --      9.8892                 1.1399                32.6236

                     82                     83                     84
                      A                      A                      A
 Frequencies --   1511.0640              1521.3896              1527.5134
 Red. masses --      1.0896                 1.1001                 1.0928
 Frc consts  --      1.4658                 1.5002                 1.5024
 IR Inten    --      2.9227                 6.6598                14.8368

                     85                     86                     87
                      A                      A                      A
 Frequencies --   1532.7850              1544.2351              1557.6913
 Red. masses --      1.1069                 2.3325                 3.8751
 Frc consts  --      1.5323                 3.2771                 5.5398
 IR Inten    --      5.7548                14.3702                20.8591

                     88                     89                     90
                      A                      A                      A
 Frequencies --   1681.7974              1788.3314              1792.8202
 Red. masses --      7.6928                 7.5628                12.0704
 Frc consts  --     12.8199                14.2505                22.8583
 IR Inten    --     93.4680               968.1458               251.0995

                     91                     92                     93
                      A                      A                      A
 Frequencies --   3029.2993              3038.8706              3039.3755
 Red. masses --      1.0735                 1.0660                 1.0674
 Frc consts  --      5.8039                 5.8002                 5.8095
 IR Inten    --     18.0111                23.2012                19.3289

                     94                     95                     96
                      A                      A                      A
 Frequencies --   3049.1588              3054.8645              3082.0063
 Red. masses --      1.0621                 1.0607                 1.0681
 Frc consts  --      5.8181                 5.8323                 5.9774
 IR Inten    --     34.6817                15.2243                21.3202

                     97                     98                     99
                      A                      A                      A
 Frequencies --   3082.9262              3095.9215              3096.4925
 Red. masses --      1.0936                 1.0910                 1.0984
 Frc consts  --      6.1242                 6.1609                 6.2050
 IR Inten    --     13.5406                39.0867                29.3182

                    100                    101                    102
                      A                      A                      A
 Frequencies --   3097.3149              3099.8896              3138.2018
 Red. masses --      1.0996                 1.1028                 1.0614
 Frc consts  --      6.2152                 6.2434                 6.1585
 IR Inten    --     32.1907                37.4312                21.7784

                    103                    104                    105
                      A                      A                      A
 Frequencies --   3150.9658              3180.4989              3249.1712
 Red. masses --      1.0998                 1.1053                 1.0952
 Frc consts  --      6.4333                 6.5872                 6.8120
 IR Inten    --      8.9987                 2.8692                 5.1833

                    106                    107                    108
                      A                      A                      A
 Frequencies --   3260.6175              3311.5531              3605.3996
 Red. masses --      1.0949                 1.1014                 1.0773
 Frc consts  --      6.8585                 7.1164                 8.2510
 IR Inten    --      9.1374                22.4585                65.4422

 - Thermochemistry -
 -------------------
 Temperature   298.150 Kelvin.  Pressure   1.00000 Atm.
 Atom     1 has atomic number  6 and mass  12.00000

 Molecular mass:   274.14298 amu.
 Principal axes and moments of inertia in atomic units:
                           1         2         3
     Eigenvalues --  2419.65170********************
           X            0.99986  -0.01653  -0.00060
           Y            0.01653   0.99986  -0.00273
           Z            0.00065   0.00272   1.00000
 This molecule is an asymmetric top.
 Rotational symmetry number  1.
 Warning -- assumption of classical behavior for rotation
           may cause significant error
 Rotational temperatures (Kelvin)      0.03580     0.00865     0.00741
 Rotational constants (GHZ):           0.74587     0.18032     0.15438
 Zero-point vibrational energy     841361.3 (Joules/Mol)
                                  201.09018 (Kcal/Mol)
 Warning -- explicit consideration of  24 degrees of freedom as
           vibrations may cause significant error
 Vibrational temperatures:     34.19    66.17    79.87    93.67   133.29
          (Kelvin)            147.27   154.88   189.04   226.66   249.62
                              316.20   397.84   405.25   475.08   515.33
                              543.52   559.74   602.02   627.55   645.42
                              677.74   738.99   776.43   800.03   898.65
                              921.05   952.92   976.39   983.16  1000.33
                             1031.31  1084.45  1095.74  1097.84  1155.54
                             1192.26  1222.72  1235.27  1239.21  1271.13
                             1275.32  1329.97  1339.58  1358.07  1422.97
                             1446.23  1516.03  1527.10  1547.70  1581.80
                             1598.57  1602.64  1609.01  1650.60  1657.28
                             1693.15  1717.82  1740.82  1749.95  1790.26
                             1821.57  1834.42  1861.58  1878.99  1901.61
                             1927.48  1963.21  1992.79  2003.99  2010.72
                             2014.99  2025.47  2029.36  2033.91  2041.61
                             2060.23  2066.42  2137.95  2155.48  2159.01
                             2169.55  2174.08  2188.94  2197.75  2205.34
                             2221.81  2241.17  2419.73  2573.01  2579.47
                             4358.49  4372.26  4372.98  4387.06  4395.27
                             4434.32  4435.64  4454.34  4455.16  4456.35
                             4460.05  4515.17  4533.54  4576.03  4674.83
                             4691.30  4764.59  5187.37

 Zero-point correction=                           0.320458 (Hartree/Particle)
 Thermal correction to Energy=                    0.337571
 Thermal correction to Enthalpy=                  0.338515
 Thermal correction to Gibbs Free Energy=         0.274029
 Sum of electronic and zero-point Energies=           -913.589161
 Sum of electronic and thermal Energies=              -913.572047
 Sum of electronic and thermal Enthalpies=            -913.571103
 Sum of electronic and thermal Free Energies=         -913.635590

                     E (Thermal)             CV                S
                      KCal/Mol        Cal/Mol-Kelvin    Cal/Mol-Kelvin
 Total                  211.829             66.639            135.723
 Electronic               0.000              0.000              0.000
 Translational            0.889              2.981             42.724
 Rotational               0.889              2.981             34.003
 Vibrational            210.052             60.678             58.995
 Vibration     1          0.593              1.985              6.292
 Vibration     2          0.595              1.979              4.983
 Vibration     3          0.596              1.975              4.611
 Vibration     4          0.597              1.971              4.296
 Vibration     5          0.602              1.954              3.604
 Vibration     6          0.604              1.947              3.409
 Vibration     7          0.606              1.943              3.311
 Vibration     8          0.612              1.922              2.926
 Vibration     9          0.621              1.894              2.579
 Vibration    10          0.627              1.875              2.397
 Vibration    11          0.647              1.811              1.961
 Vibration    12          0.678              1.717              1.555
 Vibration    13          0.681              1.708              1.524
 Vibration    14          0.713              1.615              1.259
 Vibration    15          0.733              1.558              1.130
 Vibration    16          0.748              1.518              1.048
 Vibration    17          0.757              1.494              1.004
 Vibration    18          0.781              1.430              0.897
 Vibration    19          0.797              1.391              0.839
 Vibration    20          0.808              1.364              0.800
 Vibration    21          0.828              1.314              0.735
 Vibration    22          0.869              1.220              0.625
 Vibration    23          0.895              1.162              0.566
 Vibration    24          0.912              1.126              0.532

 Optimization completed.
    -- Stationary point found.
 Normal termination of Gaussian 16 at Sun Dec 13 21:06:48 2020.

 ----------------------------------------------------------------------
 # B3LYP/6-311++G(d,p) empiricaldispersion=gd3bj scf=xqc pop=npa geom=c
 heck
 ----------------------------------------------------------------------

 ---------------------------------------
 CID_12074870_JID_10400_Energie_neutraal
 ---------------------------------------
 Structure from the checkpoint file:  "JID_10400.chk"
 Charge =  0 Multiplicity = 1

 SCF Done:  E(RB3LYP) =  -914.160212694     A.U. after   15 cycles
 Normal termination of Gaussian 16 at Sun Dec 13 21:14:22 2020.

 ----------------------------------------------------------------------
 # B3LYP/6-311++G(d,p) empiricaldispersion=gd3bj scf=xqc pop=npa geom=c
 heck
 ----------------------------------------------------------------------

 -------------------------------------
 CID_12074870_JID_10400_Energie_kation
 -------------------------------------
 Structure from the checkpoint file:  "JID_10400.chk"
 Charge =  1 Multiplicity = 2

 SCF Done:  E(UB3LYP) =  -913.866518185     A.U. after   29 cycles
 Normal termination of Gaussian 16 at Sun Dec 13 21:33:55 2020.
 Gaussian 16:  ES64L-G16RevA.03 25-Dec-2016

 ----------------------------------------------------------------------
 # B3LYP/6-311++G(d,p) empiricaldispersion=gd3bj scf=xqc pop=npa geom=c
 heck
 ----------------------------------------------------------------------

 ------------------------------------
 CID_12074870_JID_10400_Energie_anion
 ------------------------------------
 Structure from the checkpoint file:  "JID_10400.chk"
 Charge = -1 Multiplicity = 2

                         Standard orientation:
 ---------------------------------------------------------------------
 Center     Atomic      Atomic             Coordinates (Angstroms)
 Number     Number       Type             X           Y           Z
 ---------------------------------------------------------------------
      1          6           0        4.200797   -1.728524    0.495927
      2          6           0        3.390936   -2.374686   -0.626964
      3          6           0        1.926480   -1.917089   -0.591662
      4          6           0        1.771315   -0.434636   -0.329121
      5          6           0        2.830080    0.334866    0.044567
      6          6           0        4.210883   -0.212546    0.307176
      7          6           0        2.664990    1.772504    0.216383
      8          8           0        3.546421    2.556827    0.538365
      9          7           0        1.364143    2.228700   -0.030897
     10          6           0        0.252247    1.479076   -0.341242
     11          8           0       -0.856714    1.986977   -0.461637
     12          7           0        0.492482    0.114942   -0.499972
     13          6           0       -0.692751   -0.724757   -0.755031
     14          6           0       -1.296771   -1.321693    0.525827
     15          6           0       -2.241784   -0.380390    1.290535
     16          7           0       -3.507782   -0.183698    0.600081
     17          6           0       -3.816808    0.794667   -0.330491
     18          6           0       -5.086292    0.496846   -0.762297
     19          7           0       -5.567809   -0.631842   -0.132116
     20          6           0       -4.596883   -1.012689    0.670782
     21          1           0        3.750587   -1.980101    1.466097
     22          1           0        5.225066   -2.116208    0.507221
     23          1           0        3.832411   -2.095533   -1.592525
     24          1           0        3.422229   -3.467966   -0.567312
     25          1           0        1.454332   -2.169451   -1.547490
     26          1           0        1.375492   -2.479734    0.174309
     27          1           0        4.620177    0.299016    1.184521
     28          1           0        4.876508    0.059152   -0.524768
     29          1           0        1.199791    3.222132    0.084915
     30          1           0       -1.422423   -0.098102   -1.266783
     31          1           0       -0.407751   -1.519381   -1.442635
     32          1           0       -1.857389   -2.225770    0.259995
     33          1           0       -0.489413   -1.633428    1.199454
     34          1           0       -2.462931   -0.808510    2.273468
     35          1           0       -1.782933    0.597453    1.447044
     36          1           0       -3.110919    1.574623   -0.568390
     37          1           0       -5.686077    1.035036   -1.483753
     38          1           0       -4.620280   -1.866066    1.336786
 ---------------------------------------------------------------------

 SCF Done:  E(UB3LYP) =  -914.165081862     A.U. after   33 cycles
 SCF Done:  E(UB3LYP) =  -914.165081862     a.u. after    1 cycles

 The electronic state is 2-A.
 Alpha  occ. eigenvalues --  -18.99996 -18.97249 -14.28091 -14.26660 -14.25048
 Alpha  occ. eigenvalues --  -14.20554 -10.21296 -10.15398 -10.13140 -10.12929
 Alpha  occ. eigenvalues --  -10.11952 -10.10783 -10.10297 -10.09319 -10.08941
 Alpha  occ. eigenvalues --  -10.07893 -10.07146 -10.06726 -10.06522 -10.05833
 Alpha  occ. eigenvalues --   -0.97263  -0.92879  -0.92571  -0.86792  -0.82072
 Alpha  occ. eigenvalues --   -0.80012  -0.73720  -0.69891  -0.66265  -0.65379
 Alpha  occ. eigenvalues --   -0.64829  -0.61787  -0.56048  -0.55408  -0.53944
 Alpha  occ. eigenvalues --   -0.50997  -0.50264  -0.48323  -0.47561  -0.46164
 Alpha  occ. eigenvalues --   -0.44271  -0.41924  -0.39853  -0.38488  -0.37769
 Alpha  occ. eigenvalues --   -0.37019  -0.36183  -0.35551  -0.34172  -0.34066
 Alpha  occ. eigenvalues --   -0.33653  -0.33057  -0.32451  -0.31993  -0.30841
 Alpha  occ. eigenvalues --   -0.30278  -0.29889  -0.29434  -0.28573  -0.28052
 Alpha  occ. eigenvalues --   -0.27242  -0.26906  -0.23530  -0.23203  -0.22455
 Alpha  occ. eigenvalues --   -0.21731  -0.19444  -0.18671  -0.18427  -0.18012
 Alpha  occ. eigenvalues --   -0.15098  -0.14345  -0.12141   0.03620
 Alpha virt. eigenvalues --    0.06281   0.06803   0.07668   0.07985   0.08643
 Alpha virt. eigenvalues --    0.08735   0.09199   0.09698   0.10324   0.10619
 Alpha virt. eigenvalues --    0.11033   0.11242   0.11758   0.12022   0.12327

  Beta  occ. eigenvalues --  -18.99994 -18.97093 -14.28092 -14.26642 -14.24988
  Beta  occ. eigenvalues --  -14.20554 -10.21294 -10.15250 -10.13132 -10.12918
  Beta  occ. eigenvalues --  -10.11952 -10.10408 -10.10295 -10.09319 -10.08907
  Beta  occ. eigenvalues --  -10.07902 -10.07124 -10.06712 -10.06522 -10.05820
  Beta  occ. eigenvalues --   -0.97211  -0.92874  -0.92307  -0.86638  -0.81921
  Beta  occ. eigenvalues --   -0.80002  -0.73556  -0.69845  -0.66161  -0.65297
  Beta  occ. eigenvalues --   -0.64610  -0.61746  -0.55818  -0.55331  -0.53818
  Beta  occ. eigenvalues --   -0.50982  -0.50185  -0.48286  -0.47496  -0.46030
  Beta  occ. eigenvalues --   -0.44227  -0.41762  -0.39713  -0.38424  -0.37662
  Beta  occ. eigenvalues --   -0.36954  -0.36062  -0.35479  -0.34056  -0.33945
  Beta  occ. eigenvalues --   -0.33532  -0.32975  -0.32427  -0.31938  -0.30683
  Beta  occ. eigenvalues --   -0.30141  -0.29729  -0.29140  -0.28450  -0.27961
  Beta  occ. eigenvalues --   -0.26932  -0.26823  -0.23439  -0.23155  -0.22366
  Beta  occ. eigenvalues --   -0.21260  -0.19382  -0.18663  -0.18412  -0.17506
  Beta  occ. eigenvalues --   -0.14951  -0.14338  -0.11377
  Beta virt. eigenvalues --    0.06441   0.07094   0.07818   0.08130   0.08564
  Beta virt. eigenvalues --    0.08827   0.09076   0.09287   0.09874   0.10564
  Beta virt. eigenvalues --    0.10817   0.11093   0.11497   0.11856   0.12058

 Mulliken charges and spin densities:
               1          2
     1  C   -0.063151  -0.208598
     2  C   -0.408348  -0.176254
     3  C    0.117177  -0.149829
     4  C    0.421547  -0.213556
     5  C    0.134733   0.152009
     6  C   -0.210045  -0.561893
     7  C   -0.192865   0.204499
     8  O   -0.388020   0.054822
     9  N   -0.376562   0.020929
    10  C    0.347584  -0.065569
    11  O   -0.373092   0.001172
    12  N   -0.011765   0.042290
    13  C   -0.393902   0.407299
    14  C    1.143419  -1.312831
    15  C   -0.985777   0.276788
    16  N    0.166624  -0.008464
    17  C   -0.119432   0.038577
    18  C   -0.221867  -0.093703
    19  N   -0.172078   0.007523
    20  C    0.095499  -0.215475
    21  H   -0.081398   0.217531
    22  H    0.085957   0.065504
    23  H    0.105436   0.025478
    24  H   -0.370534   0.551543
    25  H    0.120738   0.028398
    26  H   -0.251327   0.417540
    27  H    0.218010  -0.035382
    28  H    0.075437   0.088292
    29  H    0.339949   0.002384
    30  H    0.231566   0.011024
    31  H   -0.023438   0.182096
    32  H   -0.147993   0.328578
    33  H   -0.180723   0.348758
    34  H   -0.186946   0.400294
    35  H    0.237004  -0.019329
    36  H    0.211439   0.016482
    37  H    0.140325  -0.003814
    38  H   -0.033178   0.174891
 Sum of Mulliken charges =  -1.00000   1.00000

 Dipole moment (field-independent basis, Debye):
    X=             -0.9041    Y=              2.2536    Z=             -1.8801  Tot=              3.0710
 Quadrupole moment (field-independent basis, Debye-Ang):
   XX=           -215.5380   YY=           -169.9813   ZZ=           -136.2885
   XY=            -10.9827   XZ=             -5.2501   YZ=              3.6601

 Summary of Natural Population Analysis:

                                       Natural Population
                Natural  -----------------------------------------------
    Atom  No    Charge         Core      Valence    Rydberg      Total
 -----------------------------------------------------------------------
      C    1   -0.18997      0.99963     2.18125    0.00908     3.18997
      C    2   -0.18488      0.99964     2.17603    0.00921     3.18488
      C    3   -0.21142      0.99960     2.20353    0.00828     3.21142
      C    4    0.18833      0.99945     1.80210    0.01012     2.81167
      C    5   -0.09344      0.99942     2.08524    0.00877     3.09344
      C    6   -0.19106      0.99961     2.18315    0.00830     3.19106
      C    7    0.34607      0.99960     1.63175    0.02258     2.65393
      O    8   -0.31373      0.99988     3.30811    0.00575     4.31373
      N    9   -0.30769      0.99964     2.80109    0.00696     3.80769
      C   10    0.41285      0.99968     1.56526    0.02220     2.58715
      O   11   -0.35163      0.99987     3.34664    0.00512     4.35163
      N   12   -0.23877      0.99960     2.73051    0.00866     3.73877
      C   13   -0.09041      0.99960     2.07967    0.01114     3.09041
      C   14   -0.19953      0.99961     2.19096    0.00896     3.19953
      C   15   -0.08468      0.99960     2.07350    0.01158     3.08468
      N   16   -0.20714      0.99965     2.69784    0.00965     3.70714
      C   17   -0.03797      0.99956     2.02819    0.01022     3.03797
      C   18   -0.04376      0.99960     2.03100    0.01316     3.04376
      N   19   -0.25850      0.99973     2.74840    0.01037     3.75850
      C   20    0.09870      0.99964     1.88296    0.01870     2.90130
      H   21    0.09692      0.00000     0.40184    0.00123     0.40308
      H   22    0.09580      0.00000     0.40342    0.00078     0.40420
      H   23    0.09237      0.00000     0.40648    0.00115     0.40763
      H   24    0.10108      0.00000     0.39769    0.00123     0.39892
      H   25    0.10261      0.00000     0.39622    0.00117     0.39739
      H   26    0.11497      0.00000     0.38013    0.00490     0.38503
      H   27    0.10882      0.00000     0.38988    0.00130     0.39118
      H   28    0.09763      0.00000     0.40104    0.00133     0.40237
      H   29    0.20029      0.00000     0.29735    0.00236     0.29971
      H   30    0.11399      0.00000     0.38456    0.00145     0.38601
      H   31    0.10249      0.00000     0.39641    0.00110     0.39751
      H   32    0.10314      0.00000     0.39522    0.00165     0.39686
      H   33    0.10858      0.00000     0.38967    0.00175     0.39142
      H   34    0.10105      0.00000     0.39795    0.00100     0.39895
      H   35    0.10982      0.00000     0.38880    0.00138     0.39018
      H   36    0.12221      0.00000     0.37670    0.00109     0.37779
      H   37    0.09410      0.00000     0.40500    0.00091     0.40590
      H   38    0.09275      0.00000     0.40574    0.00151     0.40725
 =======================================================================
   * Total *    0.00000     19.99262    52.76128    0.24610    73.00000

 Normal termination of Gaussian 16 at Sun Dec 13 21:56:30 2020.
