 Gaussian 16, Revision A.03,

 ----------------------------------------------------------------------
 # opt=(cartesian,calcfc) freq B3LYP/6-31G(d) empiricaldispersion=gd3bj
  scf=xqc
 ----------------------------------------------------------------------

 -------------------------------
 CID_141684699_JID_7316_neutraal
 -------------------------------
 Symbolic Z-matrix:
 Charge =  0 Multiplicity = 1

 SCF Done:  E(RB3LYP) =  -705.590817174     A.U. after   15 cycles
 SCF Done:  E(RB3LYP) =  -705.590931635     A.U. after   11 cycles
 SCF Done:  E(RB3LYP) =  -705.590957917     A.U. after   11 cycles
 SCF Done:  E(RB3LYP) =  -705.590956059     A.U. after   10 cycles
 SCF Done:  E(RB3LYP) =  -705.590974346     A.U. after   10 cycles
 SCF Done:  E(RB3LYP) =  -705.590939782     A.U. after   11 cycles
 SCF Done:  E(RB3LYP) =  -705.590975024     A.U. after   10 cycles
 SCF Done:  E(RB3LYP) =  -705.590981197     A.U. after   10 cycles
 SCF Done:  E(RB3LYP) =  -705.590986628     A.U. after    9 cycles
 SCF Done:  E(RB3LYP) =  -705.590989046     A.U. after   10 cycles
 SCF Done:  E(RB3LYP) =  -705.591038706     A.U. after    7 cycles
 SCF Done:  E(RB3LYP) =  -705.591038716     A.U. after    7 cycles
 SCF Done:  E(RB3LYP) =  -705.591038729     A.U. after    7 cycles
 SCF Done:  E(RB3LYP) =  -705.591038734     A.U. after    7 cycles
 SCF Done:  E(RB3LYP) =  -705.591038736     A.U. after    7 cycles
 Optimization completed.
    -- Stationary point found.
 Normal termination of Gaussian 16 at Mon Jan  4 10:25:27 2021.

 --------------------------------------------------------------------
 #N Geom=AllCheck Guess=TCheck SCRF=Check GenChk RB3LYP/6-31G(d) Freq
 --------------------------------------------------------------------

 Structure from the checkpoint file:  "JID_7316.chk"
 -------------------------------
 CID_141684699_JID_7316_neutraal
 -------------------------------
 Charge =  0 Multiplicity = 1

 SCF Done:  E(RB3LYP) =  -705.591038736     A.U. after    1 cycles

  Exact polarizability: 251.274   6.947 193.308  -4.164   3.770  72.668
 Approx polarizability: 347.383   8.999 334.001  -8.927   9.042 113.527

                      1                      2                      3
                      A                      A                      A
 Frequencies --     28.3832                52.9635                67.8918
 Red. masses --      4.6451                 2.9724                 2.3962
 Frc consts  --      0.0022                 0.0049                 0.0065
 IR Inten    --      3.0549                 1.4420                 2.0190

                      4                      5                      6
                      A                      A                      A
 Frequencies --     75.9982                96.2260               145.1247
 Red. masses --      5.7831                 3.2087                 2.0980
 Frc consts  --      0.0197                 0.0175                 0.0260
 IR Inten    --      3.4105                 0.7042                 0.3759

                      7                      8                      9
                      A                      A                      A
 Frequencies --    151.8938               154.0722               187.2859
 Red. masses --      4.8833                 3.5134                 1.4702
 Frc consts  --      0.0664                 0.0491                 0.0304
 IR Inten    --      1.9801                 1.0339                 0.2177

                     10                     11                     12
                      A                      A                      A
 Frequencies --    247.6900               261.9948               275.1288
 Red. masses --      2.4144                 4.3472                 2.8860
 Frc consts  --      0.0873                 0.1758                 0.1287
 IR Inten    --      0.5016                 0.7860                 5.0438

                     13                     14                     15
                      A                      A                      A
 Frequencies --    292.3443               345.4492               369.8246
 Red. masses --      4.6677                 6.4223                 4.7524
 Frc consts  --      0.2350                 0.4516                 0.3830
 IR Inten    --      1.7567                 0.4924                 1.2032

                     16                     17                     18
                      A                      A                      A
 Frequencies --    413.2163               441.5053               476.2829
 Red. masses --      3.7212                 3.3149                 3.0986
 Frc consts  --      0.3744                 0.3807                 0.4141
 IR Inten    --      1.5172                 2.4904                 0.7562

                     19                     20                     21
                      A                      A                      A
 Frequencies --    485.8525               505.8703               539.8249
 Red. masses --      7.5033                 5.3643                 4.4902
 Frc consts  --      1.0435                 0.8088                 0.7709
 IR Inten    --      0.3386                 1.9363                 1.5990

                     22                     23                     24
                      A                      A                      A
 Frequencies --    558.8431               586.8924               661.5048
 Red. masses --      3.6460                 4.8310                 7.3275
 Frc consts  --      0.6709                 0.9804                 1.8892
 IR Inten    --      2.1549                 2.5847                 7.1255

                     25                     26                     27
                      A                      A                      A
 Frequencies --    668.0989               709.5863               736.0871
 Red. masses --      3.8272                 2.3558                 6.6579
 Frc consts  --      1.0065                 0.6989                 2.1254
 IR Inten    --      0.1344                 8.8047                 5.5227

                     28                     29                     30
                      A                      A                      A
 Frequencies --    763.3527               801.0950               818.3617
 Red. masses --      2.7581                 6.1678                 1.4847
 Frc consts  --      0.9469                 2.3321                 0.5858
 IR Inten    --      3.2882                11.1419                52.4928

                     31                     32                     33
                      A                      A                      A
 Frequencies --    822.7743               859.5393               903.9524
 Red. masses --      1.4257                 1.7319                 2.6644
 Frc consts  --      0.5687                 0.7539                 1.2828
 IR Inten    --      8.4677                16.2582                 7.5122

                     34                     35                     36
                      A                      A                      A
 Frequencies --    912.7597               937.6539               975.4519
 Red. masses --      2.1606                 1.3776                 1.3509
 Frc consts  --      1.0606                 0.7136                 0.7574
 IR Inten    --     12.4022                 0.7776                 0.1162

                     37                     38                     39
                      A                      A                      A
 Frequencies --    996.4431              1003.2844              1012.6896
 Red. masses --      1.3195                 3.6869                 4.3030
 Frc consts  --      0.7719                 2.1866                 2.6000
 IR Inten    --      1.0844                 0.9756                54.6149

                     40                     41                     42
                      A                      A                      A
 Frequencies --   1023.4090              1093.2877              1101.4912
 Red. masses --      6.1853                 1.5174                 1.9321
 Frc consts  --      3.8169                 1.0686                 1.3811
 IR Inten    --      0.6598                24.9346                 1.1276

                     43                     44                     45
                      A                      A                      A
 Frequencies --   1120.9344              1153.2554              1157.2730
 Red. masses --      1.5563                 1.3275                 1.2328
 Frc consts  --      1.1522                 1.0402                 0.9728
 IR Inten    --     11.0881                12.9062                 0.2139

                     46                     47                     48
                      A                      A                      A
 Frequencies --   1161.1772              1199.0981              1209.2914
 Red. masses --      1.6219                 1.1494                 1.6714
 Frc consts  --      1.2885                 0.9737                 1.4401
 IR Inten    --      3.8714                 5.9529                 8.9458

                     49                     50                     51
                      A                      A                      A
 Frequencies --   1222.3972              1286.8525              1310.4788
 Red. masses --      2.2804                 3.3884                 2.8200
 Frc consts  --      2.0076                 3.3060                 2.8534
 IR Inten    --      2.9869                38.2428                38.8373

                     52                     53                     54
                      A                      A                      A
 Frequencies --   1321.2170              1343.1365              1352.9064
 Red. masses --      1.7928                 1.5091                 6.0734
 Frc consts  --      1.8439                 1.6041                 6.5497
 IR Inten    --      1.0209                 9.0389                 5.6513

                     55                     56                     57
                      A                      A                      A
 Frequencies --   1369.0856              1417.4876              1464.6589
 Red. masses --      3.3987                 2.6086                 2.1320
 Frc consts  --      3.7534                 3.0881                 2.6947
 IR Inten    --      0.5453                81.3182                37.8977

                     58                     59                     60
                      A                      A                      A
 Frequencies --   1471.4783              1484.2159              1511.2615
 Red. masses --      1.7899                 1.9560                 1.0412
 Frc consts  --      2.2835                 2.5387                 1.4011
 IR Inten    --     15.9380                 2.8321                 0.9746

                     61                     62                     63
                      A                      A                      A
 Frequencies --   1513.9165              1519.3668              1537.7043
 Red. masses --      1.3734                 1.0615                 2.0444
 Frc consts  --      1.8546                 1.4438                 2.8481
 IR Inten    --     42.9982                13.1860                 5.4624

                     64                     65                     66
                      A                      A                      A
 Frequencies --   1545.2928              1546.4731              1564.5909
 Red. masses --      1.2237                 1.9821                 1.2604
 Frc consts  --      1.7217                 2.7930                 1.8179
 IR Inten    --      6.1095                28.0330               120.7411

                     67                     68                     69
                      A                      A                      A
 Frequencies --   1602.0446              1637.9509              1659.0202
 Red. masses --      5.9440                 5.7679                 5.1901
 Frc consts  --      8.9884                 9.1173                 8.4164
 IR Inten    --     82.5556                68.4264               148.4269

                     70                     71                     72
                      A                      A                      A
 Frequencies --   1661.9514              2211.6276              3014.7125
 Red. masses --      5.7434                13.0058                 1.0439
 Frc consts  --      9.3466                37.4811                 5.5896
 IR Inten    --    245.4967               168.1515                69.0777

                     73                     74                     75
                      A                      A                      A
 Frequencies --   3022.1831              3075.2807              3076.8078
 Red. masses --      1.0477                 1.0960                 1.0977
 Frc consts  --      5.6380                 6.1071                 6.1228
 IR Inten    --     56.0677                 9.3018                55.5279

                     76                     77                     78
                      A                      A                      A
 Frequencies --   3150.6418              3162.7239              3165.8826
 Red. masses --      1.0983                 1.0956                 1.0899
 Frc consts  --      6.4232                 6.4572                 6.4360
 IR Inten    --      2.2113                40.8202                39.5362

                     79                     80                     81
                      A                      A                      A
 Frequencies --   3201.1433              3226.4958              3227.2222
 Red. masses --      1.0886                 1.0912                 1.0935
 Frc consts  --      6.5726                 6.6932                 6.7100
 IR Inten    --     13.0100                 4.7603                 2.5676

                     82                     83                     84
                      A                      A                      A
 Frequencies --   3240.3193              3241.0306              3253.0826
 Red. masses --      1.0913                 1.0923                 1.0883
 Frc consts  --      6.7512                 6.7603                 6.7858
 IR Inten    --     12.2499                 3.3765                 5.8112

 - Thermochemistry -
 -------------------
 Temperature   298.150 Kelvin.  Pressure   1.00000 Atm.
 Atom     1 has atomic number  6 and mass  12.00000

 Molecular mass:   223.11095 amu.
 Principal axes and moments of inertia in atomic units:
                           1         2         3
     Eigenvalues --  2044.438937058.918158971.15049
           X            0.99964  -0.02693  -0.00067
           Y            0.02692   0.99963  -0.00499
           Z            0.00080   0.00497   0.99999
 This molecule is an asymmetric top.
 Rotational symmetry number  1.
 Warning -- assumption of classical behavior for rotation
           may cause significant error
 Rotational temperatures (Kelvin)      0.04237     0.01227     0.00965
 Rotational constants (GHZ):           0.88276     0.25567     0.20117
 Zero-point vibrational energy     635067.8 (Joules/Mol)
                                  151.78486 (Kcal/Mol)
 Warning -- explicit consideration of  23 degrees of freedom as
           vibrations may cause significant error
 Vibrational temperatures:     40.84    76.20    97.68   109.34   138.45
          (Kelvin)            208.80   218.54   221.68   269.46   356.37
                              376.95   395.85   420.62   497.02   532.10
                              594.53   635.23   685.26   699.03   727.83
                              776.69   804.05   844.41   951.76   961.25
                             1020.94  1059.07  1098.29  1152.60  1177.44
                             1183.79  1236.69  1300.59  1313.26  1349.07
                             1403.46  1433.66  1443.50  1457.03  1472.46
                             1573.00  1584.80  1612.77  1659.28  1665.06
                             1670.68  1725.23  1739.90  1758.76  1851.49
                             1885.49  1900.94  1932.47  1946.53  1969.81
                             2039.45  2107.32  2117.13  2135.46  2174.37
                             2178.19  2186.03  2212.41  2223.33  2225.03
                             2251.10  2304.98  2356.65  2386.96  2391.18
                             3182.04  4337.50  4348.25  4424.64  4426.84
                             4533.07  4550.45  4555.00  4605.73  4642.21
                             4643.25  4662.10  4663.12  4680.46

 Zero-point correction=                           0.241885 (Hartree/Particle)
 Thermal correction to Energy=                    0.257096
 Thermal correction to Enthalpy=                  0.258041
 Thermal correction to Gibbs Free Energy=         0.198232
 Sum of electronic and zero-point Energies=           -705.349154
 Sum of electronic and thermal Energies=              -705.333942
 Sum of electronic and thermal Enthalpies=            -705.332998
 Sum of electronic and thermal Free Energies=         -705.392807

                     E (Thermal)             CV                S
                      KCal/Mol        Cal/Mol-Kelvin    Cal/Mol-Kelvin
 Total                  161.330             57.152            125.879
 Electronic               0.000              0.000              0.000
 Translational            0.889              2.981             42.110
 Rotational               0.889              2.981             33.226
 Vibrational            159.553             51.190             50.543
 Vibration     1          0.593              1.984              5.939
 Vibration     2          0.596              1.976              4.704
 Vibration     3          0.598              1.970              4.214
 Vibration     4          0.599              1.965              3.992
 Vibration     5          0.603              1.952              3.529
 Vibration     6          0.617              1.908              2.735
 Vibration     7          0.619              1.901              2.648
 Vibration     8          0.620              1.898              2.621
 Vibration     9          0.632              1.857              2.255
 Vibration    10          0.661              1.767              1.747
 Vibration    11          0.669              1.742              1.648
 Vibration    12          0.677              1.719              1.564
 Vibration    13          0.688              1.688              1.460
 Vibration    14          0.724              1.585              1.187
 Vibration    15          0.742              1.534              1.081
 Vibration    16          0.777              1.442              0.915
 Vibration    17          0.801              1.380              0.822
 Vibration    18          0.833              1.303              0.720
 Vibration    19          0.842              1.281              0.694
 Vibration    20          0.861              1.237              0.644
 Vibration    21          0.895              1.162              0.566
 Vibration    22          0.914              1.120              0.526
 Vibration    23          0.944              1.060              0.473

 Normal termination of Gaussian 16 at Mon Jan  4 10:35:49 2021.

 ----------------------------------------------------------------------
 # B3LYP/6-311++G(d,p) empiricaldispersion=gd3bj scf=xqc pop=npa geom=c
 heck
 ----------------------------------------------------------------------

 ---------------------------------------
 CID_141684699_JID_7316_Energie_neutraal
 ---------------------------------------
 Structure from the checkpoint file:  "JID_7316.chk"
 Charge =  0 Multiplicity = 1

 SCF Done:  E(RB3LYP) =  -705.770377507     A.U. after   15 cycles
 Normal termination of Gaussian 16 at Mon Jan  4 10:40:06 2021.

 ----------------------------------------------------------------------
 # B3LYP/6-311++G(d,p) empiricaldispersion=gd3bj scf=xqc pop=npa geom=c
 heck
 ----------------------------------------------------------------------

 -------------------------------------
 CID_141684699_JID_7316_Energie_kation
 -------------------------------------
 Structure from the checkpoint file:  "JID_7316.chk"
 Charge =  1 Multiplicity = 2

 SCF Done:  E(UB3LYP) =  -705.483525459     A.U. after   28 cycles
 Normal termination of Gaussian 16 at Mon Jan  4 10:50:27 2021.
 Gaussian 16:  ES64L-G16RevA.03 25-Dec-2016

 ----------------------------------------------------------------------
 # B3LYP/6-311++G(d,p) empiricaldispersion=gd3bj scf=xqc pop=npa geom=c
 heck
 ----------------------------------------------------------------------

 ------------------------------------
 CID_141684699_JID_7316_Energie_anion
 ------------------------------------
 Structure from the checkpoint file:  "JID_7316.chk"
 Charge = -1 Multiplicity = 2

                         Standard orientation:
 ---------------------------------------------------------------------
 Center     Atomic      Atomic             Coordinates (Angstroms)
 Number     Number       Type             X           Y           Z
 ---------------------------------------------------------------------
      1          6           0       -2.878187    2.429689   -0.394365
      2          7           0       -3.381189    1.109554   -0.056051
      3          6           0       -4.812853    0.863780   -0.075576
      4          6           0       -2.511179    0.051312    0.045518
      5          6           0       -1.114998    0.224632   -0.067263
      6          6           0       -0.260134   -0.870640    0.065588
      7          7           0       -0.701943   -2.127119    0.267896
      8          6           0       -2.024824   -2.289921    0.355832
      9          6           0       -2.961883   -1.269827    0.261845
     10          6           0        1.215888   -0.709996   -0.033090
     11          6           0        1.838257    0.526945    0.166638
     12          6           0        3.226802    0.641082    0.055362
     13          6           0        4.018801   -0.471034   -0.249734
     14          6           0        3.397707   -1.704100   -0.434692
     15          6           0        2.014991   -1.826750   -0.325077
     16          7           0        3.823716    1.874473    0.259391
     17          6           0        4.328470    2.927965    0.430727
     18          1           0       -3.704844    3.141240   -0.379590
     19          1           0       -2.415535    2.458380   -1.391910
     20          1           0       -2.133468    2.765906    0.337008
     21          1           0       -5.116968    0.242570   -0.930736
     22          1           0       -5.140017    0.363020    0.843627
     23          1           0       -5.337946    1.817663   -0.141234
     24          1           0       -0.702859    1.199802   -0.284663
     25          1           0       -2.366645   -3.311718    0.514531
     26          1           0       -4.015001   -1.505343    0.345193
     27          1           0        1.268439    1.408677    0.434904
     28          1           0        5.094156   -0.356575   -0.329922
     29          1           0        4.000278   -2.576964   -0.667455
     30          1           0        1.525189   -2.783838   -0.458670
 ---------------------------------------------------------------------

 SCF Done:  E(UB3LYP) =  -705.778498064     A.U. after   33 cycles
 SCF Done:  E(UB3LYP) =  -705.778498064     a.u. after    1 cycles

 The electronic state is 2-A.
 Alpha  occ. eigenvalues --  -14.23804 -14.23605 -14.16802 -10.11227 -10.11129
 Alpha  occ. eigenvalues --  -10.10870 -10.10513 -10.08847 -10.08366 -10.07776
 Alpha  occ. eigenvalues --  -10.06035 -10.05454 -10.04856 -10.04851 -10.04711
 Alpha  occ. eigenvalues --  -10.04566 -10.03683  -0.85816  -0.84523  -0.81203
 Alpha  occ. eigenvalues --   -0.73679  -0.67919  -0.66564  -0.64549  -0.63916
 Alpha  occ. eigenvalues --   -0.61023  -0.57872  -0.54012  -0.52023  -0.49006
 Alpha  occ. eigenvalues --   -0.47421  -0.44109  -0.40806  -0.39602  -0.37634
 Alpha  occ. eigenvalues --   -0.37592  -0.35587  -0.34966  -0.33856  -0.32652
 Alpha  occ. eigenvalues --   -0.32093  -0.31642  -0.31356  -0.30295  -0.29820
 Alpha  occ. eigenvalues --   -0.29072  -0.28096  -0.25377  -0.24621  -0.23667
 Alpha  occ. eigenvalues --   -0.23398  -0.21737  -0.20542  -0.19943  -0.16617
 Alpha  occ. eigenvalues --   -0.13594  -0.13215  -0.11524  -0.10708   0.03625
 Alpha virt. eigenvalues --    0.05170   0.07429   0.07627   0.08397   0.08871
 Alpha virt. eigenvalues --    0.09485   0.09879   0.10483   0.10941   0.11388
 Alpha virt. eigenvalues --    0.11515   0.12040   0.12559   0.12799   0.13601

  Beta  occ. eigenvalues --  -14.23799 -14.23624 -14.16702 -10.11203 -10.11111
  Beta  occ. eigenvalues --  -10.10851 -10.10473 -10.08762 -10.08399 -10.07623
  Beta  occ. eigenvalues --  -10.06051 -10.05530 -10.04713 -10.04705 -10.04652
  Beta  occ. eigenvalues --  -10.04240 -10.03465  -0.85776  -0.84450  -0.80981
  Beta  occ. eigenvalues --   -0.73411  -0.67733  -0.66222  -0.64358  -0.63777
  Beta  occ. eigenvalues --   -0.60785  -0.57765  -0.53739  -0.51573  -0.48917
  Beta  occ. eigenvalues --   -0.47303  -0.44016  -0.40676  -0.39523  -0.37553
  Beta  occ. eigenvalues --   -0.37397  -0.35474  -0.34809  -0.33759  -0.32544
  Beta  occ. eigenvalues --   -0.32055  -0.31595  -0.31255  -0.29955  -0.29687
  Beta  occ. eigenvalues --   -0.29010  -0.27555  -0.25259  -0.24518  -0.23529
  Beta  occ. eigenvalues --   -0.22747  -0.21620  -0.20151  -0.19728  -0.15632
  Beta  occ. eigenvalues --   -0.13348  -0.12731  -0.10516  -0.10005
  Beta virt. eigenvalues --    0.05663   0.07556   0.07993   0.08160   0.08483
  Beta virt. eigenvalues --    0.08900   0.09570   0.09913   0.10655   0.10914
  Beta virt. eigenvalues --    0.11404   0.11556   0.11991   0.12640   0.13318

 Mulliken charges and spin densities:
               1          2
     1  C   -0.111920  -0.246046
     2  N   -0.061385   0.098091
     3  C    0.228088  -0.533342
     4  C   -0.234947   0.080496
     5  C   -0.140159   0.044143
     6  C   -0.838749  -0.080911
     7  N    0.056053   0.053858
     8  C   -0.036491  -0.034082
     9  C    0.030637   0.182491
    10  C    1.229896  -0.053339
    11  C   -0.873167  -0.023442
    12  C   -0.434479   0.055779
    13  C    0.154275   0.278582
    14  C   -0.343814  -0.057794
    15  C   -0.307261   0.202913
    16  N    0.223469  -0.015144
    17  C   -0.354812   0.076372
    18  H   -0.108418   0.241184
    19  H    0.048717   0.114259
    20  H    0.157042  -0.001334
    21  H    0.044586   0.107169
    22  H   -0.049569   0.192276
    23  H   -0.233879   0.357865
    24  H    0.104421  -0.051268
    25  H    0.133172   0.015021
    26  H    0.108561   0.014441
    27  H    0.165426   0.008609
    28  H    0.144702  -0.021736
    29  H    0.132760   0.003500
    30  H    0.167244  -0.008608
 Sum of Mulliken charges =  -1.00000   1.00000

 Dipole moment (field-independent basis, Debye):
    X=             -4.2908    Y=             -1.6513    Z=             -0.7610  Tot=              4.6602
 Quadrupole moment (field-independent basis, Debye-Ang):
   XX=           -171.9105   YY=           -136.1059   ZZ=           -115.7095
   XY=            -14.0458   XZ=             -3.1225   YZ=             -0.4890

 Summary of Natural Population Analysis:

                                       Natural Population
                Natural  -----------------------------------------------
    Atom  No    Charge         Core      Valence    Rydberg      Total
 -----------------------------------------------------------------------
      C    1   -0.17376      0.99965     2.16639    0.00772     3.17376
      N    2   -0.24909      0.99964     2.73987    0.00958     3.74909
      C    3   -0.17340      0.99965     2.16588    0.00788     3.17340
      C    4    0.11003      0.99950     1.87893    0.01154     2.88997
      C    5   -0.13586      0.99949     2.13010    0.00626     3.13586
      C    6    0.13081      0.99951     1.85615    0.01353     2.86919
      N    7   -0.24429      0.99969     2.73326    0.01134     3.74429
      C    8    0.02639      0.99960     1.96032    0.01369     2.97361
      C    9   -0.13889      0.99953     2.13151    0.00785     3.13889
      C   10   -0.00926      0.99949     2.00070    0.00907     3.00926
      C   11   -0.08920      0.99950     2.08324    0.00646     3.08920
      C   12    0.04222      0.99942     1.94704    0.01132     2.95778
      C   13   -0.03880      0.99954     2.03093    0.00833     3.03880
      C   14   -0.11909      0.99958     2.11067    0.00884     3.11909
      C   15   -0.04049      0.99954     2.03267    0.00829     3.04049
      N   16   -0.24899      0.99959     2.73731    0.01209     3.74899
      C   17    0.10907      0.99976     1.87829    0.01288     2.89093
      H   18    0.09633      0.00000     0.40295    0.00072     0.40367
      H   19    0.09222      0.00000     0.40651    0.00127     0.40778
      H   20    0.09542      0.00000     0.40346    0.00111     0.40458
      H   21    0.09053      0.00000     0.40819    0.00128     0.40947
      H   22    0.09447      0.00000     0.40420    0.00133     0.40553
      H   23    0.09720      0.00000     0.40195    0.00086     0.40280
      H   24    0.10086      0.00000     0.39784    0.00130     0.39914
      H   25    0.08167      0.00000     0.41713    0.00120     0.41833
      H   26    0.09829      0.00000     0.40062    0.00109     0.40171
      H   27    0.10028      0.00000     0.39839    0.00133     0.39972
      H   28    0.09492      0.00000     0.40412    0.00095     0.40508
      H   29    0.09347      0.00000     0.40553    0.00100     0.40653
      H   30    0.10693      0.00000     0.39205    0.00101     0.39307
 =======================================================================
   * Total *    0.00000     16.99269    41.82619    0.18112    59.00000

 Normal termination of Gaussian 16 at Mon Jan  4 11:02:55 2021.
