 Gaussian 16, Revision A.03,

 -----------------------------------------------------------
 # opt freq B3LYP/6-31G(d) empiricaldispersion=gd3bj scf=xqc
 -----------------------------------------------------------

 ------------------------------
 CID_90701438_JID_2124_neutraal
 ------------------------------
 Symbolic Z-matrix:
 Charge =  0 Multiplicity = 1

 SCF Done:  E(RB3LYP) =  -544.795606196     A.U. after   13 cycles
 SCF Done:  E(RB3LYP) =  -544.797833519     A.U. after   10 cycles
 SCF Done:  E(RB3LYP) =  -544.798144288     A.U. after   10 cycles
 SCF Done:  E(RB3LYP) =  -544.798200903     A.U. after   10 cycles
 SCF Done:  E(RB3LYP) =  -544.798233145     A.U. after    9 cycles
 SCF Done:  E(RB3LYP) =  -544.798249518     A.U. after    9 cycles
 SCF Done:  E(RB3LYP) =  -544.798254680     A.U. after    8 cycles
 SCF Done:  E(RB3LYP) =  -544.798256697     A.U. after    9 cycles
 SCF Done:  E(RB3LYP) =  -544.798257839     A.U. after    9 cycles
 SCF Done:  E(RB3LYP) =  -544.798258582     A.U. after    8 cycles
 SCF Done:  E(RB3LYP) =  -544.803394487     A.U. after   10 cycles
 SCF Done:  E(RB3LYP) =  -544.803409003     A.U. after    9 cycles
 SCF Done:  E(RB3LYP) =  -544.803418945     A.U. after    9 cycles
 SCF Done:  E(RB3LYP) =  -544.803424453     A.U. after    8 cycles
 SCF Done:  E(RB3LYP) =  -544.803425847     A.U. after    8 cycles
 SCF Done:  E(RB3LYP) =  -544.803426206     A.U. after    7 cycles
 Optimization completed.
    -- Stationary point found.
 Normal termination of Gaussian 16 at Wed Dec  9 17:10:08 2020.

 --------------------------------------------------------------------
 #N Geom=AllCheck Guess=TCheck SCRF=Check GenChk RB3LYP/6-31G(d) Freq
 --------------------------------------------------------------------

 Structure from the checkpoint file:  "JID_2124.chk"
 ------------------------------
 CID_90701438_JID_2124_neutraal
 ------------------------------
 Charge =  0 Multiplicity = 1

 SCF Done:  E(RB3LYP) =  -544.803426206     A.U. after    1 cycles

  Exact polarizability: 131.371  -2.084 106.987  -0.380   0.018 105.710
 Approx polarizability: 153.980   2.090 147.602  -1.031  -1.264 154.488

                      1                      2                      3
                      A                      A                      A
 Frequencies --     26.7519                28.7363                48.6885
 Red. masses --      2.8576                 3.1071                 3.2507
 Frc consts  --      0.0012                 0.0015                 0.0045
 IR Inten    --      0.3676                 0.0696                 0.2613

                      4                      5                      6
                      A                      A                      A
 Frequencies --     73.8362                89.7104               119.4062
 Red. masses --      3.3466                 3.1616                 2.5232
 Frc consts  --      0.0107                 0.0150                 0.0212
 IR Inten    --      0.4939                 0.6944                 2.0799

                      7                      8                      9
                      A                      A                      A
 Frequencies --    162.7352               203.9238               220.5213
 Red. masses --      3.8727                 1.7315                 1.1207
 Frc consts  --      0.0604                 0.0424                 0.0321
 IR Inten    --      4.5371                 1.3303                 0.5620

                     10                     11                     12
                      A                      A                      A
 Frequencies --    231.9295               248.0083               268.8200
 Red. masses --      1.1866                 1.1661                 1.3743
 Frc consts  --      0.0376                 0.0423                 0.0585
 IR Inten    --      0.8658                 0.9719                 0.1324

                     13                     14                     15
                      A                      A                      A
 Frequencies --    281.5364               294.4433               315.7034
 Red. masses --      1.9253                 1.4616                 1.9592
 Frc consts  --      0.0899                 0.0747                 0.1151
 IR Inten    --      8.1044                27.1624                41.7025

                     16                     17                     18
                      A                      A                      A
 Frequencies --    326.7522               368.6664               375.3653
 Red. masses --      2.0670                 2.6936                 2.1137
 Frc consts  --      0.1300                 0.2157                 0.1755
 IR Inten    --     30.6590                15.9734                 2.7247

                     19                     20                     21
                      A                      A                      A
 Frequencies --    395.5689               423.9698               434.7249
 Red. masses --      2.3195                 2.0403                 2.7842
 Frc consts  --      0.2138                 0.2161                 0.3100
 IR Inten    --      0.7305                 0.5870                 0.6593

                     22                     23                     24
                      A                      A                      A
 Frequencies --    505.6358               550.7936               584.9049
 Red. masses --      3.0023                 2.5293                 2.6618
 Frc consts  --      0.4523                 0.4521                 0.5365
 IR Inten    --     17.9915                 3.4279                 0.6297

                     25                     26                     27
                      A                      A                      A
 Frequencies --    778.6393               819.0378               862.6255
 Red. masses --      2.2918                 2.1753                 1.6730
 Frc consts  --      0.8186                 0.8597                 0.7335
 IR Inten    --      0.4681                 0.4842                 5.2160

                     28                     29                     30
                      A                      A                      A
 Frequencies --    907.2651               930.1072               943.2765
 Red. masses --      2.4658                 1.8891                 1.1959
 Frc consts  --      1.1959                 0.9629                 0.6270
 IR Inten    --      2.9825                 1.2968                 3.1803

                     31                     32                     33
                      A                      A                      A
 Frequencies --    947.5685               955.9131               978.1336
 Red. masses --      1.3147                 1.7722                 1.4297
 Frc consts  --      0.6955                 0.9541                 0.8059
 IR Inten    --      2.4965                12.4959                 0.4129

                     34                     35                     36
                      A                      A                      A
 Frequencies --    998.8060              1000.0213              1038.1056
 Red. masses --      1.4757                 1.4870                 1.5506
 Frc consts  --      0.8674                 0.8762                 0.9846
 IR Inten    --      8.6905                 2.2111                 0.6495

                     37                     38                     39
                      A                      A                      A
 Frequencies --   1063.6558              1087.2464              1096.8926
 Red. masses --      3.1426                 2.6551                 1.9386
 Frc consts  --      2.0948                 1.8492                 1.3742
 IR Inten    --     46.1210                 6.5126               136.9265

                     40                     41                     42
                      A                      A                      A
 Frequencies --   1154.1035              1160.2464              1173.4060
 Red. masses --      2.3793                 3.5350                 1.9993
 Frc consts  --      1.8672                 2.8037                 1.6219
 IR Inten    --      7.7726               153.6163                 0.6746

                     43                     44                     45
                      A                      A                      A
 Frequencies --   1188.1011              1194.2118              1198.7238
 Red. masses --      2.4787                 1.9949                 2.1219
 Frc consts  --      2.0615                 1.6762                 1.7964
 IR Inten    --     49.7765                17.0193                 3.1327

                     46                     47                     48
                      A                      A                      A
 Frequencies --   1209.1838              1257.5577              1271.8956
 Red. masses --      1.7602                 1.3289                 1.1998
 Frc consts  --      1.5163                 1.2382                 1.1436
 IR Inten    --     10.3540                 2.8414                 7.5471

                     49                     50                     51
                      A                      A                      A
 Frequencies --   1299.6888              1304.5064              1348.4542
 Red. masses --      1.3455                 1.2441                 1.3568
 Frc consts  --      1.3391                 1.2474                 1.4536
 IR Inten    --      2.4569                 6.4815                16.3489

                     52                     53                     54
                      A                      A                      A
 Frequencies --   1351.7150              1372.2514              1392.5950
 Red. masses --      1.2228                 1.2939                 1.3255
 Frc consts  --      1.3164                 1.4355                 1.5145
 IR Inten    --      1.5622                 7.1333                 5.2162

                     55                     56                     57
                      A                      A                      A
 Frequencies --   1404.1782              1412.2991              1418.3983
 Red. masses --      1.4329                 1.4734                 1.3570
 Frc consts  --      1.6646                 1.7315                 1.6085
 IR Inten    --      2.0595                12.6447                30.0184

                     58                     59                     60
                      A                      A                      A
 Frequencies --   1428.1423              1430.9008              1432.6316
 Red. masses --      1.2354                 1.3136                 1.2358
 Frc consts  --      1.4846                 1.5846                 1.4945
 IR Inten    --     32.8903                 8.4032                11.1381

                     61                     62                     63
                      A                      A                      A
 Frequencies --   1442.1774              1449.1036              1469.8546
 Red. masses --      1.2498                 1.2421                 1.4328
 Frc consts  --      1.5316                 1.5367                 1.8238
 IR Inten    --     27.9945                 4.7752                 4.4498

                     64                     65                     66
                      A                      A                      A
 Frequencies --   1504.1298              1519.2330              1521.9807
 Red. masses --      1.0910                 1.0485                 1.0555
 Frc consts  --      1.4543                 1.4258                 1.4405
 IR Inten    --      1.9160                 1.8483                 2.6311

                     67                     68                     69
                      A                      A                      A
 Frequencies --   1525.5903              1526.6928              1529.9048
 Red. masses --      1.0543                 1.0526                 1.0453
 Frc consts  --      1.4457                 1.4455                 1.4415
 IR Inten    --      2.0501                 1.1849                15.5085

                     70                     71                     72
                      A                      A                      A
 Frequencies --   1532.3773              1534.8548              1538.0120
 Red. masses --      1.0618                 1.0550                 1.0642
 Frc consts  --      1.4691                 1.4643                 1.4832
 IR Inten    --      4.7116                 1.8639                 4.2693

                     73                     74                     75
                      A                      A                      A
 Frequencies --   1547.6522              1566.2815              2957.9178
 Red. masses --      1.0659                 1.0846                 1.0643
 Frc consts  --      1.5043                 1.5678                 5.4863
 IR Inten    --     12.2378                 2.6803                31.0722

                     76                     77                     78
                      A                      A                      A
 Frequencies --   2979.6456              2993.8274              3001.7468
 Red. masses --      1.0578                 1.0797                 1.1042
 Frc consts  --      5.5334                 5.7019                 5.8623
 IR Inten    --     57.3733                25.4807                48.6040

                     79                     80                     81
                      A                      A                      A
 Frequencies --   3015.6998              3029.9496              3034.4859
 Red. masses --      1.0937                 1.0607                 1.0383
 Frc consts  --      5.8603                 5.7373                 5.6331
 IR Inten    --     49.9957                27.9250                39.0531

                     82                     83                     84
                      A                      A                      A
 Frequencies --   3039.4409              3039.9035              3049.7409
 Red. masses --      1.0442                 1.0466                 1.0508
 Frc consts  --      5.6838                 5.6983                 5.7583
 IR Inten    --     22.3737                23.3154                 5.2443

                     85                     86                     87
                      A                      A                      A
 Frequencies --   3054.0778              3058.0398              3075.7063
 Red. masses --      1.0788                 1.0763                 1.1008
 Frc consts  --      5.9288                 5.9300                 6.1352
 IR Inten    --     12.5341                65.6849                33.1859

                     88                     89                     90
                      A                      A                      A
 Frequencies --   3096.9887              3105.1826              3109.7548
 Red. masses --      1.1003                 1.1000                 1.1019
 Frc consts  --      6.2181                 6.2489                 6.2784
 IR Inten    --      9.3362                69.3958                48.3924

                     91                     92                     93
                      A                      A                      A
 Frequencies --   3111.9523              3118.6146              3128.4247
 Red. masses --      1.0953                 1.1008                 1.0890
 Frc consts  --      6.2495                 6.3077                 6.2795
 IR Inten    --     38.2619                44.2166                26.7778

                     94                     95                     96
                      A                      A                      A
 Frequencies --   3135.6989              3161.5873              3716.4435
 Red. masses --      1.1023                 1.1040                 1.0657
 Frc consts  --      6.3861                 6.5018                 8.6726
 IR Inten    --     27.7020                17.7005                 6.9713

 - Thermochemistry -
 -------------------
 Temperature   298.150 Kelvin.  Pressure   1.00000 Atm.
 Atom     1 has atomic number  6 and mass  12.00000

 Molecular mass:   174.16198 amu.
 Principal axes and moments of inertia in atomic units:
                           1         2         3
     Eigenvalues --   988.341535623.229215812.01272
           X            0.99997  -0.00502   0.00564
           Y            0.00493   0.99987   0.01516
           Z           -0.00571  -0.01513   0.99987
 This molecule is an asymmetric top.
 Rotational symmetry number  1.
 Warning -- assumption of classical behavior for rotation
           may cause significant error
 Rotational temperatures (Kelvin)      0.08764     0.01540     0.01490
 Rotational constants (GHZ):           1.82603     0.32094     0.31052
 Zero-point vibrational energy     823116.3 (Joules/Mol)
                                  196.72951 (Kcal/Mol)
 Warning -- explicit consideration of  24 degrees of freedom as
           vibrations may cause significant error
 Vibrational temperatures:     38.49    41.35    70.05   106.23   129.07
          (Kelvin)            171.80   234.14   293.40   317.28   333.69
                              356.83   386.77   405.07   423.64   454.23
                              470.12   530.43   540.07   569.14   610.00
                              625.47   727.50   792.47   841.55  1120.29
                             1178.41  1241.13  1305.35  1338.22  1357.16
                             1363.34  1375.35  1407.32  1437.06  1438.81
                             1493.60  1530.36  1564.31  1578.18  1660.50
                             1669.34  1688.27  1709.41  1718.20  1724.70
                             1739.75  1809.35  1829.97  1869.96  1876.89
                             1940.12  1944.82  1974.36  2003.63  2020.30
                             2031.98  2040.76  2054.78  2058.75  2061.24
                             2074.97  2084.94  2114.79  2164.11  2185.84
                             2189.79  2194.98  2196.57  2201.19  2204.75
                             2208.31  2212.86  2226.73  2253.53  4255.78
                             4287.05  4307.45  4318.84  4338.92  4359.42
                             4365.95  4373.08  4373.74  4387.90  4394.14
                             4399.84  4425.26  4455.88  4467.67  4474.24
                             4477.41  4486.99  4501.11  4511.57  4548.82
                             5347.13

 Zero-point correction=                           0.313508 (Hartree/Particle)
 Thermal correction to Energy=                    0.329135
 Thermal correction to Enthalpy=                  0.330080
 Thermal correction to Gibbs Free Energy=         0.269606
 Sum of electronic and zero-point Energies=           -544.489918
 Sum of electronic and thermal Energies=              -544.474291
 Sum of electronic and thermal Enthalpies=            -544.473347
 Sum of electronic and thermal Free Energies=         -544.533820

                     E (Thermal)             CV                S
                      KCal/Mol        Cal/Mol-Kelvin    Cal/Mol-Kelvin
 Total                  206.536             56.752            127.278
 Electronic               0.000              0.000              0.000
 Translational            0.889              2.981             41.372
 Rotational               0.889              2.981             31.846
 Vibrational            204.758             50.790             54.060
 Vibration     1          0.593              1.984              6.057
 Vibration     2          0.593              1.984              5.915
 Vibration     3          0.595              1.978              4.870
 Vibration     4          0.599              1.966              4.048
 Vibration     5          0.602              1.956              3.666
 Vibration     6          0.609              1.933              3.110
 Vibration     7          0.623              1.888              2.518
 Vibration     8          0.640              1.834              2.097
 Vibration     9          0.647              1.810              1.955
 Vibration    10          0.653              1.792              1.864
 Vibration    11          0.662              1.766              1.745
 Vibration    12          0.673              1.730              1.604
 Vibration    13          0.681              1.708              1.524
 Vibration    14          0.689              1.684              1.448
 Vibration    15          0.703              1.644              1.332
 Vibration    16          0.710              1.622              1.276
 Vibration    17          0.741              1.537              1.085
 Vibration    18          0.746              1.523              1.058
 Vibration    19          0.762              1.480              0.979
 Vibration    20          0.786              1.418              0.879
 Vibration    21          0.795              1.395              0.843
 Vibration    22          0.861              1.238              0.644
 Vibration    23          0.906              1.138              0.543
 Vibration    24          0.942              1.064              0.476

 Optimization completed.
    -- Stationary point found.
 Normal termination of Gaussian 16 at Wed Dec  9 17:18:06 2020.

 ----------------------------------------------------------------------
 # B3LYP/6-311++G(d,p) empiricaldispersion=gd3bj scf=xqc pop=npa geom=c
 heck
 ----------------------------------------------------------------------

 --------------------------------------
 CID_90701438_JID_2124_Energie_neutraal
 --------------------------------------
 Structure from the checkpoint file:  "JID_2124.chk"
 Charge =  0 Multiplicity = 1

 SCF Done:  E(RB3LYP) =  -544.972060871     A.U. after   13 cycles
 Normal termination of Gaussian 16 at Wed Dec  9 17:21:34 2020.

 ----------------------------------------------------------------------
 # B3LYP/6-311++G(d,p) empiricaldispersion=gd3bj scf=xqc pop=npa geom=c
 heck
 ----------------------------------------------------------------------

 ------------------------------------
 CID_90701438_JID_2124_Energie_kation
 ------------------------------------
 Structure from the checkpoint file:  "JID_2124.chk"
 Charge =  1 Multiplicity = 2

 SCF Done:  E(UB3LYP) =  -544.635129440     A.U. after   22 cycles
 Normal termination of Gaussian 16 at Wed Dec  9 17:29:13 2020.
 Gaussian 16:  ES64L-G16RevA.03 25-Dec-2016

 ----------------------------------------------------------------------
 # B3LYP/6-311++G(d,p) empiricaldispersion=gd3bj scf=xqc pop=npa geom=c
 heck
 ----------------------------------------------------------------------

 -----------------------------------
 CID_90701438_JID_2124_Energie_anion
 -----------------------------------
 Structure from the checkpoint file:  "JID_2124.chk"
 Charge = -1 Multiplicity = 2

                         Standard orientation:
 ---------------------------------------------------------------------
 Center     Atomic      Atomic             Coordinates (Angstroms)
 Number     Number       Type             X           Y           Z
 ---------------------------------------------------------------------
      1          6           0       -3.167814   -1.367358   -0.994344
      2          6           0       -3.140379    0.090421   -0.519504
      3          6           0       -4.487533    0.774212   -0.780130
      4          6           0       -2.764173    0.214534    0.967493
      5          6           0       -1.416515   -0.391840    1.333844
      6          8           0       -0.418521    0.197235    0.519898
      7          6           0        0.873703   -0.325822    0.756582
      8          6           0        1.866162    0.377148   -0.170392
      9          6           0        1.798425    1.897160    0.013023
     10          6           0        3.304886   -0.141755    0.030505
     11          6           0        3.454591   -1.655245   -0.135588
     12          8           0        4.213069    0.539121   -0.840609
     13          1           0       -3.872765   -1.963118   -0.399142
     14          1           0       -2.181089   -1.836137   -0.919986
     15          1           0       -3.484104   -1.428946   -2.042026
     16          1           0       -2.367905    0.617153   -1.093565
     17          1           0       -5.294574    0.272669   -0.229811
     18          1           0       -4.470603    1.823678   -0.463085
     19          1           0       -4.746073    0.748387   -1.845077
     20          1           0       -2.754927    1.276399    1.245253
     21          1           0       -3.535097   -0.268340    1.585600
     22          1           0       -1.193368   -0.211004    2.398973
     23          1           0       -1.424004   -1.484808    1.188156
     24          1           0        1.164027   -0.163272    1.810879
     25          1           0        0.867560   -1.413232    0.583193
     26          1           0        1.569280    0.131074   -1.203283
     27          1           0        2.050287    2.167879    1.046854
     28          1           0        2.513276    2.395559   -0.645751
     29          1           0        0.791370    2.265010   -0.195131
     30          1           0        3.639678    0.142348    1.036336
     31          1           0        3.052421   -1.983153   -1.103923
     32          1           0        4.514848   -1.922087   -0.096548
     33          1           0        2.931965   -2.212469    0.648723
     34          1           0        3.945283    0.326831   -1.749876
 ---------------------------------------------------------------------

 SCF Done:  E(UB3LYP) =  -544.956914777     A.U. after   26 cycles

 The electronic state is 2-A.
 Alpha  occ. eigenvalues --  -19.02552 -19.02380 -10.12575 -10.11666 -10.11488
 Alpha  occ. eigenvalues --  -10.07708 -10.07229 -10.06722 -10.06200 -10.06155
 Alpha  occ. eigenvalues --  -10.05576 -10.05472  -0.94136  -0.92672  -0.71913
 Alpha  occ. eigenvalues --   -0.70274  -0.64414  -0.62809  -0.58531  -0.57469
 Alpha  occ. eigenvalues --   -0.53599  -0.51926  -0.48353  -0.45817  -0.40842
 Alpha  occ. eigenvalues --   -0.39173  -0.37814  -0.37398  -0.36191  -0.34880
 Alpha  occ. eigenvalues --   -0.34270  -0.33389  -0.31406  -0.31157  -0.29325
 Alpha  occ. eigenvalues --   -0.28809  -0.28018  -0.27768  -0.27565  -0.26362
 Alpha  occ. eigenvalues --   -0.25357  -0.24606  -0.23211  -0.22842  -0.22540
 Alpha  occ. eigenvalues --   -0.21929  -0.21188  -0.18045  -0.16341   0.04475
 Alpha virt. eigenvalues --    0.06283   0.06932   0.07591   0.08160   0.08629
 Alpha virt. eigenvalues --    0.09171   0.09880   0.10076   0.10665   0.11111
 Alpha virt. eigenvalues --    0.11213   0.11804   0.12223   0.12805   0.13295

  Beta  occ. eigenvalues --  -19.02544 -19.02352 -10.12568 -10.11649 -10.11468
  Beta  occ. eigenvalues --  -10.07695 -10.07225 -10.06707 -10.06160 -10.06133
  Beta  occ. eigenvalues --  -10.05569 -10.05440  -0.94122  -0.92611  -0.71887
  Beta  occ. eigenvalues --   -0.70246  -0.64373  -0.62771  -0.58476  -0.57432
  Beta  occ. eigenvalues --   -0.53537  -0.51861  -0.48301  -0.45763  -0.40794
  Beta  occ. eigenvalues --   -0.39141  -0.37775  -0.37353  -0.36144  -0.34843
  Beta  occ. eigenvalues --   -0.34238  -0.33354  -0.31369  -0.31126  -0.29299
  Beta  occ. eigenvalues --   -0.28774  -0.27989  -0.27735  -0.27530  -0.26323
  Beta  occ. eigenvalues --   -0.25320  -0.24576  -0.23168  -0.22800  -0.22512
  Beta  occ. eigenvalues --   -0.21889  -0.21141  -0.18013  -0.16324
  Beta virt. eigenvalues --    0.06530   0.07163   0.07578   0.08013   0.08634
  Beta virt. eigenvalues --    0.08990   0.09521   0.10283   0.10407   0.11080
  Beta virt. eigenvalues --    0.11291   0.11516   0.12219   0.12397   0.13143

 Mulliken charges and spin densities:
               1          2
     1  C    1.182468  -1.776625
     2  C   -0.993514   1.437813
     3  C   -0.001164  -0.619624
     4  C    0.220020  -0.741172
     5  C    0.549812  -0.771873
     6  O   -0.033762   0.028657
     7  C    0.073120  -0.502262
     8  C   -0.587132   0.652603
     9  C   -0.247839  -0.223028
    10  C   -0.393962   0.237242
    11  C    0.884676  -1.470208
    12  O   -0.206581  -0.001702
    13  H   -0.157672   0.294541
    14  H   -0.222961   0.365687
    15  H   -0.140845   0.272442
    16  H    0.186729  -0.028952
    17  H   -0.128844   0.260701
    18  H   -0.131348   0.256255
    19  H   -0.067659   0.197946
    20  H    0.086054   0.071803
    21  H   -0.058909   0.201417
    22  H   -0.254912   0.386330
    23  H   -0.307960   0.455331
    24  H    0.021496   0.121588
    25  H    0.547891  -0.412737
    26  H   -0.087577   0.263998
    27  H    0.038253   0.087565
    28  H    0.021685   0.124047
    29  H    0.068470   0.074522
    30  H    0.160629   0.017229
    31  H   -0.313784   0.487048
    32  H   -0.267534   0.417766
    33  H   -0.431754   0.579949
    34  H   -0.005593   0.255703
 Sum of Mulliken charges =  -1.00000   1.00000

 Dipole moment (field-independent basis, Debye):
    X=             -0.0650    Y=              3.3474    Z=              1.7135  Tot=              3.7610
 Quadrupole moment (field-independent basis, Debye-Ang):
   XX=           -169.2917   YY=           -120.5737   ZZ=           -113.0783
   XY=              1.3857   XZ=              4.2314   YZ=             -1.0785

 Summary of Natural Population Analysis:

                                       Natural Population
                Natural  -----------------------------------------------
    Atom  No    Charge         Core      Valence    Rydberg      Total
 -----------------------------------------------------------------------
      C    1   -0.28673      0.99965     2.28097    0.00611     3.28673
      C    2   -0.11864      0.99961     2.10885    0.01017     3.11864
      C    3   -0.28070      0.99965     2.27639    0.00465     3.28070
      C    4   -0.19447      0.99960     2.18509    0.00977     3.19447
      C    5   -0.00566      0.99958     1.99394    0.01215     3.00566
      O    6   -0.30402      0.99987     3.29503    0.00911     4.30402
      C    7   -0.00285      0.99955     1.99162    0.01168     3.00285
      C    8   -0.12972      0.99958     2.11795    0.01219     3.12972
      C    9   -0.28664      0.99965     2.28140    0.00559     3.28664
      C   10    0.06649      0.99955     1.92075    0.01321     2.93351
      C   11   -0.29968      0.99965     2.29398    0.00606     3.29968
      O   12   -0.37266      0.99990     3.36586    0.00690     4.37266
      H   13    0.09482      0.00000     0.40403    0.00114     0.40518
      H   14    0.10301      0.00000     0.39563    0.00136     0.39699
      H   15    0.09858      0.00000     0.40043    0.00099     0.40142
      H   16    0.09895      0.00000     0.39878    0.00227     0.40105
      H   17    0.09495      0.00000     0.40400    0.00104     0.40505
      H   18    0.09705      0.00000     0.40193    0.00102     0.40295
      H   19    0.09767      0.00000     0.40142    0.00091     0.40233
      H   20    0.09778      0.00000     0.40100    0.00122     0.40222
      H   21    0.09758      0.00000     0.40136    0.00106     0.40242
      H   22    0.07939      0.00000     0.41929    0.00132     0.42061
      H   23    0.08048      0.00000     0.41772    0.00180     0.41952
      H   24    0.07486      0.00000     0.42359    0.00155     0.42514
      H   25    0.08580      0.00000     0.41233    0.00187     0.41420
      H   26    0.09582      0.00000     0.40199    0.00220     0.40418
      H   27    0.09334      0.00000     0.40579    0.00087     0.40666
      H   28    0.10440      0.00000     0.39459    0.00101     0.39560
      H   29    0.10636      0.00000     0.39258    0.00106     0.39364
      H   30    0.08160      0.00000     0.41659    0.00181     0.41840
      H   31    0.10019      0.00000     0.39789    0.00192     0.39981
      H   32    0.10358      0.00000     0.39537    0.00105     0.39642
      H   33    0.10272      0.00000     0.39593    0.00135     0.39728
      H   34    0.22636      0.00000     0.27016    0.00348     0.27364
 =======================================================================
   * Total *    0.00000     11.99585    36.86425    0.13990    49.00000

 Normal termination of Gaussian 16 at Wed Dec  9 17:37:30 2020.
