 Gaussian 16, Revision A.03,

 -----------------------------------------------------------
 # opt freq B3LYP/6-31G(d) empiricaldispersion=gd3bj scf=xqc
 -----------------------------------------------------------

 -------------------------------
 CID_116228933_JID_7019_neutraal
 -------------------------------
 Symbolic Z-matrix:
 Charge =  0 Multiplicity = 1

 SCF Done:  E(RB3LYP) =  -1089.15603520     A.U. after   15 cycles
 SCF Done:  E(RB3LYP) =  -1089.16035954     A.U. after   13 cycles
 SCF Done:  E(RB3LYP) =  -1089.16068067     A.U. after   12 cycles
 SCF Done:  E(RB3LYP) =  -1089.16161861     A.U. after   12 cycles
 SCF Done:  E(RB3LYP) =  -1089.16189176     A.U. after   12 cycles
 SCF Done:  E(RB3LYP) =  -1089.16197616     A.U. after   11 cycles
 SCF Done:  E(RB3LYP) =  -1089.16200091     A.U. after   10 cycles
 SCF Done:  E(RB3LYP) =  -1089.16200962     A.U. after    9 cycles
 SCF Done:  E(RB3LYP) =  -1089.16201281     A.U. after    8 cycles
 SCF Done:  E(RB3LYP) =  -1089.16201353     A.U. after    8 cycles
 SCF Done:  E(RB3LYP) =  -1089.16201393     A.U. after    7 cycles
 SCF Done:  E(RB3LYP) =  -1089.16201402     A.U. after    7 cycles
 SCF Done:  E(RB3LYP) =  -1089.16201408     A.U. after    6 cycles
 SCF Done:  E(RB3LYP) =  -1089.16201414     A.U. after    6 cycles
 SCF Done:  E(RB3LYP) =  -1089.16201416     A.U. after    6 cycles
 Optimization completed.
    -- Stationary point found.
 Normal termination of Gaussian 16 at Fri Dec 11 11:49:33 2020.

 --------------------------------------------------------------------
 #N Geom=AllCheck Guess=TCheck SCRF=Check GenChk RB3LYP/6-31G(d) Freq
 --------------------------------------------------------------------

 Structure from the checkpoint file:  "JID_7019.chk"
 -------------------------------
 CID_116228933_JID_7019_neutraal
 -------------------------------
 Charge =  0 Multiplicity = 1

 SCF Done:  E(RB3LYP) =  -1089.16201416     A.U. after    1 cycles

  Exact polarizability: 206.724  -7.505 161.904  15.862   8.327 115.522
 Approx polarizability: 281.398 -19.193 274.053  33.120  16.796 184.604

                      1                      2                      3
                      A                      A                      A
 Frequencies --     29.9117                37.7280                48.4191
 Red. masses --      4.5164                 5.9003                 4.9687
 Frc consts  --      0.0024                 0.0049                 0.0069
 IR Inten    --      0.8973                 0.2947                 1.1158

                      4                      5                      6
                      A                      A                      A
 Frequencies --     61.0443                77.2361                91.9011
 Red. masses --      2.8708                 5.6996                 3.9939
 Frc consts  --      0.0063                 0.0200                 0.0199
 IR Inten    --      0.0065                 1.1381                 0.8975

                      7                      8                      9
                      A                      A                      A
 Frequencies --    132.4903               161.5518               170.0171
 Red. masses --      3.6175                 4.0801                 3.0273
 Frc consts  --      0.0374                 0.0627                 0.0516
 IR Inten    --      3.6316                 0.4358                 2.9709

                     10                     11                     12
                      A                      A                      A
 Frequencies --    211.9110               234.2962               240.3798
 Red. masses --      2.6736                 1.1559                 1.1870
 Frc consts  --      0.0707                 0.0374                 0.0404
 IR Inten    --      0.4460                19.5616                 8.6624

                     13                     14                     15
                      A                      A                      A
 Frequencies --    263.2487               268.2013               288.2218
 Red. masses --      1.7362                 1.5034                 2.9102
 Frc consts  --      0.0709                 0.0637                 0.1424
 IR Inten    --      1.4583                 0.9536                 1.6799

                     16                     17                     18
                      A                      A                      A
 Frequencies --    332.9850               341.0401               392.1110
 Red. masses --      2.4824                 2.3563                 3.3859
 Frc consts  --      0.1622                 0.1615                 0.3067
 IR Inten    --      4.4380                 2.1840                 2.9892

                     19                     20                     21
                      A                      A                      A
 Frequencies --    409.1306               431.3625               477.8019
 Red. masses --      2.3369                 3.5586                 4.3972
 Frc consts  --      0.2305                 0.3901                 0.5915
 IR Inten    --      1.2144                 7.3663                 2.4006

                     22                     23                     24
                      A                      A                      A
 Frequencies --    509.6261               530.5856               564.8758
 Red. masses --      4.9402                 3.1700                 3.6279
 Frc consts  --      0.7560                 0.5258                 0.6820
 IR Inten    --      4.2302                10.9776                 1.3466

                     25                     26                     27
                      A                      A                      A
 Frequencies --    584.6314               611.3971               627.1944
 Red. masses --      3.4313                 2.5009                 1.8741
 Frc consts  --      0.6910                 0.5508                 0.4344
 IR Inten    --     43.5665                67.9813               143.7353

                     28                     29                     30
                      A                      A                      A
 Frequencies --    640.9364               657.7711               690.6769
 Red. masses --      3.3833                 4.1425                 4.6827
 Frc consts  --      0.8189                 1.0560                 1.3161
 IR Inten    --     13.6207                11.8417                47.8288

                     31                     32                     33
                      A                      A                      A
 Frequencies --    702.4482               746.9509               765.4225
 Red. masses --      1.2492                 7.0721                 5.8270
 Frc consts  --      0.3632                 2.3248                 2.0114
 IR Inten    --     51.9844                 2.2776                25.0473

                     34                     35                     36
                      A                      A                      A
 Frequencies --    790.6531               835.7670               849.9225
 Red. masses --      4.4399                 1.7704                 1.9013
 Frc consts  --      1.6353                 0.7286                 0.8092
 IR Inten    --      1.0696                21.5333                24.8772

                     37                     38                     39
                      A                      A                      A
 Frequencies --    862.4300               875.7311               898.1940
 Red. masses --      2.2990                 2.4992                 2.8439
 Frc consts  --      1.0075                 1.1292                 1.3518
 IR Inten    --      6.7930                 4.2020                 5.2554

                     40                     41                     42
                      A                      A                      A
 Frequencies --    918.6993               924.8857               938.1947
 Red. masses --      2.0644                 2.0440                 1.1668
 Frc consts  --      1.0266                 1.0302                 0.6051
 IR Inten    --      7.8544                15.9363                 0.6011

                     43                     44                     45
                      A                      A                      A
 Frequencies --    971.1188               978.6825              1027.0968
 Red. masses --      1.5249                 2.0260                 2.1801
 Frc consts  --      0.8473                 1.1433                 1.3550
 IR Inten    --      0.0795                 4.9242                 1.5965

                     46                     47                     48
                      A                      A                      A
 Frequencies --   1042.1534              1069.7644              1074.6226
 Red. masses --      2.5215                 1.8831                 1.8241
 Frc consts  --      1.6135                 1.2697                 1.2411
 IR Inten    --      0.3929                18.0181                 7.3528

                     49                     50                     51
                      A                      A                      A
 Frequencies --   1084.3437              1110.2785              1140.1883
 Red. masses --      2.8372                 1.2745                 2.2509
 Frc consts  --      1.9655                 0.9256                 1.7241
 IR Inten    --      4.9756                 1.3928                 3.7967

                     52                     53                     54
                      A                      A                      A
 Frequencies --   1146.4621              1162.6216              1179.7587
 Red. masses --      1.7235                 1.9475                 1.6869
 Frc consts  --      1.3347                 1.5510                 1.3833
 IR Inten    --      2.5482                13.7621                22.0188

                     55                     56                     57
                      A                      A                      A
 Frequencies --   1203.5063              1225.9094              1271.9379
 Red. masses --      1.4691                 1.4859                 1.9801
 Frc consts  --      1.2537                 1.3157                 1.8874
 IR Inten    --      4.5061                 5.0179                 2.4113

                     58                     59                     60
                      A                      A                      A
 Frequencies --   1282.2071              1317.9130              1354.0935
 Red. masses --      1.4293                 1.3021                 1.3442
 Frc consts  --      1.3845                 1.3325                 1.4522
 IR Inten    --     21.8063                 9.4344                 3.1392

                     61                     62                     63
                      A                      A                      A
 Frequencies --   1362.3314              1369.4965              1395.9854
 Red. masses --      1.6175                 1.8962                 1.4861
 Frc consts  --      1.7688                 2.0953                 1.7063
 IR Inten    --      8.4470                11.5391                 1.7693

                     64                     65                     66
                      A                      A                      A
 Frequencies --   1397.1655              1411.1000              1417.6438
 Red. masses --      1.4367                 1.8414                 2.1141
 Frc consts  --      1.6524                 2.1603                 2.5033
 IR Inten    --     14.2488                 1.5282                 3.2631

                     67                     68                     69
                      A                      A                      A
 Frequencies --   1426.9394              1447.1202              1489.3224
 Red. masses --      1.2296                 1.2297                 3.2617
 Frc consts  --      1.4751                 1.5173                 4.2626
 IR Inten    --      4.5483                 3.8020                60.8519

                     70                     71                     72
                      A                      A                      A
 Frequencies --   1503.1739              1509.8190              1514.7461
 Red. masses --      3.6029                 1.0863                 1.2619
 Frc consts  --      4.7965                 1.4590                 1.7059
 IR Inten    --      8.7658                 8.0250                19.8019

                     73                     74                     75
                      A                      A                      A
 Frequencies --   1517.0362              1521.2888              1524.1898
 Red. masses --      1.0714                 1.2430                 1.0788
 Frc consts  --      1.4527                 1.6949                 1.4766
 IR Inten    --      3.9488                13.2287                 2.0916

                     76                     77                     78
                      A                      A                      A
 Frequencies --   1535.4311              1540.2613              1546.1915
 Red. masses --      1.0498                 1.0701                 4.7022
 Frc consts  --      1.4582                 1.4958                 6.6233
 IR Inten    --      7.1811                 5.7367               107.4143

                     79                     80                     81
                      A                      A                      A
 Frequencies --   1604.5565              1659.2636              1699.9180
 Red. masses --      5.3631                 1.6163                 2.9728
 Frc consts  --      8.1353                 2.6218                 5.0614
 IR Inten    --      1.4790                23.3416               273.6359

                     82                     83                     84
                      A                      A                      A
 Frequencies --   3006.2349              3047.3268              3048.6421
 Red. masses --      1.0831                 1.0379                 1.0588
 Frc consts  --      5.7673                 5.6789                 5.7979
 IR Inten    --     32.1715                28.1605                 7.3656

                     85                     86                     87
                      A                      A                      A
 Frequencies --   3055.0476              3057.0677              3080.0574
 Red. masses --      1.0367                 1.0642                 1.0651
 Frc consts  --      5.7008                 5.8599                 5.9532
 IR Inten    --     21.8351                40.0990                21.6111

                     88                     89                     90
                      A                      A                      A
 Frequencies --   3094.2365              3114.2854              3114.7383
 Red. masses --      1.0974                 1.1005                 1.0993
 Frc consts  --      6.1902                 6.2888                 6.2836
 IR Inten    --     33.5697                14.8459                21.2126

                     91                     92                     93
                      A                      A                      A
 Frequencies --   3119.9100              3121.0742              3125.2097
 Red. masses --      1.1023                 1.1025                 1.1027
 Frc consts  --      6.3216                 6.3278                 6.3457
 IR Inten    --     80.6192                19.6827                 9.4349

                     94                     95                     96
                      A                      A                      A
 Frequencies --   3134.9206              3216.8202              3234.2745
 Red. masses --      1.1016                 1.0889                 1.0954
 Frc consts  --      6.3784                 6.6391                 6.7513
 IR Inten    --     27.9080                 9.2441                 2.3853

                     97                     98                     99
                      A                      A                      A
 Frequencies --   3269.6170              3555.3458              3657.4477
 Red. masses --      1.0969                 1.0477                 1.0984
 Frc consts  --      6.9090                 7.8029                 8.6570
 IR Inten    --      2.2862                32.8932                23.4440

 - Thermochemistry -
 -------------------
 Temperature   298.150 Kelvin.  Pressure   1.00000 Atm.
 Atom     1 has atomic number  6 and mass  12.00000

 Molecular mass:   250.11399 amu.
 Principal axes and moments of inertia in atomic units:
                           1         2         3
     Eigenvalues --  2108.493368667.319019793.19807
           X            0.99982   0.01891  -0.00088
           Y           -0.01891   0.99982   0.00283
           Z            0.00093  -0.00281   1.00000
 This molecule is an asymmetric top.
 Rotational symmetry number  1.
 Warning -- assumption of classical behavior for rotation
           may cause significant error
 Rotational temperatures (Kelvin)      0.04108     0.00999     0.00884
 Rotational constants (GHZ):           0.85594     0.20822     0.18429
 Zero-point vibrational energy     773480.7 (Joules/Mol)
                                  184.86633 (Kcal/Mol)
 Warning -- explicit consideration of  26 degrees of freedom as
           vibrations may cause significant error
 Vibrational temperatures:     43.04    54.28    69.66    87.83   111.13
          (Kelvin)            132.23   190.62   232.44   244.62   304.89
                              337.10   345.85   378.76   385.88   414.69
                              479.09   490.68   564.16   588.65   620.63
                              687.45   733.24   763.39   812.73   841.15
                              879.66   902.39   922.16   946.39   993.73
                             1010.67  1074.70  1101.27  1137.57  1202.48
                             1222.85  1240.84  1259.98  1292.30  1321.80
                             1330.70  1349.85  1397.22  1408.11  1477.76
                             1499.43  1539.15  1546.14  1560.13  1597.44
                             1640.48  1649.50  1672.75  1697.41  1731.58
                             1763.81  1830.03  1844.81  1896.18  1948.24
                             1960.09  1970.40  2008.51  2010.21  2030.26
                             2039.67  2053.05  2082.08  2142.80  2162.73
                             2172.29  2179.38  2182.68  2188.80  2192.97
                             2209.14  2216.09  2224.62  2308.60  2387.31
                             2445.80  4325.30  4384.42  4386.32  4395.53
                             4398.44  4431.52  4451.92  4480.76  4481.41
                             4488.85  4490.53  4496.48  4510.45  4628.29
                             4653.40  4704.25  5115.35  5262.25

 Zero-point correction=                           0.294603 (Hartree/Particle)
 Thermal correction to Energy=                    0.311873
 Thermal correction to Enthalpy=                  0.312817
 Thermal correction to Gibbs Free Energy=         0.248243
 Sum of electronic and zero-point Energies=          -1088.867411
 Sum of electronic and thermal Energies=             -1088.850141
 Sum of electronic and thermal Enthalpies=           -1088.849197
 Sum of electronic and thermal Free Energies=        -1088.913771

                     E (Thermal)             CV                S
                      KCal/Mol        Cal/Mol-Kelvin    Cal/Mol-Kelvin
 Total                  195.703             65.498            135.909
 Electronic               0.000              0.000              0.000
 Translational            0.889              2.981             42.451
 Rotational               0.889              2.981             33.548
 Vibrational            193.926             59.537             59.910
 Vibration     1          0.594              1.984              5.835
 Vibration     2          0.594              1.982              5.375
 Vibration     3          0.595              1.978              4.881
 Vibration     4          0.597              1.973              4.423
 Vibration     5          0.599              1.964              3.960
 Vibration     6          0.602              1.955              3.619
 Vibration     7          0.613              1.921              2.910
 Vibration     8          0.622              1.890              2.532
 Vibration     9          0.625              1.879              2.435
 Vibration    10          0.643              1.823              2.027
 Vibration    11          0.654              1.788              1.846
 Vibration    12          0.657              1.779              1.800
 Vibration    13          0.670              1.740              1.640
 Vibration    14          0.673              1.732              1.608
 Vibration    15          0.685              1.696              1.484
 Vibration    16          0.715              1.610              1.246
 Vibration    17          0.721              1.593              1.207
 Vibration    18          0.760              1.487              0.992
 Vibration    19          0.773              1.450              0.930
 Vibration    20          0.792              1.402              0.854
 Vibration    21          0.834              1.299              0.716
 Vibration    22          0.865              1.229              0.634
 Vibration    23          0.886              1.182              0.586
 Vibration    24          0.921              1.107              0.514
 Vibration    25          0.942              1.065              0.477
 Vibration    26          0.971              1.008              0.430

 Optimization completed.
    -- Stationary point found.
 Normal termination of Gaussian 16 at Fri Dec 11 12:02:30 2020.

 ----------------------------------------------------------------------
 # B3LYP/6-311++G(d,p) empiricaldispersion=gd3bj scf=xqc pop=npa geom=c
 heck
 ----------------------------------------------------------------------

 ---------------------------------------
 CID_116228933_JID_7019_Energie_neutraal
 ---------------------------------------
 Structure from the checkpoint file:  "JID_7019.chk"
 Charge =  0 Multiplicity = 1

 SCF Done:  E(RB3LYP) =  -1089.37998728     A.U. after   16 cycles
 Normal termination of Gaussian 16 at Fri Dec 11 12:09:56 2020.

 ----------------------------------------------------------------------
 # B3LYP/6-311++G(d,p) empiricaldispersion=gd3bj scf=xqc pop=npa geom=c
 heck
 ----------------------------------------------------------------------

 -------------------------------------
 CID_116228933_JID_7019_Energie_kation
 -------------------------------------
 Structure from the checkpoint file:  "JID_7019.chk"
 Charge =  1 Multiplicity = 2

 SCF Done:  E(UB3LYP) =  -1089.10188947     A.U. after   31 cycles
 Normal termination of Gaussian 16 at Fri Dec 11 12:27:06 2020.
 Gaussian 16:  ES64L-G16RevA.03 25-Dec-2016

 ----------------------------------------------------------------------
 # B3LYP/6-311++G(d,p) empiricaldispersion=gd3bj scf=xqc pop=npa geom=c
 heck
 ----------------------------------------------------------------------

 ------------------------------------
 CID_116228933_JID_7019_Energie_anion
 ------------------------------------
 Structure from the checkpoint file:  "JID_7019.chk"
 Charge = -1 Multiplicity = 2

                         Standard orientation:
 ---------------------------------------------------------------------
 Center     Atomic      Atomic             Coordinates (Angstroms)
 Number     Number       Type             X           Y           Z
 ---------------------------------------------------------------------
      1          6           0       -2.998593   -2.256813   -0.678378
      2          6           0       -3.415360   -1.065957    0.201386
      3          6           0       -3.585298   -1.494502    1.670802
      4          6           0       -2.498181    0.123146    0.062120
      5          6           0       -2.871252    1.404499   -0.263349
      6          8           0       -1.814857    2.232581   -0.260864
      7          7           0       -0.659301    1.485117    0.089512
      8          6           0       -1.087043    0.251586    0.274013
      9          6           0       -0.083376   -0.814299    0.619480
     10          6           0        0.613787   -1.419764   -0.615940
     11          6           0        1.530356   -0.423876   -1.355170
     12          6           0        2.672907    0.070632   -0.517223
     13          6           0        2.752050    1.226876    0.214165
     14          6           0        3.970314    1.350034    0.952960
     15          6           0        4.806670    0.282903    0.783208
     16         16           0        4.115421   -0.896723   -0.290452
     17          7           0       -4.077323    1.960461   -0.633833
     18          1           0       -2.050741   -2.688016   -0.341270
     19          1           0       -2.878064   -1.950200   -1.722346
     20          1           0       -3.755307   -3.048596   -0.635975
     21          1           0       -4.404427   -0.745602   -0.158774
     22          1           0       -2.634584   -1.837850    2.093216
     23          1           0       -3.937468   -0.659649    2.285915
     24          1           0       -4.305669   -2.316510    1.757333
     25          1           0        0.677615   -0.380796    1.275623
     26          1           0       -0.579994   -1.610212    1.182029
     27          1           0        1.207233   -2.282203   -0.288048
     28          1           0       -0.138079   -1.795317   -1.319876
     29          1           0        1.905803   -0.903425   -2.267373
     30          1           0        0.940187    0.443242   -1.667214
     31          1           0        1.943772    1.949691    0.228233
     32          1           0        4.211006    2.200861    1.581307
     33          1           0        5.786625    0.120170    1.210631
     34          1           0       -4.113870    2.966408   -0.517512
     35          1           0       -4.887423    1.499077   -0.239947
 ---------------------------------------------------------------------

 SCF Done:  E(UB3LYP) =  -1089.37282167     A.U. after   33 cycles
 SCF Done:  E(UB3LYP) =  -1089.37282167     a.u. after    1 cycles

 The electronic state is 2-A.
 Alpha  occ. eigenvalues --  -88.78843 -19.09574 -14.24339 -14.22747 -10.16595
 Alpha  occ. eigenvalues --  -10.11464 -10.11311 -10.10989 -10.09346 -10.09141
 Alpha  occ. eigenvalues --  -10.08851 -10.08762 -10.08633 -10.08130 -10.06713
 Alpha  occ. eigenvalues --  -10.06374 -10.06073  -7.87478  -5.83758  -5.83400
 Alpha  occ. eigenvalues --   -5.83088  -1.03297  -0.82768  -0.79586  -0.77143
 Alpha  occ. eigenvalues --   -0.71373  -0.70914  -0.65577  -0.64813  -0.64583
 Alpha  occ. eigenvalues --   -0.60059  -0.58874  -0.53581  -0.51683  -0.48480
 Alpha  occ. eigenvalues --   -0.47703  -0.46913  -0.44561  -0.42335  -0.41406
 Alpha  occ. eigenvalues --   -0.39634  -0.37927  -0.36981  -0.35915  -0.35521
 Alpha  occ. eigenvalues --   -0.35045  -0.32853  -0.31793  -0.31285  -0.31054
 Alpha  occ. eigenvalues --   -0.30485  -0.29348  -0.29077  -0.28541  -0.26695
 Alpha  occ. eigenvalues --   -0.26264  -0.25924  -0.25188  -0.24943  -0.24809
 Alpha  occ. eigenvalues --   -0.23891  -0.23061  -0.20136  -0.18126  -0.16990
 Alpha  occ. eigenvalues --   -0.14765  -0.11446   0.04121
 Alpha virt. eigenvalues --    0.05564   0.06121   0.06566   0.07439   0.08199
 Alpha virt. eigenvalues --    0.08379   0.08964   0.09509   0.09807   0.10058
 Alpha virt. eigenvalues --    0.10452   0.10914   0.11581   0.11787   0.11886

  Beta  occ. eigenvalues --  -88.78837 -19.09567 -14.24336 -14.22648 -10.16587
  Beta  occ. eigenvalues --  -10.11422 -10.11269 -10.10989 -10.09343 -10.09140
  Beta  occ. eigenvalues --  -10.08841 -10.08758 -10.08605 -10.08127 -10.06711
  Beta  occ. eigenvalues --  -10.06351 -10.06041  -7.87472  -5.83755  -5.83397
  Beta  occ. eigenvalues --   -5.83067  -1.03286  -0.82653  -0.79539  -0.77117
  Beta  occ. eigenvalues --   -0.71333  -0.70870  -0.65532  -0.64777  -0.64539
  Beta  occ. eigenvalues --   -0.60029  -0.58815  -0.53547  -0.51630  -0.48393
  Beta  occ. eigenvalues --   -0.47648  -0.46869  -0.44514  -0.42288  -0.41343
  Beta  occ. eigenvalues --   -0.39552  -0.37902  -0.36947  -0.35883  -0.35476
  Beta  occ. eigenvalues --   -0.35000  -0.32825  -0.31769  -0.31248  -0.31035
  Beta  occ. eigenvalues --   -0.30445  -0.29270  -0.29049  -0.28510  -0.26654
  Beta  occ. eigenvalues --   -0.26235  -0.25897  -0.25161  -0.24905  -0.24781
  Beta  occ. eigenvalues --   -0.23834  -0.22993  -0.20111  -0.18117  -0.16892
  Beta  occ. eigenvalues --   -0.14554  -0.11405
  Beta virt. eigenvalues --    0.05929   0.06075   0.06641   0.07537   0.08007
  Beta virt. eigenvalues --    0.08184   0.08637   0.09250   0.09798   0.10062
  Beta virt. eigenvalues --    0.10246   0.10992   0.11014   0.11769   0.11981

 Mulliken charges and spin densities:
               1          2
     1  C    0.497718  -1.214372
     2  C   -2.294172   2.343570
     3  C    0.535938  -1.189254
     4  C    0.489364  -0.946919
     5  C    0.264573  -0.240308
     6  O    0.340665  -0.065939
     7  N   -0.653102   0.078098
     8  C    1.028369  -0.817023
     9  C    1.219107  -0.824777
    10  C   -0.424063  -0.033545
    11  C   -0.238482  -0.115867
    12  C    0.290091  -0.012920
    13  C   -0.164221   0.048272
    14  C   -0.434748  -0.052214
    15  C   -0.203038   0.051437
    16  S   -0.138461  -0.049459
    17  N   -0.367702   0.071997
    18  H   -0.088084   0.202853
    19  H   -0.038071   0.193185
    20  H   -0.245931   0.397997
    21  H   -0.407087   0.576122
    22  H   -0.072181   0.191279
    23  H   -0.157913   0.322296
    24  H   -0.287004   0.430233
    25  H    0.167830  -0.006059
    26  H    0.340103  -0.113989
    27  H    0.040130   0.090518
    28  H    0.231484  -0.095780
    29  H   -0.036939   0.239455
    30  H    0.180155   0.012738
    31  H    0.207037   0.037896
    32  H    0.130305   0.003649
    33  H    0.212470   0.006676
    34  H   -0.409077   0.686934
    35  H   -0.515061   0.793222
 Sum of Mulliken charges =  -1.00000   1.00000

 Dipole moment (field-independent basis, Debye):
    X=             13.2715    Y=             -2.4959    Z=              0.6497  Tot=             13.5198
 Quadrupole moment (field-independent basis, Debye-Ang):
   XX=           -228.1321   YY=           -153.4007   ZZ=           -137.1365
   XY=              8.7587   XZ=              5.8757   YZ=              2.1591

 Summary of Natural Population Analysis:

                                       Natural Population
                Natural  -----------------------------------------------
    Atom  No    Charge         Core      Valence    Rydberg      Total
 -----------------------------------------------------------------------
      C    1   -0.27910      0.99965     2.27333    0.00612     3.27910
      C    2   -0.12000      0.99960     2.10839    0.01202     3.12000
      C    3   -0.27775      0.99965     2.27196    0.00614     3.27775
      C    4   -0.10941      0.99939     2.09673    0.01329     3.10941
      C    5    0.27403      0.99943     1.70945    0.01709     2.72597
      O    6   -0.17992      0.99985     3.17230    0.00777     4.17992
      N    7   -0.11483      0.99966     2.60262    0.01255     3.61483
      C    8    0.09719      0.99955     1.88768    0.01558     2.90281
      C    9   -0.20967      0.99958     2.20226    0.00783     3.20967
      C   10   -0.17940      0.99962     2.17178    0.00801     3.17940
      C   11   -0.21428      0.99957     2.20394    0.01077     3.21428
      C   12   -0.08333      0.99949     2.07167    0.01216     3.08333
      C   13   -0.13474      0.99945     2.12603    0.00925     3.13474
      C   14   -0.12616      0.99954     2.11741    0.00920     3.12616
      C   15   -0.19660      0.99955     2.18678    0.01027     3.19660
      S   16    0.19047      4.99941     2.78866    0.02146     7.80953
      N   17   -0.39552      0.99970     2.88594    0.00987     3.89552
      H   18    0.09282      0.00000     0.40604    0.00114     0.40718
      H   19    0.10125      0.00000     0.39774    0.00101     0.39875
      H   20    0.09970      0.00000     0.39939    0.00091     0.40030
      H   21    0.10344      0.00000     0.39295    0.00361     0.39656
      H   22    0.09157      0.00000     0.40741    0.00102     0.40843
      H   23    0.10397      0.00000     0.39488    0.00115     0.39603
      H   24    0.09897      0.00000     0.39994    0.00109     0.40103
      H   25    0.11236      0.00000     0.38638    0.00127     0.38764
      H   26    0.10612      0.00000     0.39275    0.00113     0.39388
      H   27    0.09566      0.00000     0.40322    0.00113     0.40434
      H   28    0.10170      0.00000     0.39722    0.00109     0.39830
      H   29    0.10401      0.00000     0.39491    0.00108     0.39599
      H   30    0.11809      0.00000     0.38043    0.00149     0.38191
      H   31    0.12252      0.00000     0.37621    0.00127     0.37748
      H   32    0.10371      0.00000     0.39537    0.00092     0.39629
      H   33    0.10523      0.00000     0.39392    0.00085     0.39477
      H   34    0.19596      0.00000     0.29919    0.00485     0.30404
      H   35    0.20193      0.00000     0.28155    0.01652     0.29807
 =======================================================================
   * Total *   -0.00000     20.99269    45.77640    0.23091    67.00000

 Normal termination of Gaussian 16 at Fri Dec 11 12:53:53 2020.
