 Gaussian 16, Revision A.03,

 -----------------------------------------------------------
 # opt freq B3LYP/6-31G(d) empiricaldispersion=gd3bj scf=xqc
 -----------------------------------------------------------

 ------------------------------
 CID_61458092_JID_5771_neutraal
 ------------------------------
 Symbolic Z-matrix:
 Charge =  0 Multiplicity = 1

 SCF Done:  E(RB3LYP) =  -1107.01157458     A.U. after   15 cycles
 SCF Done:  E(RB3LYP) =  -1107.02152542     A.U. after   13 cycles
 SCF Done:  E(RB3LYP) =  -1107.01405604     A.U. after   14 cycles
 SCF Done:  E(RB3LYP) =  -1107.02190535     A.U. after   12 cycles
 SCF Done:  E(RB3LYP) =  -1107.02295677     A.U. after   12 cycles
 SCF Done:  E(RB3LYP) =  -1107.02409272     A.U. after   12 cycles
 SCF Done:  E(RB3LYP) =  -1107.02465311     A.U. after   13 cycles
 SCF Done:  E(RB3LYP) =  -1107.02527368     A.U. after   12 cycles
 SCF Done:  E(RB3LYP) =  -1107.02550170     A.U. after   13 cycles
 SCF Done:  E(RB3LYP) =  -1107.02649978     A.U. after   12 cycles
 SCF Done:  E(RB3LYP) =  -1107.04051142     A.U. after   10 cycles
 SCF Done:  E(RB3LYP) =  -1107.04051702     A.U. after    9 cycles
 SCF Done:  E(RB3LYP) =  -1107.04051812     A.U. after    8 cycles
 SCF Done:  E(RB3LYP) =  -1107.04051878     A.U. after    8 cycles
 SCF Done:  E(RB3LYP) =  -1107.04051890     A.U. after    7 cycles
 SCF Done:  E(RB3LYP) =  -1107.04051897     A.U. after    7 cycles
 Optimization completed.
    -- Stationary point found.
 Normal termination of Gaussian 16 at Thu Dec 10 17:18:47 2020.

 --------------------------------------------------------------------
 #N Geom=AllCheck Guess=TCheck SCRF=Check GenChk RB3LYP/6-31G(d) Freq
 --------------------------------------------------------------------

 Structure from the checkpoint file:  "JID_5771.chk"
 ------------------------------
 CID_61458092_JID_5771_neutraal
 ------------------------------
 Charge =  0 Multiplicity = 1

 SCF Done:  E(RB3LYP) =  -1107.04051897     A.U. after    1 cycles

  Exact polarizability: 142.866  -0.232 125.156   4.197  -2.058 105.876
 Approx polarizability: 194.771  -5.234 183.360   8.489   0.765 175.490

                      1                      2                      3
                      A                      A                      A
 Frequencies --     41.6231                63.5004                89.3632
 Red. masses --      5.1853                 4.3108                 3.5444
 Frc consts  --      0.0053                 0.0102                 0.0167
 IR Inten    --      1.3811                 1.8114                 2.4429

                      4                      5                      6
                      A                      A                      A
 Frequencies --    102.0403               116.8866               122.2038
 Red. masses --      4.3793                 2.4438                 2.3758
 Frc consts  --      0.0269                 0.0197                 0.0209
 IR Inten    --      0.8133                 0.1924                 0.0427

                      7                      8                      9
                      A                      A                      A
 Frequencies --    159.1561               175.7223               207.5299
 Red. masses --      3.7982                 6.7789                 2.5133
 Frc consts  --      0.0567                 0.1233                 0.0638
 IR Inten    --      0.2167                 4.7402                 1.0535

                     10                     11                     12
                      A                      A                      A
 Frequencies --    212.3979               246.2104               265.1967
 Red. masses --      1.5705                 3.3782                 4.2730
 Frc consts  --      0.0417                 0.1207                 0.1771
 IR Inten    --      0.7880                 0.9435                 0.4553

                     13                     14                     15
                      A                      A                      A
 Frequencies --    277.0547               280.5697               309.8845
 Red. masses --      2.3840                 1.1234                 4.6354
 Frc consts  --      0.1078                 0.0521                 0.2623
 IR Inten    --      0.6954                 1.0019                10.7568

                     16                     17                     18
                      A                      A                      A
 Frequencies --    331.8592               353.4507               401.1049
 Red. masses --      4.1707                 5.4356                 4.4424
 Frc consts  --      0.2706                 0.4001                 0.4211
 IR Inten    --      1.7214                11.2919                 3.6544

                     19                     20                     21
                      A                      A                      A
 Frequencies --    407.5101               462.7751               514.0693
 Red. masses --      3.8435                 4.3289                 4.5753
 Frc consts  --      0.3761                 0.5462                 0.7124
 IR Inten    --      1.6839                15.9091                 7.8265

                     22                     23                     24
                      A                      A                      A
 Frequencies --    560.9241               572.1933               610.8386
 Red. masses --      4.4910                 4.5083                 3.3254
 Frc consts  --      0.8325                 0.8697                 0.7310
 IR Inten    --     45.8885                16.5928                24.9593

                     25                     26                     27
                      A                      A                      A
 Frequencies --    650.8044               694.0357               724.4395
 Red. masses --      4.5909                 3.1448                 4.2952
 Frc consts  --      1.1456                 0.8925                 1.3281
 IR Inten    --      3.5822                 3.8197                25.7053

                     28                     29                     30
                      A                      A                      A
 Frequencies --    759.0918               777.6459               819.6379
 Red. masses --      3.3809                 1.4876                 1.3657
 Frc consts  --      1.1478                 0.5300                 0.5406
 IR Inten    --      8.8337                22.2312                 5.6877

                     31                     32                     33
                      A                      A                      A
 Frequencies --    846.6505               870.6124               897.7378
 Red. masses --      3.5609                 2.1159                 1.5285
 Frc consts  --      1.5039                 0.9449                 0.7258
 IR Inten    --      5.2930                36.8061                95.7736

                     34                     35                     36
                      A                      A                      A
 Frequencies --    930.6380               936.4619               964.0605
 Red. masses --      1.8906                 1.9144                 2.1030
 Frc consts  --      0.9647                 0.9891                 1.1516
 IR Inten    --     33.5045                 9.7058                70.1305

                     37                     38                     39
                      A                      A                      A
 Frequencies --    992.7964              1008.0172              1021.1608
 Red. masses --      2.1770                 1.8292                 2.0517
 Frc consts  --      1.2642                 1.0951                 1.2605
 IR Inten    --      4.1838                 5.2976                 9.6152

                     40                     41                     42
                      A                      A                      A
 Frequencies --   1038.0011              1072.0698              1095.8063
 Red. masses --      3.8568                 2.2714                 1.5031
 Frc consts  --      2.4484                 1.5381                 1.0634
 IR Inten    --     34.9869                15.7243                10.0788

                     43                     44                     45
                      A                      A                      A
 Frequencies --   1101.9216              1118.7758              1122.6171
 Red. masses --      2.7709                 4.1180                 2.0837
 Frc consts  --      1.9823                 3.0369                 1.5472
 IR Inten    --     46.2811                63.8059                40.1712

                     46                     47                     48
                      A                      A                      A
 Frequencies --   1157.9456              1177.4438              1227.7495
 Red. masses --      2.2649                 2.1081                 1.4434
 Frc consts  --      1.7893                 1.7220                 1.2819
 IR Inten    --     14.3263                 4.5041                 3.3749

                     49                     50                     51
                      A                      A                      A
 Frequencies --   1267.0120              1273.1601              1286.4610
 Red. masses --      1.2534                 3.2531                 1.1570
 Frc consts  --      1.1855                 3.1068                 1.1282
 IR Inten    --      8.3757                74.6091                 2.3120

                     52                     53                     54
                      A                      A                      A
 Frequencies --   1292.6462              1302.4248              1313.2734
 Red. masses --      1.5902                 1.2911                 1.7738
 Frc consts  --      1.5655                 1.2904                 1.8025
 IR Inten    --      1.7788                 0.4902                70.0336

                     55                     56                     57
                      A                      A                      A
 Frequencies --   1326.9909              1333.1172              1349.6484
 Red. masses --      2.1161                 1.5384                 1.2829
 Frc consts  --      2.1955                 1.6108                 1.3768
 IR Inten    --     95.7322                44.4363                 1.7092

                     58                     59                     60
                      A                      A                      A
 Frequencies --   1366.7323              1382.5152              1400.1144
 Red. masses --      1.3054                 1.3364                 1.3035
 Frc consts  --      1.4367                 1.5050                 1.5056
 IR Inten    --     17.1952                 0.4805                15.8111

                     61                     62                     63
                      A                      A                      A
 Frequencies --   1430.5969              1440.3666              1448.4389
 Red. masses --      1.2037                 1.3785                 1.2568
 Frc consts  --      1.4514                 1.6850                 1.5535
 IR Inten    --      5.5290                 3.6399                 3.7989

                     64                     65                     66
                      A                      A                      A
 Frequencies --   1492.4445              1513.3341              1517.6037
 Red. masses --      1.2367                 1.0826                 1.0790
 Frc consts  --      1.6230                 1.4607                 1.4641
 IR Inten    --    155.8631                 5.5507                 7.1614

                     67                     68                     69
                      A                      A                      A
 Frequencies --   1524.0920              1528.5315              1529.7694
 Red. masses --      1.0676                 1.0624                 1.0596
 Frc consts  --      1.4610                 1.4624                 1.4609
 IR Inten    --      5.9087                 2.2741                19.6784

                     70                     71                     72
                      A                      A                      A
 Frequencies --   1532.8334              1542.1293              1543.5244
 Red. masses --      1.0546                 1.0865                 1.0643
 Frc consts  --      1.4599                 1.5224                 1.4940
 IR Inten    --      8.0437                 3.4733                13.7942

                     73                     74                     75
                      A                      A                      A
 Frequencies --   1873.3603              3019.1916              3041.5042
 Red. masses --      8.6184                 1.0843                 1.0726
 Frc consts  --     17.8204                 5.8235                 5.8461
 IR Inten    --    383.4834                14.1444                30.4067

                     76                     77                     78
                      A                      A                      A
 Frequencies --   3054.1672              3074.5406              3074.9838
 Red. masses --      1.0442                 1.0342                 1.0609
 Frc consts  --      5.7387                 5.7599                 5.9102
 IR Inten    --     27.4945                 5.7555                21.3850

                     79                     80                     81
                      A                      A                      A
 Frequencies --   3082.5805              3093.0313              3114.4252
 Red. masses --      1.0723                 1.0665                 1.0972
 Frc consts  --      6.0034                 6.0114                 6.2706
 IR Inten    --     12.8902                35.2552                25.7872

                     82                     83                     84
                      A                      A                      A
 Frequencies --   3116.3976              3120.9705              3147.5166
 Red. masses --      1.0859                 1.1027                 1.1027
 Frc consts  --      6.2139                 6.3286                 6.4367
 IR Inten    --      2.0823                21.5090                 2.5061

                     85                     86                     87
                      A                      A                      A
 Frequencies --   3148.6881              3151.0322              3161.8199
 Red. masses --      1.1026                 1.0907                 1.1046
 Frc consts  --      6.4407                 6.3804                 6.5060
 IR Inten    --     17.7819                13.5532                 4.2831

                     88                     89                     90
                      A                      A                      A
 Frequencies --   3165.5205              3195.4385              3217.7616
 Red. masses --      1.0979                 1.0952                 1.0709
 Frc consts  --      6.4822                 6.5888                 6.5328
 IR Inten    --     18.3856                 6.0689               755.1276

 - Thermochemistry -
 -------------------
 Temperature   298.150 Kelvin.  Pressure   1.00000 Atm.
 Atom     1 has atomic number  6 and mass  12.00000

 Molecular mass:   235.08783 amu.
 Principal axes and moments of inertia in atomic units:
                           1         2         3
     Eigenvalues --  2342.816583636.908394547.80384
           X            0.99857   0.05305   0.00608
           Y           -0.05278   0.99784  -0.03899
           Z           -0.00813   0.03861   0.99922
 This molecule is an asymmetric top.
 Rotational symmetry number  1.
 Warning -- assumption of classical behavior for rotation
           may cause significant error
 Rotational temperatures (Kelvin)      0.03697     0.02382     0.01905
 Rotational constants (GHZ):           0.77033     0.49623     0.39684
 Zero-point vibrational energy     709869.3 (Joules/Mol)
                                  169.66283 (Kcal/Mol)
 Warning -- explicit consideration of  24 degrees of freedom as
           vibrations may cause significant error
 Vibrational temperatures:     59.89    91.36   128.57   146.81   168.17
          (Kelvin)            175.82   228.99   252.83   298.59   305.59
                              354.24   381.56   398.62   403.68   445.85
                              477.47   508.54   577.10   586.32   665.83
                              739.63   807.04   823.26   878.86   936.36
                              998.56  1042.31  1092.16  1118.86  1179.28
                             1218.14  1252.62  1291.64  1338.98  1347.36
                             1387.07  1428.41  1450.31  1469.22  1493.45
                             1542.47  1576.62  1585.42  1609.67  1615.20
                             1666.03  1694.08  1766.46  1822.95  1831.79
                             1850.93  1859.83  1873.90  1889.51  1909.24
                             1918.06  1941.84  1966.42  1989.13  2014.45
                             2058.31  2072.37  2083.98  2147.29  2177.35
                             2183.49  2192.83  2199.22  2201.00  2205.41
                             2218.78  2220.79  2695.35  4343.94  4376.05
                             4394.27  4423.58  4424.22  4435.15  4450.18
                             4480.96  4483.80  4490.38  4528.57  4530.26
                             4533.63  4549.15  4554.48  4597.52  4629.64

 Zero-point correction=                           0.270375 (Hartree/Particle)
 Thermal correction to Energy=                    0.286075
 Thermal correction to Enthalpy=                  0.287019
 Thermal correction to Gibbs Free Energy=         0.227727
 Sum of electronic and zero-point Energies=          -1106.770144
 Sum of electronic and thermal Energies=             -1106.754444
 Sum of electronic and thermal Enthalpies=           -1106.753500
 Sum of electronic and thermal Free Energies=        -1106.812792

                     E (Thermal)             CV                S
                      KCal/Mol        Cal/Mol-Kelvin    Cal/Mol-Kelvin
 Total                  179.515             59.133            124.790
 Electronic               0.000              0.000              0.000
 Translational            0.889              2.981             42.266
 Rotational               0.889              2.981             32.027
 Vibrational            177.737             53.171             50.497
 Vibration     1          0.594              1.981              5.180
 Vibration     2          0.597              1.972              4.345
 Vibration     3          0.602              1.957              3.674
 Vibration     4          0.604              1.948              3.415
 Vibration     5          0.608              1.935              3.151
 Vibration     6          0.610              1.931              3.065
 Vibration     7          0.621              1.892              2.560
 Vibration     8          0.628              1.872              2.373
 Vibration     9          0.641              1.829              2.065
 Vibration    10          0.643              1.822              2.023
 Vibration    11          0.661              1.769              1.758
 Vibration    12          0.671              1.737              1.627
 Vibration    13          0.678              1.716              1.552
 Vibration    14          0.680              1.710              1.530
 Vibration    15          0.699              1.655              1.363
 Vibration    16          0.714              1.612              1.251
 Vibration    17          0.730              1.568              1.151
 Vibration    18          0.767              1.468              0.959
 Vibration    19          0.772              1.454              0.935
 Vibration    20          0.820              1.333              0.758
 Vibration    21          0.869              1.219              0.624
 Vibration    22          0.917              1.116              0.522
 Vibration    23          0.928              1.091              0.500
 Vibration    24          0.970              1.009              0.431

 Optimization completed.
    -- Stationary point found.
 Normal termination of Gaussian 16 at Thu Dec 10 17:31:09 2020.

 ----------------------------------------------------------------------
 # B3LYP/6-311++G(d,p) empiricaldispersion=gd3bj scf=xqc pop=npa geom=c
 heck
 ----------------------------------------------------------------------

 --------------------------------------
 CID_61458092_JID_5771_Energie_neutraal
 --------------------------------------
 Structure from the checkpoint file:  "JID_5771.chk"
 Charge =  0 Multiplicity = 1

 SCF Done:  E(RB3LYP) =  -1107.28033295     A.U. after   15 cycles
 Normal termination of Gaussian 16 at Thu Dec 10 17:37:58 2020.

 ----------------------------------------------------------------------
 # B3LYP/6-311++G(d,p) empiricaldispersion=gd3bj scf=xqc pop=npa geom=c
 heck
 ----------------------------------------------------------------------

 ------------------------------------
 CID_61458092_JID_5771_Energie_kation
 ------------------------------------
 Structure from the checkpoint file:  "JID_5771.chk"
 Charge =  1 Multiplicity = 2

 SCF Done:  E(UB3LYP) =  -1106.92735544     A.U. after   26 cycles
 Normal termination of Gaussian 16 at Thu Dec 10 17:53:30 2020.
 Gaussian 16:  ES64L-G16RevA.03 25-Dec-2016

 ----------------------------------------------------------------------
 # B3LYP/6-311++G(d,p) empiricaldispersion=gd3bj scf=xqc pop=npa geom=c
 heck
 ----------------------------------------------------------------------

 -----------------------------------
 CID_61458092_JID_5771_Energie_anion
 -----------------------------------
 Structure from the checkpoint file:  "JID_5771.chk"
 Charge = -1 Multiplicity = 2

                         Standard orientation:
 ---------------------------------------------------------------------
 Center     Atomic      Atomic             Coordinates (Angstroms)
 Number     Number       Type             X           Y           Z
 ---------------------------------------------------------------------
      1          6           0        0.965501    3.002471    0.078122
      2          6           0        1.961298    1.932752   -0.372212
      3          6           0        1.925149    0.644901    0.444677
      4          6           0        2.958931   -0.422039    0.054820
      5          6           0        2.480488   -1.709752    0.764772
      6          6           0        1.067777   -1.362119    1.290949
      7          7           0        0.628040   -0.134360    0.556047
      8         16           0       -0.219676   -0.535661   -0.909698
      9          8           0       -0.140088    0.612278   -1.813765
     10          8           0        0.168585   -1.875264   -1.370634
     11          6           0       -1.956720   -0.617011   -0.320224
     12          6           0       -2.257146   -1.855940    0.530319
     13          6           0       -2.462475    0.653287    0.390717
     14          8           0       -3.586283    1.043381    0.191379
     15          8           0       -1.651901    1.211222    1.296737
     16          1           0       -0.065410    2.700636   -0.115483
     17          1           0        1.143886    3.938243   -0.461286
     18          1           0        1.062301    3.212529    1.150642
     19          1           0        1.834246    1.716285   -1.433643
     20          1           0        2.984243    2.313236   -0.244785
     21          1           0        2.097236    0.925702    1.493632
     22          1           0        2.956497   -0.550610   -1.032913
     23          1           0        3.967773   -0.120701    0.351206
     24          1           0        2.429223   -2.547180    0.066817
     25          1           0        3.137943   -1.994855    1.591068
     26          1           0        0.354254   -2.171850    1.159700
     27          1           0        1.086709   -1.089022    2.350581
     28          1           0       -2.494723   -0.675575   -1.270435
     29          1           0       -1.876330   -2.757758    0.045148
     30          1           0       -1.827418   -1.770213    1.531980
     31          1           0       -3.342239   -1.941256    0.636414
     32          1           0       -0.748980    0.791239    1.242809
 ---------------------------------------------------------------------

 SCF Done:  E(UB3LYP) =  -1107.27381771     A.U. after   31 cycles

 The electronic state is 2-A.
 Alpha  occ. eigenvalues --  -88.98312 -19.07260 -19.04351 -19.04275 -19.02854
 Alpha  occ. eigenvalues --  -14.27469 -10.22834 -10.15065 -10.12708 -10.11781
 Alpha  occ. eigenvalues --  -10.10228 -10.07889 -10.07818 -10.07665 -10.06482
 Alpha  occ. eigenvalues --   -8.04592  -6.00856  -6.00829  -6.00666  -1.04303
 Alpha  occ. eigenvalues --   -1.01778  -0.94034  -0.93479  -0.86348  -0.74194
 Alpha  occ. eigenvalues --   -0.70412  -0.68528  -0.62690  -0.61264  -0.57436
 Alpha  occ. eigenvalues --   -0.53498  -0.52964  -0.50358  -0.49566  -0.44801
 Alpha  occ. eigenvalues --   -0.43237  -0.41189  -0.39773  -0.39187  -0.38106
 Alpha  occ. eigenvalues --   -0.37493  -0.37052  -0.36399  -0.33872  -0.33115
 Alpha  occ. eigenvalues --   -0.32490  -0.32422  -0.31558  -0.31238  -0.29978
 Alpha  occ. eigenvalues --   -0.28916  -0.26938  -0.26648  -0.26344  -0.25809
 Alpha  occ. eigenvalues --   -0.24988  -0.24124  -0.23767  -0.23376  -0.23169
 Alpha  occ. eigenvalues --   -0.22394  -0.19999  -0.18739   0.04046
 Alpha virt. eigenvalues --    0.06088   0.07051   0.07537   0.08091   0.08864
 Alpha virt. eigenvalues --    0.09094   0.10027   0.10127   0.10656   0.11236
 Alpha virt. eigenvalues --    0.11784   0.12167   0.12463   0.12901   0.13402

  Beta  occ. eigenvalues --  -88.98308 -19.07238 -19.04344 -19.04271 -19.02843
  Beta  occ. eigenvalues --  -14.27472 -10.22826 -10.15061 -10.12681 -10.11737
  Beta  occ. eigenvalues --  -10.10186 -10.07870 -10.07808 -10.07640 -10.06468
  Beta  occ. eigenvalues --   -8.04589  -6.00846  -6.00826  -6.00664  -1.04289
  Beta  occ. eigenvalues --   -1.01748  -0.94004  -0.93468  -0.86325  -0.74166
  Beta  occ. eigenvalues --   -0.70378  -0.68481  -0.62635  -0.61210  -0.57380
  Beta  occ. eigenvalues --   -0.53453  -0.52929  -0.50307  -0.49516  -0.44757
  Beta  occ. eigenvalues --   -0.43213  -0.41152  -0.39727  -0.39130  -0.38050
  Beta  occ. eigenvalues --   -0.37462  -0.37021  -0.36374  -0.33839  -0.33073
  Beta  occ. eigenvalues --   -0.32448  -0.32384  -0.31521  -0.31192  -0.29939
  Beta  occ. eigenvalues --   -0.28884  -0.26914  -0.26604  -0.26308  -0.25776
  Beta  occ. eigenvalues --   -0.24969  -0.24084  -0.23732  -0.23324  -0.23141
  Beta  occ. eigenvalues --   -0.22373  -0.19976  -0.18717
  Beta virt. eigenvalues --    0.06435   0.07029   0.07444   0.08133   0.08513
  Beta virt. eigenvalues --    0.09322   0.09487   0.10421   0.10578   0.10871
  Beta virt. eigenvalues --    0.11477   0.12209   0.12451   0.12739   0.13132

 Mulliken charges and spin densities:
               1          2
     1  C   -0.207944  -0.453999
     2  C   -0.749649   0.524919
     3  C    0.224269  -0.268796
     4  C   -0.117239  -0.290550
     5  C    1.007541  -1.478466
     6  C    0.323814  -0.548715
     7  N   -0.305602   0.145435
     8  S    1.162830  -1.225204
     9  O   -0.045303   0.023797
    10  O   -0.090144   0.041983
    11  C   -1.446483   1.172449
    12  C    1.005711  -1.507886
    13  C   -0.092428  -0.045657
    14  O   -0.238117  -0.003577
    15  O   -0.118282  -0.018345
    16  H    0.261215  -0.025358
    17  H    0.023423   0.105721
    18  H   -0.070740   0.213383
    19  H    0.175896  -0.000398
    20  H   -0.242525   0.408557
    21  H   -0.274510   0.514404
    22  H    0.249346  -0.065549
    23  H   -0.444992   0.633560
    24  H    0.047328   0.119042
    25  H   -0.476862   0.659556
    26  H    0.320689  -0.114168
    27  H   -0.936411   1.179779
    28  H    0.247839   0.082866
    29  H   -0.101442   0.296633
    30  H   -0.415722   0.613015
    31  H   -0.139022   0.319657
    32  H    0.463512  -0.008089
 Sum of Mulliken charges =  -1.00000   1.00000

 Dipole moment (field-independent basis, Debye):
    X=             -2.4336    Y=              0.1822    Z=             -6.1662  Tot=              6.6315
 Quadrupole moment (field-independent basis, Debye-Ang):
   XX=           -166.5467   YY=           -141.4784   ZZ=           -148.6191
   XY=              3.3182   XZ=            -11.7440   YZ=              3.0101

 Summary of Natural Population Analysis:

                                       Natural Population
                Natural  -----------------------------------------------
    Atom  No    Charge         Core      Valence    Rydberg      Total
 -----------------------------------------------------------------------
      C    1   -0.28644      0.99966     2.28138    0.00541     3.28644
      C    2   -0.19797      0.99959     2.18974    0.00864     3.19797
      C    3   -0.00362      0.99955     1.98741    0.01665     3.00362
      C    4   -0.19557      0.99960     2.18728    0.00869     3.19557
      C    5   -0.19842      0.99963     2.19042    0.00837     3.19842
      C    6   -0.09150      0.99960     2.07874    0.01316     3.09150
      N    7   -0.39672      0.99975     2.87650    0.02047     3.89672
      S    8    1.09708      4.99919     1.80648    0.09725     6.90292
      O    9   -0.45787      0.99991     3.45207    0.00589     4.45787
      O   10   -0.45655      0.99991     3.45117    0.00547     4.45655
      C   11   -0.25224      0.99951     2.23745    0.01528     3.25224
      C   12   -0.29441      0.99963     2.28793    0.00684     3.29441
      C   13    0.40101      0.99967     1.57126    0.02806     2.59899
      O   14   -0.29305      0.99987     3.28698    0.00620     4.29305
      O   15   -0.34346      0.99986     3.33757    0.00603     4.34346
      H   16    0.10384      0.00000     0.39499    0.00117     0.39616
      H   17    0.09730      0.00000     0.40206    0.00064     0.40270
      H   18    0.09821      0.00000     0.40092    0.00087     0.40179
      H   19    0.10824      0.00000     0.39051    0.00125     0.39176
      H   20    0.10217      0.00000     0.39680    0.00104     0.39783
      H   21    0.10615      0.00000     0.38931    0.00454     0.39385
      H   22    0.09845      0.00000     0.40033    0.00123     0.40155
      H   23    0.10998      0.00000     0.38838    0.00164     0.39002
      H   24    0.10432      0.00000     0.39450    0.00118     0.39568
      H   25    0.10798      0.00000     0.38945    0.00257     0.39202
      H   26    0.10758      0.00000     0.39073    0.00169     0.39242
      H   27    0.10938      0.00000     0.38500    0.00561     0.39062
      H   28    0.12702      0.00000     0.37180    0.00118     0.37298
      H   29    0.11457      0.00000     0.38423    0.00120     0.38543
      H   30    0.10829      0.00000     0.38995    0.00176     0.39171
      H   31    0.11235      0.00000     0.38661    0.00104     0.38765
      H   32    0.25389      0.00000     0.24145    0.00466     0.24611
 =======================================================================
   * Total *   -0.00000     18.99492    43.71940    0.28568    63.00000

 Normal termination of Gaussian 16 at Thu Dec 10 18:09:43 2020.
