 Gaussian 16, Revision A.03,

 -----------------------------------------------------------
 # opt freq B3LYP/6-31G(d) empiricaldispersion=gd3bj scf=xqc
 -----------------------------------------------------------

 -------------------------------
 CID_150880677_JID_2484_neutraal
 -------------------------------
 Symbolic Z-matrix:
 Charge =  0 Multiplicity = 1

 SCF Done:  E(RB3LYP) =  -903.479251175     A.U. after   18 cycles
 SCF Done:  E(RB3LYP) =  -903.485954389     A.U. after   15 cycles
 SCF Done:  E(RB3LYP) =  -903.487424484     A.U. after   14 cycles
 SCF Done:  E(RB3LYP) =  -903.487680085     A.U. after   13 cycles
 SCF Done:  E(RB3LYP) =  -903.487723920     A.U. after   12 cycles
 SCF Done:  E(RB3LYP) =  -903.487727585     A.U. after   10 cycles
 SCF Done:  E(RB3LYP) =  -903.487728642     A.U. after   10 cycles
 SCF Done:  E(RB3LYP) =  -903.487731803     A.U. after   11 cycles
 SCF Done:  E(RB3LYP) =  -903.487760192     A.U. after   14 cycles
 SCF Done:  E(RB3LYP) =  -903.430030663     A.U. after   17 cycles
 SCF Done:  E(RB3LYP) =  -903.493310224     A.U. after   14 cycles
 SCF Done:  E(RB3LYP) =  -903.493341665     A.U. after   14 cycles
 SCF Done:  E(RB3LYP) =  -903.493362954     A.U. after   13 cycles
 SCF Done:  E(RB3LYP) =  -903.493363869     A.U. after    9 cycles
 SCF Done:  E(RB3LYP) =  -903.493364071     A.U. after    8 cycles
 SCF Done:  E(RB3LYP) =  -903.493364119     A.U. after    9 cycles
 Optimization completed.
    -- Stationary point found.
 Normal termination of Gaussian 16 at Wed Dec  9 17:28:56 2020.

 --------------------------------------------------------------------
 #N Geom=AllCheck Guess=TCheck SCRF=Check GenChk RB3LYP/6-31G(d) Freq
 --------------------------------------------------------------------

 Structure from the checkpoint file:  "JID_2484.chk"
 -------------------------------
 CID_150880677_JID_2484_neutraal
 -------------------------------
 Charge =  0 Multiplicity = 1

 SCF Done:  E(RB3LYP) =  -903.493364119     A.U. after    1 cycles

  Exact polarizability: 161.047   5.883 108.840   3.600   1.221  58.670
 Approx polarizability: 244.956  26.671 206.889  14.368   9.477 108.334

                      1                      2                      3
                      A                      A                      A
 Frequencies --     29.4202                52.6177               137.9334
 Red. masses --     10.2296                 6.1157                 5.3590
 Frc consts  --      0.0052                 0.0100                 0.0601
 IR Inten    --      0.0151                 0.4183                 1.5771

                      4                      5                      6
                      A                      A                      A
 Frequencies --    183.6961               239.1493               273.4010
 Red. masses --      5.6786                 3.1081                 9.8073
 Frc consts  --      0.1129                 0.1047                 0.4319
 IR Inten    --      3.8000                 7.2485                 1.3244

                      7                      8                      9
                      A                      A                      A
 Frequencies --    288.6206               375.6399               408.1470
 Red. masses --      5.9227                10.6045                 6.9010
 Frc consts  --      0.2907                 0.8816                 0.6773
 IR Inten    --      6.7628                 1.8062                 6.2222

                     10                     11                     12
                      A                      A                      A
 Frequencies --    462.5746               534.6583               537.0337
 Red. masses --      4.5202                 5.6965                 6.3811
 Frc consts  --      0.5699                 0.9594                 1.0843
 IR Inten    --     11.3445                 2.4988                 0.5331

                     13                     14                     15
                      A                      A                      A
 Frequencies --    562.7358               622.0545               668.1157
 Red. masses --     12.4786                 7.9186                 9.0730
 Frc consts  --      2.3282                 1.8053                 2.3862
 IR Inten    --      6.8675                12.4142                 2.4207

                     16                     17                     18
                      A                      A                      A
 Frequencies --    696.3710               734.2526               752.5173
 Red. masses --      2.3884                 5.0245                 2.0133
 Frc consts  --      0.6824                 1.5960                 0.6717
 IR Inten    --      5.3709                 8.7385                 8.4800

                     19                     20                     21
                      A                      A                      A
 Frequencies --    782.8532               797.7403               835.8613
 Red. masses --      2.4572                 2.1557                 6.4453
 Frc consts  --      0.8873                 0.8083                 2.6532
 IR Inten    --      9.9799                36.4854                19.7669

                     22                     23                     24
                      A                      A                      A
 Frequencies --    893.7211               918.5257              1007.6524
 Red. masses --      4.7709                 1.2582                 2.2073
 Frc consts  --      2.2452                 0.6254                 1.3205
 IR Inten    --     34.9028                 2.8627                27.8618

                     25                     26                     27
                      A                      A                      A
 Frequencies --   1033.5093              1115.1320              1131.8807
 Red. masses --      3.6776                 1.8778                 3.2072
 Frc consts  --      2.3144                 1.3758                 2.4209
 IR Inten    --     11.5252                 7.2656                 3.7021

                     28                     29                     30
                      A                      A                      A
 Frequencies --   1196.6490              1213.9867              1258.9569
 Red. masses --      3.3765                 3.8962                 1.3460
 Frc consts  --      2.8487                 3.3832                 1.2569
 IR Inten    --     22.7256                55.2865                15.9975

                     31                     32                     33
                      A                      A                      A
 Frequencies --   1264.5196              1287.3159              1336.8721
 Red. masses --      1.7486                 1.8131                 1.7157
 Frc consts  --      1.6474                 1.7703                 1.8067
 IR Inten    --     16.2880                40.1406                10.7557

                     34                     35                     36
                      A                      A                      A
 Frequencies --   1422.3082              1463.2108              1495.0784
 Red. masses --      2.0750                 2.4868                 6.3542
 Frc consts  --      2.4731                 3.1369                 8.3683
 IR Inten    --      6.2491                21.6606                30.2290

                     37                     38                     39
                      A                      A                      A
 Frequencies --   1539.8248              1570.6146              1682.9062
 Red. masses --      1.1895                 5.6820                 6.1445
 Frc consts  --      1.6617                 8.2583                10.2531
 IR Inten    --      5.0400                17.0902                76.0527

                     40                     41                     42
                      A                      A                      A
 Frequencies --   2230.0483              2944.3028              3082.8515
 Red. masses --     13.9875                 1.0735                 1.0889
 Frc consts  --     40.9845                 5.4832                 6.0972
 IR Inten    --    495.1586                70.8114                18.4140

                     43                     44                     45
                      A                      A                      A
 Frequencies --   3240.7610              3250.0238              3257.6572
 Red. masses --      1.0877                 1.0941                 1.0988
 Frc consts  --      6.7309                 6.8090                 6.8702
 IR Inten    --      1.7743                 0.6567                 3.6157

 - Thermochemistry -
 -------------------
 Temperature   298.150 Kelvin.  Pressure   1.00000 Atm.
 Atom     1 has atomic number  6 and mass  12.00000

 Molecular mass:   179.02657 amu.
 Principal axes and moments of inertia in atomic units:
                           1         2         3
     Eigenvalues --   885.051963678.550434370.50624
           X            0.99999  -0.00186  -0.00385
           Y            0.00183   0.99997  -0.00766
           Z            0.00387   0.00765   0.99996
 This molecule is an asymmetric top.
 Rotational symmetry number  1.
 Warning -- assumption of classical behavior for rotation
           may cause significant error
 Rotational temperatures (Kelvin)      0.09786     0.02355     0.01982
 Rotational constants (GHZ):           2.03914     0.49061     0.41294
 Zero-point vibrational energy     303933.4 (Joules/Mol)
                                   72.64183 (Kcal/Mol)
 Warning -- explicit consideration of  13 degrees of freedom as
           vibrations may cause significant error
 Vibrational temperatures:     42.33    75.71   198.46   264.30   344.08
          (Kelvin)            393.36   415.26   540.46   587.23   665.54
                              769.25   772.67   809.65   895.00   961.27
                             1001.92  1056.43  1082.70  1126.35  1147.77
                             1202.62  1285.87  1321.55  1449.79  1486.99
                             1604.43  1628.52  1721.71  1746.66  1811.36
                             1819.36  1852.16  1923.46  2046.38  2105.23
                             2151.08  2215.46  2259.76  2421.33  3208.54
                             4236.20  4435.54  4662.73  4676.06  4687.04

 Zero-point correction=                           0.115762 (Hartree/Particle)
 Thermal correction to Energy=                    0.125553
 Thermal correction to Enthalpy=                  0.126497
 Thermal correction to Gibbs Free Energy=         0.078749
 Sum of electronic and zero-point Energies=           -903.377602
 Sum of electronic and thermal Energies=              -903.367811
 Sum of electronic and thermal Enthalpies=            -903.366867
 Sum of electronic and thermal Free Energies=         -903.414615

                     E (Thermal)             CV                S
                      KCal/Mol        Cal/Mol-Kelvin    Cal/Mol-Kelvin
 Total                   78.786             36.463            100.495
 Electronic               0.000              0.000              0.000
 Translational            0.889              2.981             41.454
 Rotational               0.889              2.981             31.032
 Vibrational             77.008             30.502             28.010
 Vibration     1          0.593              1.984              5.868
 Vibration     2          0.596              1.977              4.716
 Vibration     3          0.614              1.915              2.832
 Vibration     4          0.631              1.862              2.291
 Vibration     5          0.657              1.781              1.809
 Vibration     6          0.676              1.722              1.575
 Vibration     7          0.685              1.695              1.482
 Vibration     8          0.746              1.522              1.057
 Vibration     9          0.773              1.453              0.933
 Vibration    10          0.820              1.333              0.759
 Vibration    11          0.890              1.173              0.577
 Vibration    12          0.892              1.168              0.572
 Vibration    13          0.918              1.112              0.518

 Optimization completed.
    -- Stationary point found.
 Normal termination of Gaussian 16 at Wed Dec  9 17:32:20 2020.

 ----------------------------------------------------------------------
 # B3LYP/6-311++G(d,p) empiricaldispersion=gd3bj scf=xqc pop=npa geom=c
 heck
 ----------------------------------------------------------------------

 ---------------------------------------
 CID_150880677_JID_2484_Energie_neutraal
 ---------------------------------------
 Structure from the checkpoint file:  "JID_2484.chk"
 Charge =  0 Multiplicity = 1

 SCF Done:  E(RB3LYP) =  -903.653477461     A.U. after   18 cycles
 Normal termination of Gaussian 16 at Wed Dec  9 17:35:25 2020.

 ----------------------------------------------------------------------
 # B3LYP/6-311++G(d,p) empiricaldispersion=gd3bj scf=xqc pop=npa geom=c
 heck
 ----------------------------------------------------------------------

 -------------------------------------
 CID_150880677_JID_2484_Energie_kation
 -------------------------------------
 Structure from the checkpoint file:  "JID_2484.chk"
 Charge =  1 Multiplicity = 2

 SCF Done:  E(UB3LYP) =  -903.377988607     A.U. after   21 cycles
 Normal termination of Gaussian 16 at Wed Dec  9 17:40:13 2020.
 Gaussian 16:  ES64L-G16RevA.03 25-Dec-2016

 ----------------------------------------------------------------------
 # B3LYP/6-311++G(d,p) empiricaldispersion=gd3bj scf=xqc pop=npa geom=c
 heck
 ----------------------------------------------------------------------

 ------------------------------------
 CID_150880677_JID_2484_Energie_anion
 ------------------------------------
 Structure from the checkpoint file:  "JID_2484.chk"
 Charge = -1 Multiplicity = 2

                         Standard orientation:
 ---------------------------------------------------------------------
 Center     Atomic      Atomic             Coordinates (Angstroms)
 Number     Number       Type             X           Y           Z
 ---------------------------------------------------------------------
      1          6           0       -0.491378   -0.711894    0.630433
      2          6           0        0.901982   -0.385904    0.177133
      3          6           0        1.311979    0.904869   -0.058963
      4          6           0        0.347017    1.987461    0.003012
      5          6           0       -0.956216    1.659135    0.096422
      6          7           0       -1.385339    0.321714    0.072138
      7          7           0       -2.719555    0.173321    0.591583
      8          7           0       -3.446138   -0.450252   -0.221581
      9          7           0       -4.232181   -1.015176   -0.819476
     10          7           0        2.651452    1.059949   -0.360656
     11          6           0        3.256162   -0.088816   -0.343095
     12         16           0        2.242558   -1.473176    0.040776
     13          1           0       -0.564020   -0.733184    1.734051
     14          1           0       -0.829098   -1.684731    0.259168
     15          1           0        0.669331    3.017995   -0.066782
     16          1           0       -1.761991    2.382351    0.110496
     17          1           0        4.309895   -0.227612   -0.553068
 ---------------------------------------------------------------------

 SCF Done:  E(UB3LYP) =  -903.663754743     A.U. after   32 cycles

 The electronic state is 2-A.
 Alpha  occ. eigenvalues --  -88.75383 -14.27857 -14.22147 -14.21448 -14.19713
 Alpha  occ. eigenvalues --  -14.18887 -10.09981 -10.08999 -10.07321 -10.07133
 Alpha  occ. eigenvalues --  -10.06434 -10.03387  -7.84028  -5.80292  -5.79963
 Alpha  occ. eigenvalues --   -5.79659  -0.96839  -0.86081  -0.83551  -0.75687
 Alpha  occ. eigenvalues --   -0.67873  -0.65196  -0.61927  -0.54281  -0.48515
 Alpha  occ. eigenvalues --   -0.46296  -0.42561  -0.38546  -0.37442  -0.35964
 Alpha  occ. eigenvalues --   -0.33269  -0.32863  -0.31545  -0.29944  -0.28949
 Alpha  occ. eigenvalues --   -0.28041  -0.27880  -0.26567  -0.22727  -0.21721
 Alpha  occ. eigenvalues --   -0.18429  -0.15890  -0.15411  -0.12775  -0.10560
 Alpha  occ. eigenvalues --   -0.05977   0.05115
 Alpha virt. eigenvalues --    0.07938   0.08605   0.09686   0.10250   0.11522
 Alpha virt. eigenvalues --    0.12030   0.12618   0.13055   0.14110   0.14654
 Alpha virt. eigenvalues --    0.15629   0.16691   0.17045   0.17349   0.17828

  Beta  occ. eigenvalues --  -88.75352 -14.27349 -14.21903 -14.21498 -14.18994
  Beta  occ. eigenvalues --  -14.18889 -10.09785 -10.08999 -10.07245 -10.07106
  Beta  occ. eigenvalues --  -10.06250 -10.03401  -7.84000  -5.80278  -5.79952
  Beta  occ. eigenvalues --   -5.79554  -0.95865  -0.85629  -0.83385  -0.75262
  Beta  occ. eigenvalues --   -0.67649  -0.64939  -0.61732  -0.53993  -0.48191
  Beta  occ. eigenvalues --   -0.46097  -0.42117  -0.38326  -0.37267  -0.35065
  Beta  occ. eigenvalues --   -0.32647  -0.31958  -0.30986  -0.29667  -0.27989
  Beta  occ. eigenvalues --   -0.27628  -0.27368  -0.26138  -0.22397  -0.20837
  Beta  occ. eigenvalues --   -0.17487  -0.15513  -0.15252  -0.12104  -0.10277
  Beta  occ. eigenvalues --   -0.05513
  Beta virt. eigenvalues --    0.08574   0.09299   0.09414   0.10227   0.11733
  Beta virt. eigenvalues --    0.12137   0.12599   0.12750   0.13789   0.14236
  Beta virt. eigenvalues --    0.14613   0.15698   0.16843   0.17231   0.17356

 Mulliken charges and spin densities:
               1          2
     1  C   -0.084544  -0.241458
     2  C    0.994170   0.343378
     3  C   -1.242214  -0.130550
     4  C   -0.296952   0.075418
     5  C   -0.216315  -0.117072
     6  N    0.209552   0.088345
     7  N   -0.412609  -0.092224
     8  N    0.351789   0.158622
     9  N   -0.367839   0.465304
    10  N   -0.015361  -0.003422
    11  C    0.142997   0.140822
    12  S   -0.639836   0.056731
    13  H   -0.028616   0.147544
    14  H    0.200579  -0.013805
    15  H    0.114887   0.039052
    16  H    0.069507   0.092734
    17  H    0.220806  -0.009417
 Sum of Mulliken charges =  -1.00000   1.00000

 Dipole moment (field-independent basis, Debye):
    X=              5.2325    Y=             -0.3732    Z=              0.7453  Tot=              5.2985
 Quadrupole moment (field-independent basis, Debye-Ang):
   XX=           -130.9665   YY=            -88.2409   ZZ=            -89.1290
   XY=            -11.3955   XZ=             -3.2675   YZ=             -1.7535

 Summary of Natural Population Analysis:

                                       Natural Population
                Natural  -----------------------------------------------
    Atom  No    Charge         Core      Valence    Rydberg      Total
 -----------------------------------------------------------------------
      C    1   -0.09067      0.99956     2.07767    0.01344     3.09067
      C    2   -0.09344      0.99941     2.08173    0.01231     3.09344
      C    3    0.04666      0.99938     1.93755    0.01641     2.95334
      C    4   -0.16787      0.99952     2.15674    0.01162     3.16787
      C    5    0.03923      0.99953     1.94876    0.01248     2.96077
      N    6   -0.15005      0.99966     2.63731    0.01309     3.65005
      N    7   -0.16740      0.99973     2.65142    0.01625     3.66740
      N    8    0.14894      0.99971     2.33478    0.01657     3.35106
      N    9    0.04587      0.99982     2.44115    0.01316     3.45413
      N   10   -0.23776      0.99967     2.72705    0.01105     3.73776
      C   11   -0.02693      0.99967     2.01096    0.01630     3.02693
      S   12    0.18043      4.99944     2.79918    0.02096     7.81957
      H   13    0.08503      0.00000     0.41080    0.00417     0.41497
      H   14    0.09853      0.00000     0.40018    0.00129     0.40147
      H   15    0.10309      0.00000     0.39509    0.00182     0.39691
      H   16    0.09804      0.00000     0.40032    0.00164     0.40196
      H   17    0.08832      0.00000     0.41044    0.00125     0.41168
 =======================================================================
   * Total *   -0.00000     15.99508    29.82112    0.18380    46.00000

 Normal termination of Gaussian 16 at Wed Dec  9 17:45:24 2020.
