 Gaussian 16, Revision A.03,

 -----------------------------------------------------------
 # opt freq B3LYP/6-31G(d) empiricaldispersion=gd3bj scf=xqc
 -----------------------------------------------------------

 ------------------------------
 CID_89755704_JID_2409_neutraal
 ------------------------------
 Symbolic Z-matrix:
 Charge =  0 Multiplicity = 1

 SCF Done:  E(RB3LYP) =  -578.267670409     A.U. after   14 cycles
 SCF Done:  E(RB3LYP) =  -578.273303647     A.U. after   13 cycles
 SCF Done:  E(RB3LYP) =  -578.272400874     A.U. after   13 cycles
 SCF Done:  E(RB3LYP) =  -578.274819001     A.U. after   12 cycles
 SCF Done:  E(RB3LYP) =  -578.275738920     A.U. after   12 cycles
 SCF Done:  E(RB3LYP) =  -578.277389383     A.U. after   13 cycles
 SCF Done:  E(RB3LYP) =  -578.278760943     A.U. after   13 cycles
 SCF Done:  E(RB3LYP) =  -578.280350404     A.U. after   13 cycles
 SCF Done:  E(RB3LYP) =  -578.281155770     A.U. after   13 cycles
 SCF Done:  E(RB3LYP) =  -578.281546607     A.U. after   13 cycles
 SCF Done:  E(RB3LYP) =  -578.281654552     A.U. after    7 cycles
 SCF Done:  E(RB3LYP) =  -578.281654826     A.U. after    8 cycles
 SCF Done:  E(RB3LYP) =  -578.281654991     A.U. after    8 cycles
 SCF Done:  E(RB3LYP) =  -578.281655071     A.U. after    7 cycles
 SCF Done:  E(RB3LYP) =  -578.281655102     A.U. after    7 cycles
 Optimization completed.
    -- Stationary point found.

 1\1\GINC-NODE307\FOpt\RB3LYP\6-31G(d)\C9H16O3\VSC10255\09-Dec-2020\0\\
 # opt freq B3LYP/6-31G(d) empiricaldispersion=gd3bj scf=xqc\\CID_89755
 704_JID_2409_neutraal\\0,1\C,0.9686461188,0.8338745336,0.4063760683\C,
 1.1720593177,1.9176166164,-0.6560667618\C,0.978082162,1.4198969881,-2.
 0973222461\C,-0.4511885162,0.9936254004,-2.4789362438\C,-1.4407296468,
 2.1416967157,-2.4804272667\C,-1.4749835771,3.1001757213,-3.5926538112\
 O,-2.4856740482,2.0883956445,-3.4795029219\C,-1.9986477323,2.643544718
 8,-1.1628632751\O,-2.2731359165,3.7994633718,-0.9220506618\O,-2.194797

 Normal termination of Gaussian 16 at Wed Dec  9 17:21:59 2020.

 --------------------------------------------------------------------
 #N Geom=AllCheck Guess=TCheck SCRF=Check GenChk RB3LYP/6-31G(d) Freq
 --------------------------------------------------------------------

 Structure from the checkpoint file:  "JID_2409.chk"
 ------------------------------
 CID_89755704_JID_2409_neutraal
 ------------------------------
 Charge =  0 Multiplicity = 1

 SCF Done:  E(RB3LYP) =  -578.281655102     A.U. after    1 cycles

  Exact polarizability: 115.686   3.755  98.307  -1.640  -4.656  86.850
 Approx polarizability: 144.259   5.561 133.110  -3.549  -9.000 139.211

                      1                      2                      3
                      A                      A                      A
 Frequencies --     28.0199                42.4017                69.4571
 Red. masses --      3.8499                 3.3348                 3.5334
 Frc consts  --      0.0018                 0.0035                 0.0100
 IR Inten    --      0.9050                 0.6392                 0.3558

                      4                      5                      6
                      A                      A                      A
 Frequencies --     76.8278               123.4871               135.4008
 Red. masses --      2.5303                 3.2699                 2.8944
 Frc consts  --      0.0088                 0.0294                 0.0313
 IR Inten    --      0.8352                 1.2598                 0.7761

                      7                      8                      9
                      A                      A                      A
 Frequencies --    160.4596               197.9432               219.1159
 Red. masses --      2.0292                 2.7673                 1.4835
 Frc consts  --      0.0308                 0.0639                 0.0420
 IR Inten    --      0.5230                 1.7659                 0.5647

                     10                     11                     12
                      A                      A                      A
 Frequencies --    261.7772               294.0062               303.6041
 Red. masses --      1.4865                 2.2700                 3.1065
 Frc consts  --      0.0600                 0.1156                 0.1687
 IR Inten    --      1.3017                 2.0530                10.1456

                     13                     14                     15
                      A                      A                      A
 Frequencies --    315.3799               343.1298               379.8845
 Red. masses --      3.0969                 2.6947                 2.9405
 Frc consts  --      0.1815                 0.1869                 0.2500
 IR Inten    --      6.4149                 1.1976                 6.6083

                     16                     17                     18
                      A                      A                      A
 Frequencies --    416.1894               476.9113               524.1503
 Red. masses --      2.3307                 2.4398                 4.3955
 Frc consts  --      0.2379                 0.3269                 0.7115
 IR Inten    --      2.0397                 1.1225                 5.3832

                     19                     20                     21
                      A                      A                      A
 Frequencies --    577.9138               744.2127               772.9821
 Red. masses --      3.4204                 1.7235                 3.9201
 Frc consts  --      0.6731                 0.5624                 1.3800
 IR Inten    --      5.3636                25.0192                14.3219

                     22                     23                     24
                      A                      A                      A
 Frequencies --    799.8549               819.9049               823.8800
 Red. masses --      2.0720                 1.1305                 2.7775
 Frc consts  --      0.7810                 0.4478                 1.1108
 IR Inten    --      3.8977                 0.7540                 2.8802

                     25                     26                     27
                      A                      A                      A
 Frequencies --    881.0363               887.4203               892.0765
 Red. masses --      4.2637                 2.1840                 2.1227
 Frc consts  --      1.9499                 1.0133                 0.9953
 IR Inten    --      9.9633                11.4806                 6.5088

                     28                     29                     30
                      A                      A                      A
 Frequencies --    936.4675               940.0062               989.6837
 Red. masses --      1.6875                 2.1612                 1.8036
 Frc consts  --      0.8719                 1.1251                 1.0408
 IR Inten    --      5.5513                 5.4463                 1.5770

                     31                     32                     33
                      A                      A                      A
 Frequencies --   1001.9014              1061.0877              1090.7533
 Red. masses --      2.2333                 3.1208                 2.0163
 Frc consts  --      1.3208                 2.0702                 1.4134
 IR Inten    --     16.4699                40.9377                 7.2875

                     34                     35                     36
                      A                      A                      A
 Frequencies --   1101.8579              1136.2893              1148.0541
 Red. masses --      1.5966                 1.4041                 2.0673
 Frc consts  --      1.1421                 1.0681                 1.6054
 IR Inten    --      3.0054                 5.3006                24.1189

                     37                     38                     39
                      A                      A                      A
 Frequencies --   1152.1009              1165.3532              1191.3258
 Red. masses --      1.7963                 1.4084                 2.1294
 Frc consts  --      1.4048                 1.1269                 1.7806
 IR Inten    --      1.3600                 9.7428                88.9217

                     40                     41                     42
                      A                      A                      A
 Frequencies --   1193.5219              1233.0544              1272.9303
 Red. masses --      1.6031                 1.7586                 1.3976
 Frc consts  --      1.3455                 1.5754                 1.3342
 IR Inten    --     13.8732               173.3982                22.9252

                     43                     44                     45
                      A                      A                      A
 Frequencies --   1309.0572              1323.8237              1334.4523
 Red. masses --      1.1026                 2.6561                 1.2168
 Frc consts  --      1.1132                 2.7426                 1.2767
 IR Inten    --      0.9499               151.6844                 4.9805

                     46                     47                     48
                      A                      A                      A
 Frequencies --   1381.9168              1399.2192              1407.5121
 Red. masses --      1.4979                 1.6488                 1.3484
 Frc consts  --      1.6854                 1.9020                 1.5739
 IR Inten    --      1.6687                10.1658                 4.9234

                     49                     50                     51
                      A                      A                      A
 Frequencies --   1414.6800              1435.2227              1442.2406
 Red. masses --      1.3986                 2.0137                 1.2697
 Frc consts  --      1.6492                 2.4439                 1.5561
 IR Inten    --      0.4102                27.5166                 6.1832

                     52                     53                     54
                      A                      A                      A
 Frequencies --   1453.0821              1511.2996              1516.7415
 Red. masses --      1.4298                 1.0808                 1.0413
 Frc consts  --      1.7787                 1.4545                 1.4115
 IR Inten    --      4.5233                 1.3322                 3.8948

                     55                     56                     57
                      A                      A                      A
 Frequencies --   1521.3871              1525.4390              1526.1901
 Red. masses --      1.1075                 1.0533                 1.0510
 Frc consts  --      1.5103                 1.4441                 1.4423
 IR Inten    --     12.5433                 1.1593                 0.1355

                     58                     59                     60
                      A                      A                      A
 Frequencies --   1536.1984              1542.1465              1544.5004
 Red. masses --      1.0777                 1.3015                 1.0857
 Frc consts  --      1.4984                 1.8236                 1.5260
 IR Inten    --      7.0518                 1.8008                 6.0658

                     61                     62                     63
                      A                      A                      A
 Frequencies --   1548.0238              1818.7102              3031.5813
 Red. masses --      1.0619                12.1874                 1.0612
 Frc consts  --      1.4994                23.7514                 5.7461
 IR Inten    --      6.5086               166.8421                23.3697

                     64                     65                     66
                      A                      A                      A
 Frequencies --   3040.5466              3048.9464              3063.8638
 Red. masses --      1.0634                 1.0410                 1.0360
 Frc consts  --      5.7923                 5.7015                 5.7300
 IR Inten    --     18.9696                23.1846                17.4400

                     67                     68                     69
                      A                      A                      A
 Frequencies --   3064.7310              3070.5121              3077.2723
 Red. masses --      1.0919                 1.0800                 1.0888
 Frc consts  --      6.0426                 5.9992                 6.0747
 IR Inten    --     15.0137                26.2442                56.6128

                     70                     71                     72
                      A                      A                      A
 Frequencies --   3078.8134              3108.6100              3118.2644
 Red. masses --      1.0594                 1.1016                 1.0929
 Frc consts  --      5.9164                 6.2721                 6.2609
 IR Inten    --      8.2984                46.1450                 3.1344

                     73                     74                     75
                      A                      A                      A
 Frequencies --   3118.6328              3120.1940              3134.7764
 Red. masses --      1.1037                 1.0635                 1.1016
 Frc consts  --      6.3243                 6.1004                 6.3780
 IR Inten    --      5.8131                38.6277                27.4423

                     76                     77                     78
                      A                      A                      A
 Frequencies --   3140.8407              3146.1656              3219.9587
 Red. masses --      1.0990                 1.1051                 1.1189
 Frc consts  --      6.3878                 6.4451                 6.8348
 IR Inten    --     48.3591                22.7246                10.1397

 - Thermochemistry -
 -------------------
 Temperature   298.150 Kelvin.  Pressure   1.00000 Atm.
 Atom     1 has atomic number  6 and mass  12.00000

 Molecular mass:   172.10994 amu.
 Principal axes and moments of inertia in atomic units:
                           1         2         3
     Eigenvalues --  1793.681362255.181453335.62038
           X            0.99897  -0.04323  -0.01359
           Y            0.04325   0.99906   0.00087
           Z            0.01354  -0.00146   0.99991
 This molecule is an asymmetric top.
 Rotational symmetry number  1.
 Warning -- assumption of classical behavior for rotation
           may cause significant error
 Rotational temperatures (Kelvin)      0.04829     0.03841     0.02597
 Rotational constants (GHZ):           1.00617     0.80026     0.54105
 Zero-point vibrational energy     641541.5 (Joules/Mol)
                                  153.33210 (Kcal/Mol)
 Warning -- explicit consideration of  19 degrees of freedom as
           vibrations may cause significant error
 Vibrational temperatures:     40.31    61.01    99.93   110.54   177.67
          (Kelvin)            194.81   230.87   284.80   315.26   376.64
                              423.01   436.82   453.76   493.69   546.57
                              598.80   686.17   754.14   831.49  1070.76
                             1112.15  1150.81  1179.66  1185.38  1267.61
                             1276.80  1283.50  1347.37  1352.46  1423.93
                             1441.51  1526.67  1569.35  1585.33  1634.87
                             1651.79  1657.62  1676.68  1714.05  1717.21
                             1774.09  1831.46  1883.44  1904.69  1919.98
                             1988.27  2013.16  2025.10  2035.41  2064.97
                             2075.06  2090.66  2174.42  2182.25  2188.94
                             2194.77  2195.85  2210.25  2218.80  2222.19
                             2227.26  2616.72  4361.77  4374.67  4386.75
                             4408.22  4409.46  4417.78  4427.51  4429.73
                             4472.60  4486.49  4487.02  4489.26  4510.24
                             4518.97  4526.63  4632.80

 Zero-point correction=                           0.244350 (Hartree/Particle)
 Thermal correction to Energy=                    0.257986
 Thermal correction to Enthalpy=                  0.258930
 Thermal correction to Gibbs Free Energy=         0.203002
 Sum of electronic and zero-point Energies=           -578.037305
 Sum of electronic and thermal Energies=              -578.023669
 Sum of electronic and thermal Enthalpies=            -578.022725
 Sum of electronic and thermal Free Energies=         -578.078653

                     E (Thermal)             CV                S
                      KCal/Mol        Cal/Mol-Kelvin    Cal/Mol-Kelvin
 Total                  161.888             48.996            117.711
 Electronic               0.000              0.000              0.000
 Translational            0.889              2.981             41.336
 Rotational               0.889              2.981             30.979
 Vibrational            160.111             43.034             45.395
 Vibration     1          0.593              1.984              5.965
 Vibration     2          0.595              1.980              5.144
 Vibration     3          0.598              1.969              4.169
 Vibration     4          0.599              1.965              3.970
 Vibration     5          0.610              1.929              3.045
 Vibration     6          0.613              1.918              2.868
 Vibration     7          0.622              1.891              2.544
 Vibration     8          0.637              1.843              2.152
 Vibration     9          0.647              1.812              1.966
 Vibration    10          0.669              1.743              1.650
 Vibration    11          0.689              1.685              1.451
 Vibration    12          0.695              1.667              1.397
 Vibration    13          0.703              1.644              1.334
 Vibration    14          0.722              1.589              1.198
 Vibration    15          0.750              1.513              1.040
 Vibration    16          0.779              1.435              0.905
 Vibration    17          0.833              1.301              0.718
 Vibration    18          0.879              1.197              0.600
 Vibration    19          0.934              1.079              0.489

 Optimization completed.
    -- Stationary point found.

 1\1\GINC-NODE307\Freq\RB3LYP\6-31G(d)\C9H16O3\VSC10255\09-Dec-2020\0\\
 #N Geom=AllCheck Guess=TCheck SCRF=Check GenChk RB3LYP/6-31G(d) Freq\\
 CID_89755704_JID_2409_neutraal\\0,1\C,0.9686461188,0.8338745336,0.4063
 760683\C,1.1720593177,1.9176166164,-0.6560667618\C,0.978082162,1.41989
 69881,-2.0973222461\C,-0.4511885162,0.9936254004,-2.4789362438\C,-1.44
 07296468,2.1416967157,-2.4804272667\C,-1.4749835771,3.1001757213,-3.59
 26538112\O,-2.4856740482,2.0883956445,-3.4795029219\C,-1.9986477323,2.
 6435447188,-1.1628632751\O,-2.2731359165,3.7994633718,-0.9220506618\O,

 Normal termination of Gaussian 16 at Wed Dec  9 17:29:18 2020.

 ----------------------------------------------------------------------
 # B3LYP/6-311++G(d,p) empiricaldispersion=gd3bj scf=xqc pop=npa geom=c
 heck
 ----------------------------------------------------------------------

 --------------------------------------
 CID_89755704_JID_2409_Energie_neutraal
 --------------------------------------
 Structure from the checkpoint file:  "JID_2409.chk"
 Charge =  0 Multiplicity = 1

 SCF Done:  E(RB3LYP) =  -578.450425223     A.U. after   14 cycles
 Normal termination of Gaussian 16 at Wed Dec  9 17:31:56 2020.

 ----------------------------------------------------------------------
 # B3LYP/6-311++G(d,p) empiricaldispersion=gd3bj scf=xqc pop=npa geom=c
 heck
 ----------------------------------------------------------------------

 ------------------------------------
 CID_89755704_JID_2409_Energie_kation
 ------------------------------------
 Structure from the checkpoint file:  "JID_2409.chk"
 Charge =  1 Multiplicity = 2

 SCF Done:  E(UB3LYP) =  -578.103246046     A.U. after   25 cycles
 Normal termination of Gaussian 16 at Wed Dec  9 17:38:02 2020.
 Gaussian 16:  ES64L-G16RevA.03 25-Dec-2016

 -----------------------------------
 CID_89755704_JID_2409_Energie_anion
 -----------------------------------
 Structure from the checkpoint file:  "JID_2409.chk"
 Charge = -1 Multiplicity = 2

                         Standard orientation:
 ---------------------------------------------------------------------
 Center     Atomic      Atomic             Coordinates (Angstroms)
 Number     Number       Type             X           Y           Z
 ---------------------------------------------------------------------
      1          6           0        0.889364    2.702792    0.097231
      2          6           0       -0.370496    2.239508    0.833967
      3          6           0       -1.546749    1.902882   -0.096452
      4          6           0       -1.356440    0.679594   -1.011602
      5          6           0       -1.260810   -0.629315   -0.253398
      6          6           0       -2.465824   -1.273000    0.285595
      7          8           0       -1.838830   -1.788803   -0.897124
      8          6           0        0.042723   -1.000887    0.426187
      9          8           0        0.130534   -1.610927    1.470038
     10          8           0        1.102151   -0.603931   -0.302567
     11          6           0        2.400131   -0.942072    0.241084
     12          6           0        3.445335   -0.446934   -0.737664
     13          1           0        1.271674    1.924923   -0.569410
     14          1           0        1.686706    2.958431    0.804338
     15          1           0        0.681809    3.594300   -0.507318
     16          1           0       -0.135610    1.376360    1.470790
     17          1           0       -0.694964    3.031947    1.520748
     18          1           0       -2.447497    1.743031    0.511120
     19          1           0       -1.754431    2.775676   -0.730061
     20          1           0       -2.220752    0.590127   -1.678970
     21          1           0       -0.474405    0.798094   -1.648078
     22          1           0       -2.382778   -1.901017    1.168938
     23          1           0       -3.428251   -0.787988    0.123402
     24          1           0        2.496695   -0.472038    1.224800
     25          1           0        2.444686   -2.025648    0.383901
     26          1           0        3.387399    0.639385   -0.857365
     27          1           0        4.445533   -0.699909   -0.370188
     28          1           0        3.309951   -0.911784   -1.719109
 ---------------------------------------------------------------------

 SCF Done:  E(UB3LYP) =  -578.435831964     A.U. after   33 cycles
 SCF Done:  E(UB3LYP) =  -578.435831964     a.u. after    1 cycles

 The electronic state is 2-A.
 Alpha  occ. eigenvalues --  -19.07418 -19.04809 -19.01766 -10.20588 -10.14714
 Alpha  occ. eigenvalues --  -10.13269 -10.12916 -10.07532 -10.06989 -10.06713
 Alpha  occ. eigenvalues --  -10.06306 -10.05109  -1.01784  -0.98502  -0.92719
 Alpha  occ. eigenvalues --   -0.71037  -0.68455  -0.64695  -0.59554  -0.57370
 Alpha  occ. eigenvalues --   -0.55137  -0.51942  -0.47627  -0.46721  -0.43006
 Alpha  occ. eigenvalues --   -0.40536  -0.38589  -0.37965  -0.36115  -0.35250
 Alpha  occ. eigenvalues --   -0.33837  -0.33085  -0.31228  -0.30475  -0.30040
 Alpha  occ. eigenvalues --   -0.29280  -0.28372  -0.27169  -0.26570  -0.25948
 Alpha  occ. eigenvalues --   -0.23538  -0.23294  -0.22840  -0.21460  -0.21102
 Alpha  occ. eigenvalues --   -0.20433  -0.17069   0.04530
 Alpha virt. eigenvalues --    0.06215   0.07608   0.07796   0.08138   0.09223
 Alpha virt. eigenvalues --    0.09460   0.09607   0.10484   0.11300   0.11402
 Alpha virt. eigenvalues --    0.12383   0.12822   0.13368   0.13948   0.14620

  Beta  occ. eigenvalues --  -19.07404 -19.04780 -19.01728 -10.20543 -10.14716
  Beta  occ. eigenvalues --  -10.13252 -10.12892 -10.07523 -10.06945 -10.06683
  Beta  occ. eigenvalues --  -10.06285 -10.05078  -1.01730  -0.98445  -0.92660
  Beta  occ. eigenvalues --   -0.70992  -0.68408  -0.64651  -0.59480  -0.57310
  Beta  occ. eigenvalues --   -0.55069  -0.51867  -0.47550  -0.46665  -0.42968
  Beta  occ. eigenvalues --   -0.40455  -0.38541  -0.37905  -0.36065  -0.35206
  Beta  occ. eigenvalues --   -0.33790  -0.32991  -0.31169  -0.30425  -0.29987
  Beta  occ. eigenvalues --   -0.29233  -0.28326  -0.27108  -0.26498  -0.25901
  Beta  occ. eigenvalues --   -0.23495  -0.23242  -0.22790  -0.21380  -0.21025
  Beta  occ. eigenvalues --   -0.20396  -0.17033
  Beta virt. eigenvalues --    0.06913   0.07355   0.08261   0.08370   0.08628
  Beta virt. eigenvalues --    0.09780   0.09984   0.10098   0.10864   0.11564
  Beta virt. eigenvalues --    0.11897   0.12841   0.13176   0.13637   0.14158

 Mulliken charges and spin densities:
               1          2
     1  C    0.798230  -1.442691
     2  C   -1.328658   1.241718
     3  C    1.628514  -2.001907
     4  C    0.191007  -0.014135
     5  C   -0.751512   1.119985
     6  C    0.367956  -0.784023
     7  O   -0.126720   0.016130
     8  C   -0.235728  -0.617277
     9  O   -0.213628   0.028251
    10  O    0.013926   0.035078
    11  C   -0.369769   0.402270
    12  C    1.077587  -1.657652
    13  H    0.369835  -0.223427
    14  H   -0.397588   0.536479
    15  H   -0.126611   0.262807
    16  H    0.122383   0.046949
    17  H   -0.469037   0.662478
    18  H   -0.180466   0.328256
    19  H   -0.358835   0.512849
    20  H   -0.164584   0.364459
    21  H    0.114757   0.064675
    22  H    0.117869   0.083398
    23  H   -0.149999   0.301639
    24  H    0.027717   0.155456
    25  H    0.007315   0.165379
    26  H   -0.282362   0.429862
    27  H   -0.616894   0.769123
    28  H   -0.064705   0.213873
 Sum of Mulliken charges =  -1.00000   1.00000

 Dipole moment (field-independent basis, Debye):
    X=             -2.0694    Y=             -3.6411    Z=             -0.5063  Tot=              4.2185
 Quadrupole moment (field-independent basis, Debye-Ang):
   XX=           -142.9028   YY=           -127.5095   ZZ=           -104.4523
   XY=              4.3090   XZ=             -2.4736   YZ=             -2.3314

 Summary of Natural Population Analysis:

                                       Natural Population
                Natural  -----------------------------------------------
    Atom  No    Charge         Core      Valence    Rydberg      Total
 -----------------------------------------------------------------------
      C    1   -0.28836      0.99966     2.28302    0.00569     3.28836
      C    2   -0.19228      0.99964     2.18428    0.00836     3.19228
      C    3   -0.18692      0.99962     2.17786    0.00944     3.18692
      C    4   -0.20128      0.99959     2.19151    0.01019     3.20128
      C    5    0.06918      0.99948     1.91485    0.01649     2.93082
      C    6   -0.02551      0.99952     2.01333    0.01267     3.02551
      O    7   -0.27184      0.99992     3.26560    0.00631     4.27184
      C    8    0.41020      0.99963     1.56543    0.02474     2.58980
      O    9   -0.30093      0.99987     3.29610    0.00496     4.30093
      O   10   -0.27848      0.99985     3.27004    0.00859     4.27848
      C   11   -0.01636      0.99958     2.00441    0.01237     3.01636
      C   12   -0.29442      0.99966     2.28937    0.00539     3.29442
      H   13    0.09899      0.00000     0.39942    0.00159     0.40101
      H   14    0.10002      0.00000     0.39872    0.00126     0.39998
      H   15    0.09504      0.00000     0.40376    0.00120     0.40496
      H   16    0.09253      0.00000     0.40584    0.00163     0.40747
      H   17    0.09785      0.00000     0.40079    0.00137     0.40215
      H   18    0.09755      0.00000     0.40055    0.00190     0.40245
      H   19    0.09888      0.00000     0.39948    0.00164     0.40112
      H   20    0.10752      0.00000     0.39099    0.00149     0.39248
      H   21    0.10807      0.00000     0.39029    0.00164     0.39193
      H   22    0.09760      0.00000     0.40138    0.00102     0.40240
      H   23    0.09011      0.00000     0.40873    0.00116     0.40989
      H   24    0.09300      0.00000     0.40569    0.00131     0.40700
      H   25    0.09064      0.00000     0.40822    0.00114     0.40936
      H   26    0.10377      0.00000     0.39478    0.00145     0.39623
      H   27    0.10524      0.00000     0.39263    0.00213     0.39476
      H   28    0.10021      0.00000     0.39870    0.00108     0.39979
 =======================================================================
   * Total *    0.00000     11.99603    34.85578    0.14820    47.00000

 Normal termination of Gaussian 16 at Wed Dec  9 17:45:57 2020.
