 Gaussian 16, Revision A.03,

 -----------------------------------------------------------
 # opt freq B3LYP/6-31G(d) empiricaldispersion=gd3bj scf=xqc
 -----------------------------------------------------------

 -------------------------------
 CID_43395581_JID_10913_neutraal
 -------------------------------
 Symbolic Z-matrix:
 Charge =  0 Multiplicity = 1

 SCF Done:  E(RB3LYP) =  -859.430359468     A.U. after   15 cycles
 SCF Done:  E(RB3LYP) =  -859.434260282     A.U. after   12 cycles
 SCF Done:  E(RB3LYP) =  -859.435279064     A.U. after   12 cycles
 SCF Done:  E(RB3LYP) =  -859.435212059     A.U. after   12 cycles
 SCF Done:  E(RB3LYP) =  -859.435632691     A.U. after   12 cycles
 SCF Done:  E(RB3LYP) =  -859.435728711     A.U. after   11 cycles
 SCF Done:  E(RB3LYP) =  -859.435785106     A.U. after   11 cycles
 SCF Done:  E(RB3LYP) =  -859.436084984     A.U. after   14 cycles
 SCF Done:  E(RB3LYP) =  -859.436086013     A.U. after   12 cycles
 SCF Done:  E(RB3LYP) =  -859.436136196     A.U. after   11 cycles
 SCF Done:  E(RB3LYP) =  -859.436381753     A.U. after    8 cycles
 SCF Done:  E(RB3LYP) =  -859.436381965     A.U. after    8 cycles
 SCF Done:  E(RB3LYP) =  -859.436382008     A.U. after    7 cycles
 SCF Done:  E(RB3LYP) =  -859.436382021     A.U. after    7 cycles
 SCF Done:  E(RB3LYP) =  -859.436382028     A.U. after    6 cycles
 Optimization completed.
    -- Stationary point found.
 Normal termination of Gaussian 16 at Sat Dec 12 16:47:11 2020.

 --------------------------------------------------------------------
 #N Geom=AllCheck Guess=TCheck SCRF=Check GenChk RB3LYP/6-31G(d) Freq
 --------------------------------------------------------------------

 Structure from the checkpoint file:  "JID_10913.chk"
 -------------------------------
 CID_43395581_JID_10913_neutraal
 -------------------------------
 Charge =  0 Multiplicity = 1

 SCF Done:  E(RB3LYP) =  -859.436382028     A.U. after    1 cycles

  Exact polarizability: 253.622  43.573 163.955  -6.357   9.601 138.557
 Approx polarizability: 343.045  66.136 252.914 -13.155  27.983 241.417

                      1                      2                      3
                      A                      A                      A
 Frequencies --     10.9294                19.7051                32.0062
 Red. masses --      5.7463                 4.1754                 4.6289
 Frc consts  --      0.0004                 0.0010                 0.0028
 IR Inten    --      0.1092                 0.2278                 0.2764

                      4                      5                      6
                      A                      A                      A
 Frequencies --     39.3933                62.0765                74.7731
 Red. masses --      4.8906                 4.6034                 4.1380
 Frc consts  --      0.0045                 0.0105                 0.0136
 IR Inten    --      0.6620                 0.6876                 1.4158

                      7                      8                      9
                      A                      A                      A
 Frequencies --    109.9104               132.0253               149.9642
 Red. masses --      4.3872                 3.6603                 4.2465
 Frc consts  --      0.0312                 0.0376                 0.0563
 IR Inten    --      1.2595                 0.7580                 0.3592

                     10                     11                     12
                      A                      A                      A
 Frequencies --    170.6144               243.8188               254.5796
 Red. masses --      4.4591                 3.4818                 3.2811
 Frc consts  --      0.0765                 0.1220                 0.1253
 IR Inten    --      0.2905                 0.4254                 5.6131

                     13                     14                     15
                      A                      A                      A
 Frequencies --    310.0099               334.2477               342.0520
 Red. masses --      4.4068                 3.4840                 2.8997
 Frc consts  --      0.2495                 0.2293                 0.1999
 IR Inten    --      2.3983                 1.4272                 2.1846

                     16                     17                     18
                      A                      A                      A
 Frequencies --    368.3407               415.4311               422.0665
 Red. masses --      2.6220                 3.5819                 4.2490
 Frc consts  --      0.2096                 0.3642                 0.4460
 IR Inten    --      0.6159                 0.0083                 0.6232

                     19                     20                     21
                      A                      A                      A
 Frequencies --    490.2639               503.4194               528.8943
 Red. masses --      3.4475                 3.1356                 3.4014
 Frc consts  --      0.4882                 0.4682                 0.5606
 IR Inten    --      4.3498                 0.7996                 4.4774

                     22                     23                     24
                      A                      A                      A
 Frequencies --    613.1360               629.7227               633.0846
 Red. masses --      3.4715                 3.8877                 3.8805
 Frc consts  --      0.7689                 0.9083                 0.9163
 IR Inten    --      3.7636                 1.8145                 2.8986

                     25                     26                     27
                      A                      A                      A
 Frequencies --    634.7250               668.8747               698.8811
 Red. masses --      4.3392                 5.7938                 2.6188
 Frc consts  --      1.0300                 1.5272                 0.7536
 IR Inten    --      1.3596                12.6035                 6.1037

                     28                     29                     30
                      A                      A                      A
 Frequencies --    703.9855               708.0861               733.0431
 Red. masses --      2.2446                 4.0584                 1.4836
 Frc consts  --      0.6554                 1.1989                 0.4697
 IR Inten    --     13.8428                 9.9093                34.2141

                     31                     32                     33
                      A                      A                      A
 Frequencies --    759.1732               771.7962               787.5659
 Red. masses --      2.6911                 1.6348                 1.6074
 Frc consts  --      0.9138                 0.5737                 0.5874
 IR Inten    --     31.8495                46.6623                22.2857

                     34                     35                     36
                      A                      A                      A
 Frequencies --    799.0036               808.7456               845.6103
 Red. masses --      1.3709                 1.2624                 1.2526
 Frc consts  --      0.5157                 0.4865                 0.5277
 IR Inten    --     81.7502                32.8284                 0.2341

                     37                     38                     39
                      A                      A                      A
 Frequencies --    854.7688               862.8872               882.6485
 Red. masses --      2.1590                 1.3235                 1.3965
 Frc consts  --      0.9294                 0.5806                 0.6410
 IR Inten    --      2.7052                 0.1744                11.6229

                     40                     41                     42
                      A                      A                      A
 Frequencies --    908.9456               916.7808               918.3418
 Red. masses --      5.8645                 1.4258                 2.6257
 Frc consts  --      2.8547                 0.7061                 1.3047
 IR Inten    --      4.2782                 6.8682                15.7819

                     43                     44                     45
                      A                      A                      A
 Frequencies --    951.4635               965.2460               976.3787
 Red. masses --      2.8865                 1.3334                 6.5161
 Frc consts  --      1.5396                 0.7320                 3.6600
 IR Inten    --     24.9243                 0.2762                61.9112

                     46                     47                     48
                      A                      A                      A
 Frequencies --    988.5166               993.9090              1017.5526
 Red. masses --      2.2456                 1.2596                 1.7621
 Frc consts  --      1.2928                 0.7331                 1.0750
 IR Inten    --      8.0994                 1.0798                44.1557

                     49                     50                     51
                      A                      A                      A
 Frequencies --   1021.2810              1043.2184              1045.5385
 Red. masses --      5.5722                 2.0204                 1.6933
 Frc consts  --      3.4243                 1.2955                 1.0906
 IR Inten    --      0.7042                20.5923                24.7334

                     52                     53                     54
                      A                      A                      A
 Frequencies --   1055.0284              1074.4619              1111.5791
 Red. masses --      3.0062                 2.4310                 2.3963
 Frc consts  --      1.9715                 1.6535                 1.7445
 IR Inten    --      3.4812                11.5218                 1.6712

                     55                     56                     57
                      A                      A                      A
 Frequencies --   1113.0033              1125.2951              1148.9746
 Red. masses --      1.5741                 2.1209                 2.9244
 Frc consts  --      1.1489                 1.5823                 2.2746
 IR Inten    --      6.6712                 8.4428                34.0293

                     58                     59                     60
                      A                      A                      A
 Frequencies --   1183.3232              1193.3702              1207.8883
 Red. masses --      1.8657                 1.0964                 1.3036
 Frc consts  --      1.5392                 0.9200                 1.1206
 IR Inten    --     15.7591                 0.3447                 3.8213

                     61                     62                     63
                      A                      A                      A
 Frequencies --   1213.7842              1214.1315              1237.7991
 Red. masses --      2.3139                 1.2436                 1.5256
 Frc consts  --      2.0086                 1.0801                 1.3772
 IR Inten    --     42.4492                 5.5526                 4.3516

                     64                     65                     66
                      A                      A                      A
 Frequencies --   1246.9746              1251.6539              1281.9969
 Red. masses --      1.5084                 1.9860                 3.4372
 Frc consts  --      1.3819                 1.8331                 3.3284
 IR Inten    --     15.6674                 0.5972                 5.5105

                     67                     68                     69
                      A                      A                      A
 Frequencies --   1291.2842              1318.1966              1362.1698
 Red. masses --      1.3852                 1.3815                 2.7555
 Frc consts  --      1.3609                 1.4144                 3.0125
 IR Inten    --      0.5433                 9.2971                 8.3456

                     70                     71                     72
                      A                      A                      A
 Frequencies --   1370.9585              1375.4680              1397.9925
 Red. masses --      2.1045                 1.4720                 1.3159
 Frc consts  --      2.3305                 1.6408                 1.5152
 IR Inten    --      6.1066                10.4703                79.3454

                     73                     74                     75
                      A                      A                      A
 Frequencies --   1407.5950              1429.5220              1433.1912
 Red. masses --      1.5326                 4.7729                 2.5325
 Frc consts  --      1.7891                 5.7466                 3.0649
 IR Inten    --      9.2930                26.5878                 0.2420

                     76                     77                     78
                      A                      A                      A
 Frequencies --   1449.9903              1463.5439              1500.4428
 Red. masses --      4.1710                 2.6862                 1.1037
 Frc consts  --      5.1668                 3.3901                 1.4641
 IR Inten    --    105.1525                 4.3254                10.3730

                     79                     80                     81
                      A                      A                      A
 Frequencies --   1505.7662              1513.7425              1526.9617
 Red. masses --      1.1021                 2.4747                 1.2410
 Frc consts  --      1.4723                 3.3411                 1.7048
 IR Inten    --      0.9650                 4.8445                70.8960

                     82                     83                     84
                      A                      A                      A
 Frequencies --   1540.0169              1557.6416              1557.9316
 Red. masses --      1.0926                 3.4313                 3.2371
 Frc consts  --      1.5267                 4.9050                 4.6291
 IR Inten    --      1.1138                49.1857                82.7008

                     85                     86                     87
                      A                      A                      A
 Frequencies --   1631.3326              1654.3767              1655.3096
 Red. masses --      5.6399                 6.1587                 6.1538
 Frc consts  --      8.8431                 9.9314                 9.9347
 IR Inten    --     27.4185                 9.9904                 5.4358

                     88                     89                     90
                      A                      A                      A
 Frequencies --   1666.6252              2974.2803              3028.0996
 Red. masses --      5.6446                 1.0688                 1.0906
 Frc consts  --      9.2377                 5.5706                 5.8917
 IR Inten    --     74.2046                47.4022                33.6115

                     91                     92                     93
                      A                      A                      A
 Frequencies --   3041.7552              3053.1014              3088.2317
 Red. masses --      1.0612                 1.0632                 1.1017
 Frc consts  --      5.7849                 5.8393                 6.1906
 IR Inten    --     58.3178                23.4111                25.6135

                     94                     95                     96
                      A                      A                      A
 Frequencies --   3101.5211              3188.6582              3197.6172
 Red. masses --      1.1029                 1.0853                 1.0896
 Frc consts  --      6.2509                 6.5017                 6.5642
 IR Inten    --     45.2250                 1.6452                15.2351

                     97                     98                     99
                      A                      A                      A
 Frequencies --   3210.7419              3219.1721              3248.4153
 Red. masses --      1.0934                 1.0956                 1.0924
 Frc consts  --      6.6410                 6.6896                 6.7918
 IR Inten    --     36.3473                 9.0873                 0.3288

                    100                    101                    102
                      A                      A                      A
 Frequencies --   3262.5204              3269.4999              3274.1550
 Red. masses --      1.0918                 1.0961                 1.0965
 Frc consts  --      6.8468                 6.9037                 6.9258
 IR Inten    --      4.7915                 3.0943                 2.1697

                    103                    104                    105
                      A                      A                      A
 Frequencies --   3289.5010              3303.4217              3509.3084
 Red. masses --      1.0970                 1.1047                 1.0736
 Frc consts  --      6.9936                 7.1028                 7.7898
 IR Inten    --      0.3553                 1.1895                 0.3216

 - Thermochemistry -
 -------------------
 Temperature   298.150 Kelvin.  Pressure   1.00000 Atm.
 Atom     1 has atomic number  6 and mass  12.00000

 Molecular mass:   267.13716 amu.
 Principal axes and moments of inertia in atomic units:
                           1         2         3
     Eigenvalues --  2548.26496********************
           X            0.99996   0.00928  -0.00073
           Y           -0.00929   0.99995  -0.00482
           Z            0.00069   0.00482   0.99999
 This molecule is an asymmetric top.
 Rotational symmetry number  1.
 Warning -- assumption of classical behavior for rotation
           may cause significant error
 Rotational temperatures (Kelvin)      0.03399     0.00655     0.00588
 Rotational constants (GHZ):           0.70822     0.13641     0.12255
 Zero-point vibrational energy     805605.7 (Joules/Mol)
                                  192.54438 (Kcal/Mol)
 Warning -- explicit consideration of  22 degrees of freedom as
           vibrations may cause significant error
 Vibrational temperatures:     15.72    28.35    46.05    56.68    89.31
          (Kelvin)            107.58   158.14   189.96   215.77   245.48
                              350.80   366.28   446.04   480.91   492.14
                              529.96   597.71   607.26   705.38   724.31
                              760.96   882.17   906.03   910.87   913.23
                              962.36  1005.53  1012.88  1018.78  1054.69
                             1092.28  1110.44  1133.13  1149.59  1163.60
                             1216.64  1229.82  1241.50  1269.93  1307.77
                             1319.04  1321.29  1368.94  1388.77  1404.79
                             1422.25  1430.01  1464.03  1469.40  1500.96
                             1504.30  1517.95  1545.91  1599.31  1601.36
                             1619.05  1653.12  1702.54  1716.99  1737.88
                             1746.36  1746.86  1780.92  1794.12  1800.85
                             1844.51  1857.87  1896.59  1959.86  1972.50
                             1978.99  2011.40  2025.22  2056.76  2062.04
                             2086.21  2105.71  2158.80  2166.46  2177.94
                             2196.96  2215.74  2241.10  2241.52  2347.12
                             2380.28  2381.62  2397.90  4279.33  4356.76
                             4376.41  4392.73  4443.28  4462.40  4587.77
                             4600.66  4619.54  4631.67  4673.75  4694.04
                             4704.08  4710.78  4732.86  4752.89  5049.11

 Zero-point correction=                           0.306839 (Hartree/Particle)
 Thermal correction to Energy=                    0.323877
 Thermal correction to Enthalpy=                  0.324821
 Thermal correction to Gibbs Free Energy=         0.257529
 Sum of electronic and zero-point Energies=           -859.129543
 Sum of electronic and thermal Energies=              -859.112505
 Sum of electronic and thermal Enthalpies=            -859.111561
 Sum of electronic and thermal Free Energies=         -859.178853

                     E (Thermal)             CV                S
                      KCal/Mol        Cal/Mol-Kelvin    Cal/Mol-Kelvin
 Total                  203.236             65.657            141.627
 Electronic               0.000              0.000              0.000
 Translational            0.889              2.981             42.647
 Rotational               0.889              2.981             34.561
 Vibrational            201.458             59.696             64.418
 Vibration     1          0.593              1.987              7.834
 Vibration     2          0.593              1.986              6.664
 Vibration     3          0.594              1.983              5.701
 Vibration     4          0.594              1.981              5.289
 Vibration     5          0.597              1.972              4.390
 Vibration     6          0.599              1.966              4.024
 Vibration     7          0.606              1.941              3.270
 Vibration     8          0.612              1.921              2.916
 Vibration     9          0.618              1.903              2.673
 Vibration    10          0.626              1.879              2.429
 Vibration    11          0.659              1.773              1.775
 Vibration    12          0.665              1.755              1.699
 Vibration    13          0.699              1.655              1.362
 Vibration    14          0.716              1.607              1.239
 Vibration    15          0.721              1.591              1.203
 Vibration    16          0.741              1.537              1.087
 Vibration    17          0.779              1.437              0.908
 Vibration    18          0.784              1.422              0.885
 Vibration    19          0.846              1.272              0.683
 Vibration    20          0.859              1.242              0.650
 Vibration    21          0.884              1.186              0.590
 Vibration    22          0.972              1.004              0.428

                           ! Non-Optimized Parameters !
 Normal termination of Gaussian 16 at Sat Dec 12 17:04:33 2020.

 ----------------------------------------------------------------------
 # B3LYP/6-311++G(d,p) empiricaldispersion=gd3bj scf=xqc pop=npa geom=c
 heck
 ----------------------------------------------------------------------

 ---------------------------------------
 CID_43395581_JID_10913_Energie_neutraal
 ---------------------------------------
 Structure from the checkpoint file:  "JID_10913.chk"
 Charge =  0 Multiplicity = 1

 SCF Done:  E(RB3LYP) =  -859.664846768     A.U. after   16 cycles
 Normal termination of Gaussian 16 at Sat Dec 12 17:13:06 2020.

 ----------------------------------------------------------------------
 # B3LYP/6-311++G(d,p) empiricaldispersion=gd3bj scf=xqc pop=npa geom=c
 heck
 ----------------------------------------------------------------------

 -------------------------------------
 CID_43395581_JID_10913_Energie_kation
 -------------------------------------
 Structure from the checkpoint file:  "JID_10913.chk"
 Charge =  1 Multiplicity = 2

 SCF Done:  E(UB3LYP) =  -859.391925141     A.U. after   24 cycles
 Normal termination of Gaussian 16 at Sat Dec 12 17:31:20 2020.
 Gaussian 16:  ES64L-G16RevA.03 25-Dec-2016

 ----------------------------------------------------------------------
 # B3LYP/6-311++G(d,p) empiricaldispersion=gd3bj scf=xqc pop=npa geom=c
 heck
 ----------------------------------------------------------------------

 ------------------------------------
 CID_43395581_JID_10913_Energie_anion
 ------------------------------------
 Structure from the checkpoint file:  "JID_10913.chk"
 Charge = -1 Multiplicity = 2

                         Standard orientation:
 ---------------------------------------------------------------------
 Center     Atomic      Atomic             Coordinates (Angstroms)
 Number     Number       Type             X           Y           Z
 ---------------------------------------------------------------------
      1          6           0        5.831630    1.409481    0.102026
      2          6           0        5.501362    0.630588   -1.009007
      3          6           0        4.295849   -0.063886   -1.057415
      4          6           0        3.411906    0.014357    0.023915
      5          6           0        3.741303    0.778180    1.148341
      6          6           0        4.945985    1.478505    1.177432
      7          7           0        2.183505   -0.685606   -0.031324
      8          6           0        1.048717   -0.460826    0.700310
      9          6           0        0.108010   -1.382183    0.290795
     10          6           0        0.772340   -2.126270   -0.719563
     11          7           0        2.017299   -1.708585   -0.914287
     12          6           0       -1.299062   -1.543543    0.776902
     13          7           0       -2.218320   -1.636197   -0.358099
     14          6           0       -3.613841   -1.839159    0.001730
     15          6           0       -4.284162   -0.736949    0.868973
     16          6           0       -4.260718    0.609598    0.236285
     17          6           0       -5.199918    1.387810   -0.374858
     18          6           0       -4.529382    2.572217   -0.832805
     19          6           0       -3.226447    2.432795   -0.471667
     20          8           0       -3.040204    1.243440    0.178643
     21          1           0        6.771545    1.952336    0.131491
     22          1           0        6.184586    0.566245   -1.851042
     23          1           0        4.022866   -0.669503   -1.912371
     24          1           0        3.075590    0.810362    2.004036
     25          1           0        5.195420    2.069731    2.053827
     26          1           0        0.982249    0.339558    1.421089
     27          1           0        0.374461   -2.940786   -1.309182
     28          1           0       -1.401113   -2.475567    1.351812
     29          1           0       -1.531773   -0.719733    1.473080
     30          1           0       -2.126280   -0.789285   -0.915282
     31          1           0       -4.184757   -1.943432   -0.928190
     32          1           0       -3.691387   -2.793782    0.538629
     33          1           0       -5.329002   -1.017032    1.044917
     34          1           0       -3.799186   -0.692943    1.852066
     35          1           0       -6.248587    1.148188   -0.483208
     36          1           0       -4.966047    3.411245   -1.356000
     37          1           0       -2.345773    3.045299   -0.587217
 ---------------------------------------------------------------------

 SCF Done:  E(UB3LYP) =  -859.656430594     A.U. after   33 cycles
 SCF Done:  E(UB3LYP) =  -859.656430594     a.u. after    1 cycles

 The electronic state is 2-A.
 Alpha  occ. eigenvalues --  -19.09934 -14.28685 -14.21780 -14.20114 -10.13677
 Alpha  occ. eigenvalues --  -10.13377 -10.10936 -10.10292 -10.10110 -10.09472
 Alpha  occ. eigenvalues --  -10.08703 -10.08690 -10.08105 -10.08038 -10.07911
 Alpha  occ. eigenvalues --  -10.07687 -10.07547 -10.07168 -10.06838 -10.06526
 Alpha  occ. eigenvalues --   -1.02186  -0.94443  -0.81446  -0.77340  -0.72422
 Alpha  occ. eigenvalues --   -0.71492  -0.70259  -0.68628  -0.65171  -0.64083
 Alpha  occ. eigenvalues --   -0.62174  -0.58356  -0.52811  -0.52637  -0.51510
 Alpha  occ. eigenvalues --   -0.51292  -0.47234  -0.46840  -0.46612  -0.44489
 Alpha  occ. eigenvalues --   -0.43389  -0.40467  -0.38930  -0.37471  -0.36697
 Alpha  occ. eigenvalues --   -0.36249  -0.35797  -0.35765  -0.34068  -0.33104
 Alpha  occ. eigenvalues --   -0.32904  -0.32539  -0.32050  -0.31575  -0.30310
 Alpha  occ. eigenvalues --   -0.30122  -0.29140  -0.28005  -0.27082  -0.26941
 Alpha  occ. eigenvalues --   -0.26451  -0.25346  -0.25218  -0.19728  -0.19110
 Alpha  occ. eigenvalues --   -0.18793  -0.16286  -0.14938  -0.14701  -0.12905
 Alpha  occ. eigenvalues --   -0.12066   0.04127
 Alpha virt. eigenvalues --    0.05285   0.06529   0.06590   0.07463   0.07937
 Alpha virt. eigenvalues --    0.08037   0.08525   0.08647   0.08889   0.09150
 Alpha virt. eigenvalues --    0.09906   0.10499   0.10642   0.11321   0.11862

  Beta  occ. eigenvalues --  -19.09922 -14.28709 -14.21651 -14.20109 -10.13672
  Beta  occ. eigenvalues --  -10.13369 -10.10742 -10.10275 -10.10105 -10.09355
  Beta  occ. eigenvalues --  -10.08687 -10.08680 -10.08131 -10.08012 -10.07886
  Beta  occ. eigenvalues --  -10.07660 -10.07485 -10.07166 -10.06680 -10.06512
  Beta  occ. eigenvalues --   -1.02163  -0.94326  -0.81430  -0.77114  -0.72258
  Beta  occ. eigenvalues --   -0.71461  -0.70193  -0.68493  -0.65051  -0.63907
  Beta  occ. eigenvalues --   -0.62083  -0.58281  -0.52660  -0.52525  -0.51451
  Beta  occ. eigenvalues --   -0.51230  -0.47170  -0.46678  -0.46557  -0.44409
  Beta  occ. eigenvalues --   -0.43350  -0.40401  -0.38854  -0.37399  -0.36619
  Beta  occ. eigenvalues --   -0.36175  -0.35730  -0.35579  -0.33881  -0.33029
  Beta  occ. eigenvalues --   -0.32864  -0.32477  -0.31995  -0.31536  -0.30279
  Beta  occ. eigenvalues --   -0.30076  -0.29099  -0.27922  -0.26958  -0.26582
  Beta  occ. eigenvalues --   -0.26380  -0.25316  -0.25147  -0.19690  -0.18642
  Beta  occ. eigenvalues --   -0.18444  -0.15917  -0.14747  -0.14173  -0.12794
  Beta  occ. eigenvalues --   -0.11654
  Beta virt. eigenvalues --    0.06261   0.06532   0.06985   0.07318   0.07691
  Beta virt. eigenvalues --    0.08053   0.08266   0.08568   0.08730   0.09063
  Beta virt. eigenvalues --    0.09345   0.10114   0.10514   0.10896   0.11576

 Mulliken charges and spin densities:
               1          2
     1  C   -0.331348   0.091241
     2  C   -0.297901   0.043883
     3  C   -0.088823   0.046860
     4  C   -0.453241   0.013959
     5  C    0.327383   0.042618
     6  C   -0.141017  -0.006323
     7  N    0.373326  -0.015732
     8  C    0.006945   0.072229
     9  C    0.424379   0.050319
    10  C   -0.055245   0.026802
    11  N   -0.117902   0.067363
    12  C   -1.402611  -0.364528
    13  N    0.044154   0.038884
    14  C    0.296369  -0.680740
    15  C    1.268632  -1.516516
    16  C   -0.457027   0.388352
    17  C   -0.597283   0.576963
    18  C    1.004366  -1.470217
    19  C   -0.374260   0.446443
    20  O   -0.015450   0.020680
    21  H    0.108852  -0.008345
    22  H    0.141068   0.000694
    23  H    0.201318  -0.000770
    24  H    0.018463   0.083908
    25  H    0.137338   0.014981
    26  H    0.166585  -0.018086
    27  H    0.131442   0.004864
    28  H   -0.021972   0.171573
    29  H    0.155387   0.021368
    30  H    0.170176   0.026033
    31  H   -0.010121   0.186105
    32  H    0.044756   0.093190
    33  H   -0.670093   0.896197
    34  H   -0.056408   0.209741
    35  H   -0.965375   1.154783
    36  H   -0.106408   0.261676
    37  H    0.141548   0.029546
 Sum of Mulliken charges =  -1.00000   1.00000

 Dipole moment (field-independent basis, Debye):
    X=              6.0427    Y=              2.2253    Z=              0.1143  Tot=              6.4404
 Quadrupole moment (field-independent basis, Debye-Ang):
   XX=           -255.7609   YY=           -147.3381   ZZ=           -139.4507
   XY=              3.3520   XZ=              3.8373   YZ=              1.8078

 Summary of Natural Population Analysis:

                                       Natural Population
                Natural  -----------------------------------------------
    Atom  No    Charge         Core      Valence    Rydberg      Total
 -----------------------------------------------------------------------
      C    1   -0.09090      0.99957     2.08197    0.00936     3.09090
      C    2   -0.09616      0.99958     2.08789    0.00870     3.09616
      C    3   -0.10727      0.99955     2.09989    0.00783     3.10727
      C    4    0.11431      0.99941     1.87431    0.01197     2.88569
      C    5   -0.10798      0.99955     2.09901    0.00942     3.10798
      C    6   -0.10494      0.99958     2.09687    0.00848     3.10494
      N    7   -0.10975      0.99962     2.59764    0.01248     3.60975
      C    8    0.01384      0.99951     1.97660    0.01005     2.98616
      C    9   -0.07404      0.99952     2.06545    0.00906     3.07404
      C   10   -0.00035      0.99959     1.98630    0.01446     3.00035
      N   11   -0.13898      0.99973     2.62786    0.01139     3.63898
      C   12   -0.09434      0.99959     2.08456    0.01019     3.09434
      N   13   -0.33571      0.99975     2.82554    0.01042     3.83571
      C   14   -0.08053      0.99963     2.06845    0.01245     3.08053
      C   15   -0.22586      0.99958     2.21679    0.00948     3.22586
      C   16    0.15417      0.99947     1.83030    0.01606     2.84583
      C   17   -0.14968      0.99949     2.14086    0.00933     3.14968
      C   18   -0.15091      0.99957     2.14184    0.00951     3.15091
      C   19    0.05274      0.99951     1.93411    0.01363     2.94726
      O   20   -0.24172      0.99986     3.23364    0.00823     4.24172
      H   21    0.09288      0.00000     0.40614    0.00098     0.40712
      H   22    0.09466      0.00000     0.40440    0.00094     0.40534
      H   23    0.11363      0.00000     0.38549    0.00088     0.38637
      H   24    0.10087      0.00000     0.39824    0.00090     0.39913
      H   25    0.09514      0.00000     0.40363    0.00123     0.40486
      H   26    0.10195      0.00000     0.39700    0.00104     0.39805
      H   27    0.09849      0.00000     0.40041    0.00110     0.40151
      H   28    0.09360      0.00000     0.40506    0.00134     0.40640
      H   29    0.08537      0.00000     0.41251    0.00212     0.41463
      H   30    0.17568      0.00000     0.32144    0.00288     0.32432
      H   31    0.09449      0.00000     0.40438    0.00113     0.40551
      H   32    0.09167      0.00000     0.40716    0.00117     0.40833
      H   33    0.11397      0.00000     0.38344    0.00259     0.38603
      H   34    0.10583      0.00000     0.39284    0.00133     0.39417
      H   35    0.11285      0.00000     0.38494    0.00221     0.38715
      H   36    0.10782      0.00000     0.39149    0.00069     0.39218
      H   37    0.09515      0.00000     0.40401    0.00084     0.40485
 =======================================================================
   * Total *    0.00001     19.99166    50.77245    0.23588    70.99999

 Normal termination of Gaussian 16 at Sat Dec 12 17:57:04 2020.
