 Gaussian 16, Revision A.03,

 -----------------------------------------------------------
 # opt freq B3LYP/6-31G(d) empiricaldispersion=gd3bj scf=xqc
 -----------------------------------------------------------

 -------------------------------
 CID_43436551_JID_10014_neutraal
 -------------------------------
 Symbolic Z-matrix:
 Charge =  0 Multiplicity = 1

 SCF Done:  E(RB3LYP) =  -1274.06405070     A.U. after   15 cycles
 SCF Done:  E(RB3LYP) =  -1274.06745874     A.U. after   13 cycles
 SCF Done:  E(RB3LYP) =  -1274.06816306     A.U. after   12 cycles
 SCF Done:  E(RB3LYP) =  -1274.06833697     A.U. after   11 cycles
 SCF Done:  E(RB3LYP) =  -1274.06853037     A.U. after   12 cycles
 SCF Done:  E(RB3LYP) =  -1274.06863702     A.U. after   12 cycles
 SCF Done:  E(RB3LYP) =  -1274.06870969     A.U. after   12 cycles
 SCF Done:  E(RB3LYP) =  -1274.06883406     A.U. after   12 cycles
 SCF Done:  E(RB3LYP) =  -1274.06894369     A.U. after   11 cycles
 SCF Done:  E(RB3LYP) =  -1274.06896315     A.U. after   11 cycles
 SCF Done:  E(RB3LYP) =  -1274.06897783     A.U. after    9 cycles
 SCF Done:  E(RB3LYP) =  -1274.06897837     A.U. after    9 cycles
 SCF Done:  E(RB3LYP) =  -1274.06897878     A.U. after    9 cycles
 SCF Done:  E(RB3LYP) =  -1274.06897908     A.U. after    9 cycles
 SCF Done:  E(RB3LYP) =  -1274.06897917     A.U. after    8 cycles
 Optimization completed.
    -- Stationary point found.
 Normal termination of Gaussian 16 at Mon Dec 14 17:28:12 2020.

 --------------------------------------------------------------------
 #N Geom=AllCheck Guess=TCheck SCRF=Check GenChk RB3LYP/6-31G(d) Freq
 --------------------------------------------------------------------

 Structure from the checkpoint file:  "JID_10014.chk"
 -------------------------------
 CID_43436551_JID_10014_neutraal
 -------------------------------
 Charge =  0 Multiplicity = 1

 SCF Done:  E(RB3LYP) =  -1274.06897917     A.U. after    1 cycles

  Exact polarizability: 279.962   9.985 150.045  18.708  -7.354 127.675
 Approx polarizability: 375.523  19.604 268.261  47.492 -19.710 217.825

                      1                      2                      3
                      A                      A                      A
 Frequencies --     13.5442                24.7794                48.8147
 Red. masses --      8.3530                 6.5782                 5.3601
 Frc consts  --      0.0009                 0.0024                 0.0075
 IR Inten    --      3.6751                 2.9193                 2.7479

                      4                      5                      6
                      A                      A                      A
 Frequencies --     70.5665                90.2954               133.0661
 Red. masses --      4.2808                 5.9183                 7.7854
 Frc consts  --      0.0126                 0.0284                 0.0812
 IR Inten    --      2.3821                 0.2808                 2.0062

                      7                      8                      9
                      A                      A                      A
 Frequencies --    141.0342               155.3013               174.5938
 Red. masses --      6.2715                 1.3070                 4.3160
 Frc consts  --      0.0735                 0.0186                 0.0775
 IR Inten    --      1.9711                 2.8730                 2.4421

                     10                     11                     12
                      A                      A                      A
 Frequencies --    179.2434               215.7510               221.9708
 Red. masses --      1.8909                 2.9229                 4.2840
 Frc consts  --      0.0358                 0.0802                 0.1244
 IR Inten    --     28.3572                 0.1652                 0.5805

                     13                     14                     15
                      A                      A                      A
 Frequencies --    238.0901               247.6138               305.9848
 Red. masses --      3.7194                 3.1025                 4.7673
 Frc consts  --      0.1242                 0.1121                 0.2630
 IR Inten    --      6.1621                 7.2260                 0.1268

                     16                     17                     18
                      A                      A                      A
 Frequencies --    345.0945               364.7195               369.4144
 Red. masses --      5.6302                 3.8710                 4.7747
 Frc consts  --      0.3950                 0.3034                 0.3839
 IR Inten    --      2.8048                10.4812                 3.2842

                     19                     20                     21
                      A                      A                      A
 Frequencies --    400.0387               409.8133               447.1056
 Red. masses --      4.9526                 6.3963                 4.0025
 Frc consts  --      0.4670                 0.6329                 0.4714
 IR Inten    --      2.5279                 2.4171                 4.8096

                     22                     23                     24
                      A                      A                      A
 Frequencies --    464.9696               467.4086               484.2148
 Red. masses --      7.8923                 3.8418                 4.4867
 Frc consts  --      1.0053                 0.4945                 0.6198
 IR Inten    --      0.1463                13.9539                 8.4610

                     25                     26                     27
                      A                      A                      A
 Frequencies --    503.0109               536.4632               562.0643
 Red. masses --      5.8325                 6.1676                 6.2438
 Frc consts  --      0.8695                 1.0458                 1.1622
 IR Inten    --     17.6963                63.4954                22.0914

                     28                     29                     30
                      A                      A                      A
 Frequencies --    571.2627               582.5582               609.2789
 Red. masses --      5.9730                 4.6723                 5.1837
 Frc consts  --      1.1485                 0.9342                 1.1338
 IR Inten    --     36.0155                 8.0466                 2.6526

                     31                     32                     33
                      A                      A                      A
 Frequencies --    648.5627               680.7328               697.7286
 Red. masses --      6.9035                 5.6050                 3.0116
 Frc consts  --      1.7109                 1.5303                 0.8638
 IR Inten    --     17.2005                 9.9339               128.7191

                     34                     35                     36
                      A                      A                      A
 Frequencies --    700.1658               720.6051               740.6894
 Red. masses --      2.9751                 4.0808                 4.0432
 Frc consts  --      0.8593                 1.2485                 1.3069
 IR Inten    --     41.6672                75.6125                 1.9860

                     37                     38                     39
                      A                      A                      A
 Frequencies --    763.3096               807.8149               847.5870
 Red. masses --      7.1078                 1.4563                 1.3785
 Frc consts  --      2.4400                 0.5599                 0.5835
 IR Inten    --      1.5130                29.0852                17.2743

                     40                     41                     42
                      A                      A                      A
 Frequencies --    885.5067               888.4159               905.0199
 Red. masses --      1.4402                 1.7401                 1.4804
 Frc consts  --      0.6654                 0.8092                 0.7144
 IR Inten    --     28.7460               129.0277                11.8104

                     43                     44                     45
                      A                      A                      A
 Frequencies --    920.0924               943.7668               977.8606
 Red. masses --      1.3993                 4.2656                 1.2813
 Frc consts  --      0.6979                 2.2385                 0.7219
 IR Inten    --      0.7598                 7.3345                 0.2079

                     46                     47                     48
                      A                      A                      A
 Frequencies --    984.0947               999.5963              1021.4146
 Red. masses --      1.2899                 2.8381                 5.9955
 Frc consts  --      0.7360                 1.6708                 3.6854
 IR Inten    --      0.1477                77.2406                 0.1714

                     49                     50                     51
                      A                      A                      A
 Frequencies --   1048.5079              1067.0095              1079.3252
 Red. masses --      1.5879                 6.1302                 1.5127
 Frc consts  --      1.0285                 4.1121                 1.0383
 IR Inten    --     21.8442                26.2545                 8.6844

                     52                     53                     54
                      A                      A                      A
 Frequencies --   1108.6691              1123.5153              1135.2200
 Red. masses --      1.5669                 1.6297                 2.9298
 Frc consts  --      1.1347                 1.2120                 2.2246
 IR Inten    --     29.1279                 2.5151               226.3902

                     55                     56                     57
                      A                      A                      A
 Frequencies --   1167.5535              1168.6782              1202.9263
 Red. masses --      1.6936                 1.6716                 1.2844
 Frc consts  --      1.3603                 1.3452                 1.0951
 IR Inten    --     50.2710                18.4013                 7.5876

                     58                     59                     60
                      A                      A                      A
 Frequencies --   1208.8483              1272.4372              1297.2788
 Red. masses --      1.5346                 3.9203                 2.6521
 Frc consts  --      1.3213                 3.7397                 2.6297
 IR Inten    --     15.9330                49.4752               301.0137

                     61                     62                     63
                      A                      A                      A
 Frequencies --   1313.7785              1328.1996              1334.8297
 Red. masses --      1.8597                 1.9666                 9.0734
 Frc consts  --      1.8912                 2.0440                 9.5252
 IR Inten    --     30.7988               228.1769               145.2559

                     64                     65                     66
                      A                      A                      A
 Frequencies --   1358.0751              1367.1085              1444.7334
 Red. masses --      6.4475                 4.1542                 1.2490
 Frc consts  --      7.0063                 4.5745                 1.5360
 IR Inten    --     30.1969                 3.3980                 3.4523

                     67                     68                     69
                      A                      A                      A
 Frequencies --   1453.8216              1480.5845              1507.6534
 Red. masses --      3.3347                 3.3532                 1.0485
 Frc consts  --      4.1527                 4.3309                 1.4042
 IR Inten    --      4.6536                83.9795                 3.9209

                     70                     71                     72
                      A                      A                      A
 Frequencies --   1519.1273              1530.9177              1539.6688
 Red. masses --      2.0747                 2.4382                 1.2839
 Frc consts  --      2.8210                 3.3669                 1.7932
 IR Inten    --     18.5532                88.3963                80.9983

                     73                     74                     75
                      A                      A                      A
 Frequencies --   1621.7125              1630.4151              1635.0437
 Red. masses --      1.1307                 5.6782                 5.6990
 Frc consts  --      1.7520                 8.8932                 8.9766
 IR Inten    --     46.2331               191.8697                12.5142

                     76                     77                     78
                      A                      A                      A
 Frequencies --   1655.2898              1668.0642              2354.9878
 Red. masses --      6.1193                 6.0663                12.6801
 Frc consts  --      9.8787                 9.9449                41.4334
 IR Inten    --    107.6869                 4.2810                26.8517

                     79                     80                     81
                      A                      A                      A
 Frequencies --   3068.6047              3134.8608              3149.2953
 Red. masses --      1.0356                 1.1003                 1.1035
 Frc consts  --      5.7455                 6.3709                 6.4485
 IR Inten    --     11.2626                 4.5813                 9.3379

                     82                     83                     84
                      A                      A                      A
 Frequencies --   3207.4643              3216.9242              3226.2292
 Red. masses --      1.0880                 1.0904                 1.0919
 Frc consts  --      6.5948                 6.6482                 6.6959
 IR Inten    --      5.8783                 6.5106                 3.3871

                     85                     86                     87
                      A                      A                      A
 Frequencies --   3226.8681              3232.4538              3237.9772
 Red. masses --      1.0896                 1.0960                 1.0926
 Frc consts  --      6.6844                 6.7474                 6.7491
 IR Inten    --      1.3804                 2.8308                 0.5378

                     88                     89                     90
                      A                      A                      A
 Frequencies --   3241.8703              3483.2659              3592.9763
 Red. masses --      1.0939                 1.0470                 1.0974
 Frc consts  --      6.7734                 7.4848                 8.3467
 IR Inten    --      3.2543                36.6896                31.1474

 - Thermochemistry -
 -------------------
 Temperature   298.150 Kelvin.  Pressure   1.00000 Atm.
 Atom     1 has atomic number  6 and mass  12.00000

 Molecular mass:   288.05686 amu.
 Principal axes and moments of inertia in atomic units:
                           1         2         3
     Eigenvalues --  1868.37958********************
           X            0.99996  -0.00028  -0.00892
           Y            0.00040   0.99990   0.01385
           Z            0.00892  -0.01386   0.99986
 This molecule is an asymmetric top.
 Rotational symmetry number  1.
 Warning -- assumption of classical behavior for rotation
           may cause significant error
 Rotational temperatures (Kelvin)      0.04636     0.00573     0.00559
 Rotational constants (GHZ):           0.96594     0.11942     0.11644
 Zero-point vibrational energy     628959.4 (Joules/Mol)
                                  150.32491 (Kcal/Mol)
 Warning -- explicit consideration of  30 degrees of freedom as
           vibrations may cause significant error
 Vibrational temperatures:     19.49    35.65    70.23   101.53   129.91
          (Kelvin)            191.45   202.92   223.44   251.20   257.89
                              310.42   319.37   342.56   356.26   440.24
                              496.51   524.75   531.50   575.57   589.63
                              643.29   668.99   672.50   696.68   723.72
                              771.85   808.69   821.92   838.17   876.62
                              933.14   979.42  1003.88  1007.38  1036.79
                             1065.69  1098.23  1162.27  1219.49  1274.05
                             1278.23  1302.12  1323.81  1357.87  1406.92
                             1415.89  1438.20  1469.59  1508.57  1535.19
                             1552.91  1595.13  1616.49  1633.33  1679.85
                             1681.47  1730.74  1739.26  1830.75  1866.49
                             1890.23  1910.98  1920.52  1953.97  1966.96
                             2078.65  2091.73  2130.23  2169.18  2185.69
                             2202.65  2215.24  2333.28  2345.80  2352.46
                             2381.59  2399.97  3388.30  4415.04  4510.37
                             4531.13  4614.83  4628.44  4641.82  4642.74
                             4650.78  4658.73  4664.33  5011.64  5169.49

 Zero-point correction=                           0.239558 (Hartree/Particle)
 Thermal correction to Energy=                    0.257650
 Thermal correction to Enthalpy=                  0.258594
 Thermal correction to Gibbs Free Energy=         0.191461
 Sum of electronic and zero-point Energies=          -1273.829421
 Sum of electronic and thermal Energies=             -1273.811329
 Sum of electronic and thermal Enthalpies=           -1273.810385
 Sum of electronic and thermal Free Energies=        -1273.877518

                     E (Thermal)             CV                S
                      KCal/Mol        Cal/Mol-Kelvin    Cal/Mol-Kelvin
 Total                  161.678             68.933            141.293
 Electronic               0.000              0.000              0.000
 Translational            0.889              2.981             42.872
 Rotational               0.889              2.981             34.436
 Vibrational            159.900             62.971             63.986
 Vibration     1          0.593              1.986              7.408
 Vibration     2          0.593              1.985              6.209
 Vibration     3          0.595              1.978              4.865
 Vibration     4          0.598              1.968              4.137
 Vibration     5          0.602              1.956              3.654
 Vibration     6          0.613              1.920              2.901
 Vibration     7          0.615              1.912              2.790
 Vibration     8          0.620              1.897              2.606
 Vibration     9          0.627              1.874              2.385
 Vibration    10          0.629              1.868              2.336
 Vibration    11          0.645              1.817              1.994
 Vibration    12          0.648              1.808              1.943
 Vibration    13          0.656              1.782              1.817
 Vibration    14          0.661              1.767              1.748
 Vibration    15          0.696              1.662              1.384
 Vibration    16          0.723              1.585              1.188
 Vibration    17          0.738              1.545              1.102
 Vibration    18          0.742              1.535              1.082
 Vibration    19          0.766              1.470              0.963
 Vibration    20          0.774              1.449              0.927
 Vibration    21          0.806              1.367              0.805
 Vibration    22          0.822              1.328              0.752
 Vibration    23          0.825              1.322              0.745
 Vibration    24          0.840              1.285              0.699
 Vibration    25          0.858              1.243              0.651
 Vibration    26          0.891              1.169              0.573
 Vibration    27          0.918              1.113              0.520
 Vibration    28          0.927              1.093              0.502
 Vibration    29          0.939              1.069              0.481
 Vibration    30          0.968              1.012              0.434

 Optimization completed.
    -- Stationary point found.
 Normal termination of Gaussian 16 at Mon Dec 14 17:41:28 2020.

 ----------------------------------------------------------------------
 # B3LYP/6-311++G(d,p) empiricaldispersion=gd3bj scf=xqc pop=npa geom=c
 heck
 ----------------------------------------------------------------------

 ---------------------------------------
 CID_43436551_JID_10014_Energie_neutraal
 ---------------------------------------
 Structure from the checkpoint file:  "JID_10014.chk"
 Charge =  0 Multiplicity = 1

 SCF Done:  E(RB3LYP) =  -1274.33586626     A.U. after   16 cycles
 Normal termination of Gaussian 16 at Mon Dec 14 17:47:09 2020.

 ----------------------------------------------------------------------
 # B3LYP/6-311++G(d,p) empiricaldispersion=gd3bj scf=xqc pop=npa geom=c
 heck
 ----------------------------------------------------------------------

 -------------------------------------
 CID_43436551_JID_10014_Energie_kation
 -------------------------------------
 Structure from the checkpoint file:  "JID_10014.chk"
 Charge =  1 Multiplicity = 2

 SCF Done:  E(UB3LYP) =  -1274.02122875     A.U. after   27 cycles
 Normal termination of Gaussian 16 at Mon Dec 14 18:00:05 2020.
 Gaussian 16:  ES64L-G16RevA.03 25-Dec-2016

 ----------------------------------------------------------------------
 # B3LYP/6-311++G(d,p) empiricaldispersion=gd3bj scf=xqc pop=npa geom=c
 heck
 ----------------------------------------------------------------------

 ------------------------------------
 CID_43436551_JID_10014_Energie_anion
 ------------------------------------
 Structure from the checkpoint file:  "JID_10014.chk"
 Charge = -1 Multiplicity = 2

                         Standard orientation:
 ---------------------------------------------------------------------
 Center     Atomic      Atomic             Coordinates (Angstroms)
 Number     Number       Type             X           Y           Z
 ---------------------------------------------------------------------
      1          6           0        1.821294   -2.131168   -0.641972
      2          6           0        1.473786   -0.700812   -0.321700
      3          6           0        2.440029    0.280386   -0.021610
      4          6           0        2.081452    1.599615    0.261846
      5          6           0        0.744180    1.977991    0.257380
      6          6           0       -0.222619    1.019191   -0.036733
      7          6           0        0.136621   -0.299020   -0.329542
      8          8           0       -1.528200    1.454373   -0.085165
      9          6           0       -2.552046    0.604044    0.274016
     10          6           0       -2.488172   -0.189950    1.423039
     11          6           0       -3.584159   -0.977350    1.772010
     12          6           0       -4.740605   -0.972463    0.995616
     13          6           0       -4.794928   -0.163464   -0.149863
     14          6           0       -3.695441    0.625915   -0.517553
     15          6           0       -5.978150   -0.148038   -0.958773
     16          7           0       -6.938932   -0.139188   -1.613687
     17         16           0        4.181106   -0.111423    0.072863
     18          8           0        4.893858    1.133986    0.377150
     19          8           0        4.379860   -1.311828    0.890673
     20          7           0        4.536557   -0.591546   -1.520145
     21          1           0        2.479361   -2.179369   -1.515573
     22          1           0        2.357025   -2.598514    0.188797
     23          1           0        0.916483   -2.707347   -0.851796
     24          1           0        2.859331    2.317500    0.493506
     25          1           0        0.439526    2.994741    0.478216
     26          1           0       -0.633728   -1.023664   -0.569616
     27          1           0       -1.590076   -0.185591    2.030928
     28          1           0       -3.536500   -1.593874    2.664071
     29          1           0       -5.596315   -1.580971    1.265362
     30          1           0       -3.725454    1.251706   -1.401685
     31          1           0        4.926226    0.195523   -2.036954
     32          1           0        5.211481   -1.353745   -1.472461
 ---------------------------------------------------------------------

 SCF Done:  E(UB3LYP) =  -1274.35855662     A.U. after   33 cycles
 SCF Done:  E(UB3LYP) =  -1274.35855662     a.u. after    1 cycles

 The electronic state is 2-A.
 Alpha  occ. eigenvalues --  -88.97649 -19.05845 -19.03135 -19.02986 -14.26386
 Alpha  occ. eigenvalues --  -14.17566 -10.13343 -10.11844 -10.10700 -10.10100
 Alpha  occ. eigenvalues --  -10.08321 -10.07800 -10.07781 -10.07729 -10.07501
 Alpha  occ. eigenvalues --  -10.07461 -10.06402 -10.06293 -10.05798 -10.04762
 Alpha  occ. eigenvalues --   -8.03818  -6.00140  -6.00071  -5.99862  -1.03369
 Alpha  occ. eigenvalues --   -0.97790  -0.92441  -0.83117  -0.77998  -0.77481
 Alpha  occ. eigenvalues --   -0.74445  -0.69087  -0.67514  -0.65073  -0.63527
 Alpha  occ. eigenvalues --   -0.60894  -0.57530  -0.53123  -0.52305  -0.50792
 Alpha  occ. eigenvalues --   -0.48502  -0.45694  -0.45275  -0.43932  -0.41944
 Alpha  occ. eigenvalues --   -0.39564  -0.38997  -0.37221  -0.36848  -0.36356
 Alpha  occ. eigenvalues --   -0.35150  -0.33701  -0.32977  -0.32634  -0.31764
 Alpha  occ. eigenvalues --   -0.31355  -0.29617  -0.29168  -0.27649  -0.27303
 Alpha  occ. eigenvalues --   -0.26525  -0.26386  -0.24977  -0.24630  -0.24125
 Alpha  occ. eigenvalues --   -0.23262  -0.22920  -0.22422  -0.21859  -0.21124
 Alpha  occ. eigenvalues --   -0.20730  -0.16453  -0.15592  -0.14592  -0.12337
 Alpha  occ. eigenvalues --    0.02829
 Alpha virt. eigenvalues --    0.04880   0.05754   0.07741   0.08016   0.08367
 Alpha virt. eigenvalues --    0.08974   0.09547   0.09982   0.10240   0.10903
 Alpha virt. eigenvalues --    0.11409   0.11819   0.12121   0.12655   0.13458

  Beta  occ. eigenvalues --  -88.97642 -19.05852 -19.03128 -19.02962 -14.26359
  Beta  occ. eigenvalues --  -14.17328 -10.13125 -10.11825 -10.10712 -10.10017
  Beta  occ. eigenvalues --  -10.08145 -10.07845 -10.07800 -10.07732 -10.07479
  Beta  occ. eigenvalues --  -10.07208 -10.06439 -10.06237 -10.05655 -10.04424
  Beta  occ. eigenvalues --   -8.03811  -6.00121  -6.00060  -5.99859  -1.03323
  Beta  occ. eigenvalues --   -0.97717  -0.92407  -0.83065  -0.77644  -0.77295
  Beta  occ. eigenvalues --   -0.74100  -0.68938  -0.67257  -0.64538  -0.63265
  Beta  occ. eigenvalues --   -0.60823  -0.57324  -0.52614  -0.52092  -0.50667
  Beta  occ. eigenvalues --   -0.48338  -0.45647  -0.45134  -0.43839  -0.41895
  Beta  occ. eigenvalues --   -0.39469  -0.38808  -0.36986  -0.36610  -0.36271
  Beta  occ. eigenvalues --   -0.35040  -0.33631  -0.32909  -0.32540  -0.31703
  Beta  occ. eigenvalues --   -0.31289  -0.29279  -0.28935  -0.27593  -0.26706
  Beta  occ. eigenvalues --   -0.26284  -0.26114  -0.24642  -0.24385  -0.23870
  Beta  occ. eigenvalues --   -0.22950  -0.22844  -0.22361  -0.21388  -0.20723
  Beta  occ. eigenvalues --   -0.20521  -0.15922  -0.14907  -0.13441  -0.11289
  Beta virt. eigenvalues --    0.05059   0.06641   0.07368   0.07990   0.08352
  Beta virt. eigenvalues --    0.08814   0.08962   0.09575   0.10022   0.10380
  Beta virt. eigenvalues --    0.10888   0.11379   0.11761   0.12095   0.12620

 Mulliken charges and spin densities:
               1          2
     1  C   -0.738540   0.016141
     2  C    0.677313  -0.017062
     3  C   -0.629103   0.054244
     4  C   -0.023341   0.117253
     5  C    0.071452  -0.057876
     6  C   -0.714999   0.088902
     7  C   -0.045498   0.091332
     8  O   -0.029178   0.005753
     9  C   -0.425165  -0.005594
    10  C    0.169537   0.313911
    11  C   -0.203200  -0.005714
    12  C   -0.253668   0.139898
    13  C    1.393037   0.156666
    14  C   -0.065313   0.034831
    15  C   -1.494206  -0.073324
    16  N   -0.299674   0.128393
    17  S    0.272919  -0.015546
    18  O   -0.127214   0.001208
    19  O   -0.277421   0.002586
    20  N   -0.434191  -0.016199
    21  H    0.185445   0.002716
    22  H    0.205009  -0.000069
    23  H    0.140192   0.001442
    24  H    0.233950  -0.010815
    25  H    0.161446   0.009805
    26  H    0.155830  -0.000913
    27  H    0.151244  -0.023315
    28  H    0.137637   0.002548
    29  H    0.147173  -0.007080
    30  H    0.178471   0.005331
    31  H    0.257583   0.015620
    32  H    0.222472   0.044926
 Sum of Mulliken charges =  -1.00000   1.00000

 Dipole moment (field-independent basis, Debye):
    X=             10.2315    Y=             -0.7699    Z=             -0.4121  Tot=             10.2687
 Quadrupole moment (field-independent basis, Debye-Ang):
   XX=           -262.7799   YY=           -133.0776   ZZ=           -137.3534
   XY=             -2.3170   XZ=            -34.3747   YZ=             -0.1442

 Summary of Natural Population Analysis:

                                       Natural Population
                Natural  -----------------------------------------------
    Atom  No    Charge         Core      Valence    Rydberg      Total
 -----------------------------------------------------------------------
      C    1   -0.30111      0.99963     2.29655    0.00493     3.30111
      C    2    0.00153      0.99948     1.99015    0.00884     2.99847
      C    3   -0.14751      0.99932     2.13401    0.01419     3.14751
      C    4   -0.06724      0.99956     2.05344    0.01424     3.06724
      C    5   -0.10682      0.99952     2.10310    0.00420     3.10682
      C    6    0.19570      0.99939     1.78944    0.01546     2.80430
      C    7   -0.13002      0.99947     2.12137    0.00918     3.13002
      O    8   -0.27025      0.99983     3.25905    0.01137     4.27025
      C    9    0.14670      0.99935     1.84115    0.01280     2.85330
      C   10   -0.06232      0.99952     2.05510    0.00771     3.06232
      C   11   -0.10922      0.99958     2.10072    0.00892     3.10922
      C   12   -0.06331      0.99955     2.05574    0.00802     3.06331
      C   13   -0.05361      0.99943     2.04419    0.00999     3.05361
      C   14   -0.08701      0.99949     2.08010    0.00743     3.08701
      C   15    0.14896      0.99964     1.83316    0.01823     2.85104
      N   16   -0.16896      0.99979     2.65819    0.01099     3.66896
      S   17    1.09594      4.99927     1.80349    0.10131     6.90406
      O   18   -0.46833      0.99991     3.46305    0.00538     4.46833
      O   19   -0.46649      0.99991     3.46094    0.00565     4.46649
      N   20   -0.51640      0.99979     3.00578    0.01084     4.01640
      H   21    0.10914      0.00000     0.38983    0.00103     0.39086
      H   22    0.11474      0.00000     0.38426    0.00099     0.38526
      H   23    0.10089      0.00000     0.39832    0.00079     0.39911
      H   24    0.11133      0.00000     0.38724    0.00144     0.38867
      H   25    0.10195      0.00000     0.39677    0.00128     0.39805
      H   26    0.11213      0.00000     0.38688    0.00099     0.38787
      H   27    0.10094      0.00000     0.39793    0.00112     0.39906
      H   28    0.09504      0.00000     0.40397    0.00099     0.40496
      H   29    0.09745      0.00000     0.40169    0.00086     0.40255
      H   30    0.10521      0.00000     0.39387    0.00092     0.39479
      H   31    0.19055      0.00000     0.30693    0.00252     0.30945
      H   32    0.19048      0.00000     0.30604    0.00347     0.30952
 =======================================================================
   * Total *    0.00007     23.99141    50.70246    0.30606    74.99993

 Normal termination of Gaussian 16 at Mon Dec 14 18:14:37 2020.
