 Gaussian 16, Revision A.03,

 -----------------------------------------------------------
 # opt freq B3LYP/6-31G(d) empiricaldispersion=gd3bj scf=xqc
 -----------------------------------------------------------

 ------------------------------
 CID_24977160_JID_4205_neutraal
 ------------------------------
 Symbolic Z-matrix:
 Charge =  0 Multiplicity = 1

 SCF Done:  E(RB3LYP) =  -613.637111358     A.U. after   17 cycles
 SCF Done:  E(RB3LYP) =  -613.672177298     A.U. after   15 cycles
 SCF Done:  E(RB3LYP) =  -613.689087411     A.U. after   14 cycles
 SCF Done:  E(RB3LYP) =  -613.692575265     A.U. after   14 cycles
 SCF Done:  E(RB3LYP) =  -613.692144501     A.U. after   14 cycles
 SCF Done:  E(RB3LYP) =  -613.693877649     A.U. after   14 cycles
 SCF Done:  E(RB3LYP) =  -613.692097117     A.U. after   14 cycles
 SCF Done:  E(RB3LYP) =  -613.694278685     A.U. after   14 cycles
 SCF Done:  E(RB3LYP) =  -613.694870100     A.U. after   13 cycles
 SCF Done:  E(RB3LYP) =  -613.694936232     A.U. after   11 cycles
 SCF Done:  E(RB3LYP) =  -613.695034610     A.U. after   10 cycles
 SCF Done:  E(RB3LYP) =  -613.695035254     A.U. after   10 cycles
 SCF Done:  E(RB3LYP) =  -613.695035329     A.U. after    8 cycles
 SCF Done:  E(RB3LYP) =  -613.695035393     A.U. after    7 cycles
 SCF Done:  E(RB3LYP) =  -613.695035416     A.U. after    7 cycles
 SCF Done:  E(RB3LYP) =  -613.695035419     A.U. after    7 cycles
 Optimization completed.
    -- Stationary point found.
 Normal termination of Gaussian 16 at Thu Dec 10 09:23:02 2020.

 --------------------------------------------------------------------
 #N Geom=AllCheck Guess=TCheck SCRF=Check GenChk RB3LYP/6-31G(d) Freq
 --------------------------------------------------------------------

 Structure from the checkpoint file:  "JID_4205.chk"
 ------------------------------
 CID_24977160_JID_4205_neutraal
 ------------------------------
 Charge =  0 Multiplicity = 1

 SCF Done:  E(RB3LYP) =  -613.695035419     A.U. after    1 cycles

  Exact polarizability: 222.986  -6.419 144.975   0.001  -0.001  49.061
 Approx polarizability: 346.178 -46.359 261.441   0.003  -0.002  74.607

                      1                      2                      3
                      A                      A                      A
 Frequencies --     13.8817                37.2724                55.2257
 Red. masses --      3.9787                 3.8221                 5.5725
 Frc consts  --      0.0005                 0.0031                 0.0100
 IR Inten    --      0.0393                 0.4593                 0.2486

                      4                      5                      6
                      A                      A                      A
 Frequencies --     95.4698               128.2348               141.3122
 Red. masses --      4.4529                 5.1200                 5.1815
 Frc consts  --      0.0239                 0.0496                 0.0610
 IR Inten    --      4.0928                 0.7338                 0.4111

                      7                      8                      9
                      A                      A                      A
 Frequencies --    183.2006               237.6751               240.7152
 Red. masses --      4.9147                 1.0382                 6.7851
 Frc consts  --      0.0972                 0.0346                 0.2316
 IR Inten    --      2.7304                 0.0060                 6.2760

                     10                     11                     12
                      A                      A                      A
 Frequencies --    290.2732               322.4239               369.5339
 Red. masses --      3.5991                 6.3190                 4.2505
 Frc consts  --      0.1787                 0.3870                 0.3420
 IR Inten    --      4.5683                 2.0942                 8.9350

                     13                     14                     15
                      A                      A                      A
 Frequencies --    416.2669               427.3484               450.5093
 Red. masses --      2.9801                 8.4077                 3.7755
 Frc consts  --      0.3042                 0.9047                 0.4515
 IR Inten    --      0.0931                 0.7585                 0.4026

                     16                     17                     18
                      A                      A                      A
 Frequencies --    481.1805               568.8404               628.0395
 Red. masses --      7.0633                 5.1966                 9.5812
 Frc consts  --      0.9636                 0.9907                 2.2266
 IR Inten    --      8.2252                 3.8896                 6.9108

                     19                     20                     21
                      A                      A                      A
 Frequencies --    634.4619               692.2393               708.3221
 Red. masses --      6.5877                 5.0165                 6.6353
 Frc consts  --      1.5624                 1.4163                 1.9614
 IR Inten    --      2.0477                 2.1220                19.5275

                     22                     23                     24
                      A                      A                      A
 Frequencies --    712.7146               782.0780               809.8888
 Red. masses --      1.5025                 1.3359                 2.5574
 Frc consts  --      0.4497                 0.4814                 0.9883
 IR Inten    --     60.3374                29.9057                 3.9769

                     25                     26                     27
                      A                      A                      A
 Frequencies --    834.6992               864.6188               890.7712
 Red. masses --      5.4196                 1.2493                 6.3612
 Frc consts  --      2.2247                 0.5503                 2.9739
 IR Inten    --     15.9762                 0.4310               101.3759

                     28                     29                     30
                      A                      A                      A
 Frequencies --    946.0352               961.8057               963.5983
 Red. masses --      1.4087                 1.2813                 4.8409
 Frc consts  --      0.7428                 0.6984                 2.6483
 IR Inten    --      0.6770                 0.0508                10.7050

                     31                     32                     33
                      A                      A                      A
 Frequencies --    980.9564              1009.3133              1023.9302
 Red. masses --      1.3429                 1.2839                 6.2285
 Frc consts  --      0.7614                 0.7706                 3.8475
 IR Inten    --      0.3552                 0.1338                 0.8749

                     34                     35                     36
                      A                      A                      A
 Frequencies --   1055.4787              1105.1972              1117.1352
 Red. masses --      2.2125                 2.0539                 2.2199
 Frc consts  --      1.4522                 1.4781                 1.6323
 IR Inten    --      6.6605                40.4353                20.4589

                     37                     38                     39
                      A                      A                      A
 Frequencies --   1189.0367              1193.8362              1196.2903
 Red. masses --      1.2650                 1.1469                 1.4740
 Frc consts  --      1.0538                 0.9631                 1.2428
 IR Inten    --      0.9959                14.6952                79.3679

                     40                     41                     42
                      A                      A                      A
 Frequencies --   1208.9918              1236.8909              1296.8903
 Red. masses --      1.4006                 1.5432                 4.0339
 Frc consts  --      1.2062                 1.3910                 3.9975
 IR Inten    --     14.6410                44.4408               359.8937

                     43                     44                     45
                      A                      A                      A
 Frequencies --   1350.7615              1369.9086              1373.1270
 Red. masses --      1.4856                 2.3692                 2.6136
 Frc consts  --      1.5970                 2.6196                 2.9034
 IR Inten    --     31.2460                61.6807                84.7750

                     46                     47                     48
                      A                      A                      A
 Frequencies --   1460.6965              1498.1748              1506.4330
 Red. masses --      1.3557                 2.2408                 1.3169
 Frc consts  --      1.7043                 2.9634                 1.7607
 IR Inten    --     18.7111                17.6338                 2.5777

                     49                     50                     51
                      A                      A                      A
 Frequencies --   1517.6352              1523.6444              1539.9599
 Red. masses --      1.0470                 1.0533                 2.2033
 Frc consts  --      1.4207                 1.4407                 3.0785
 IR Inten    --      8.8100                18.8620                 2.5090

                     52                     53                     54
                      A                      A                      A
 Frequencies --   1640.6562              1661.5206              1679.8363
 Red. masses --      5.7858                 5.6100                 6.2234
 Frc consts  --      9.1760                 9.1248                10.3469
 IR Inten    --     29.9428                28.1698               425.5145

                     55                     56                     57
                      A                      A                      A
 Frequencies --   1719.4824              2283.2701              3065.5299
 Red. masses --     11.1725                11.9443                 1.0297
 Frc consts  --     19.4624                36.6881                 5.7012
 IR Inten    --     74.8498               440.8506                19.2745

                     58                     59                     60
                      A                      A                      A
 Frequencies --   3143.6315              3170.0461              3173.2461
 Red. masses --      1.1075                 1.0857                 1.1054
 Frc consts  --      6.4484                 6.4283                 6.5583
 IR Inten    --     16.8282                 3.6904                23.9112

                     61                     62                     63
                      A                      A                      A
 Frequencies --   3186.5247              3197.6161              3209.4653
 Red. masses --      1.0856                 1.0899                 1.0948
 Frc consts  --      6.4948                 6.5656                 6.6442
 IR Inten    --      0.0261                16.4849                29.4778

                     64                     65                     66
                      A                      A                      A
 Frequencies --   3217.9708              3228.4372              3231.6990
 Red. masses --      1.0929                 1.0928                 1.0908
 Frc consts  --      6.6677                 6.7106                 6.7120
 IR Inten    --     16.1877                 7.3778                 4.7400

 - Thermochemistry -
 -------------------
 Temperature   298.150 Kelvin.  Pressure   1.00000 Atm.
 Atom     1 has atomic number  6 and mass  12.00000

 Molecular mass:   186.06808 amu.
 Principal axes and moments of inertia in atomic units:
                           1         2         3
     Eigenvalues --  1438.611455001.550216428.66732
           X            0.99998   0.00567   0.00000
           Y           -0.00567   0.99998  -0.00000
           Z           -0.00000   0.00000   1.00000
 This molecule is an asymmetric top.
 Rotational symmetry number  1.
 Warning -- assumption of classical behavior for rotation
           may cause significant error
 Rotational temperatures (Kelvin)      0.06021     0.01732     0.01347
 Rotational constants (GHZ):           1.25450     0.36084     0.28073
 Zero-point vibrational energy     493171.6 (Joules/Mol)
                                  117.87085 (Kcal/Mol)
 Warning -- explicit consideration of  17 degrees of freedom as
           vibrations may cause significant error
 Vibrational temperatures:     19.97    53.63    79.46   137.36   184.50
          (Kelvin)            203.32   263.58   341.96   346.34   417.64
                              463.90   531.68   598.92   614.86   648.18
                              692.31   818.43   903.61   912.85   995.98
                             1019.12  1025.44  1125.24  1165.25  1200.95
                             1243.99  1281.62  1361.13  1383.82  1386.40
                             1411.38  1452.18  1473.21  1518.60  1590.13
                             1607.31  1710.76  1717.66  1721.19  1739.47
                             1779.61  1865.94  1943.44  1970.99  1975.62
                             2101.62  2155.54  2167.42  2183.54  2192.18
                             2215.66  2360.54  2390.56  2416.91  2473.95
                             3285.12  4410.61  4522.98  4560.99  4565.59
                             4584.70  4600.66  4617.70  4629.94  4645.00
                             4649.69

 Zero-point correction=                           0.187839 (Hartree/Particle)
 Thermal correction to Energy=                    0.200809
 Thermal correction to Enthalpy=                  0.201753
 Thermal correction to Gibbs Free Energy=         0.145783
 Sum of electronic and zero-point Energies=           -613.507196
 Sum of electronic and thermal Energies=              -613.494227
 Sum of electronic and thermal Enthalpies=            -613.493283
 Sum of electronic and thermal Free Energies=         -613.549252

                     E (Thermal)             CV                S
                      KCal/Mol        Cal/Mol-Kelvin    Cal/Mol-Kelvin
 Total                  126.009             47.321            117.797
 Electronic               0.000              0.000              0.000
 Translational            0.889              2.981             41.569
 Rotational               0.889              2.981             32.203
 Vibrational            124.232             41.359             44.025
 Vibration     1          0.593              1.986              7.359
 Vibration     2          0.594              1.982              5.399
 Vibration     3          0.596              1.975              4.621
 Vibration     4          0.603              1.952              3.545
 Vibration     5          0.611              1.925              2.972
 Vibration     6          0.615              1.912              2.786
 Vibration     7          0.631              1.863              2.296
 Vibration     8          0.656              1.783              1.820
 Vibration     9          0.658              1.778              1.798
 Vibration    10          0.686              1.692              1.472
 Vibration    11          0.707              1.631              1.298
 Vibration    12          0.742              1.535              1.082
 Vibration    13          0.779              1.435              0.905
 Vibration    14          0.789              1.411              0.867
 Vibration    15          0.809              1.360              0.794
 Vibration    16          0.837              1.292              0.707
 Vibration    17          0.925              1.099              0.506

 Optimization completed.
    -- Stationary point found.
 Normal termination of Gaussian 16 at Thu Dec 10 09:28:29 2020.

 ----------------------------------------------------------------------
 # B3LYP/6-311++G(d,p) empiricaldispersion=gd3bj scf=xqc pop=npa geom=c
 heck
 ----------------------------------------------------------------------

 --------------------------------------
 CID_24977160_JID_4205_Energie_neutraal
 --------------------------------------
 Structure from the checkpoint file:  "JID_4205.chk"
 Charge =  0 Multiplicity = 1

 SCF Done:  E(RB3LYP) =  -613.864225513     A.U. after   16 cycles
 Normal termination of Gaussian 16 at Thu Dec 10 09:31:01 2020.

 ----------------------------------------------------------------------
 # B3LYP/6-311++G(d,p) empiricaldispersion=gd3bj scf=xqc pop=npa geom=c
 heck
 ----------------------------------------------------------------------

 ------------------------------------
 CID_24977160_JID_4205_Energie_kation
 ------------------------------------
 Structure from the checkpoint file:  "JID_4205.chk"
 Charge =  1 Multiplicity = 2

 SCF Done:  E(UB3LYP) =  -613.555355321     A.U. after   32 cycles
 Normal termination of Gaussian 16 at Thu Dec 10 09:38:14 2020.
 Gaussian 16:  ES64L-G16RevA.03 25-Dec-2016

 ----------------------------------------------------------------------
 # B3LYP/6-311++G(d,p) empiricaldispersion=gd3bj scf=xqc pop=npa geom=c
 heck
 ----------------------------------------------------------------------

 -----------------------------------
 CID_24977160_JID_4205_Energie_anion
 -----------------------------------
 Structure from the checkpoint file:  "JID_4205.chk"
 Charge = -1 Multiplicity = 2

                         Standard orientation:
 ---------------------------------------------------------------------
 Center     Atomic      Atomic             Coordinates (Angstroms)
 Number     Number       Type             X           Y           Z
 ---------------------------------------------------------------------
      1          6           0        2.523348   -1.806517   -0.000047
      2          8           0        3.875678   -1.344260   -0.000050
      3          6           0        4.123091   -0.029982    0.000003
      4          6           0        3.297233    1.045630    0.000032
      5          6           0        1.888187    1.110715    0.000025
      6          6           0        0.683730    1.300752    0.000028
      7          6           0       -0.730115    1.593980    0.000009
      8          8           0       -1.126539    2.756823   -0.000016
      9          6           0       -1.678774    0.440243    0.000008
     10          6           0       -3.054100    0.710122   -0.000047
     11          6           0       -3.970619   -0.336064   -0.000048
     12          6           0       -3.521538   -1.660293    0.000006
     13          6           0       -2.152713   -1.934849    0.000061
     14          6           0       -1.234350   -0.887181    0.000062
     15          1           0        2.586568   -2.895407   -0.000132
     16          1           0        1.996769   -1.459112   -0.893556
     17          1           0        1.996830   -1.459247    0.893551
     18          1           0        5.196215    0.136962    0.000016
     19          1           0        3.811567    2.004495    0.000060
     20          1           0       -3.374268    1.746482   -0.000087
     21          1           0       -5.035949   -0.124073   -0.000089
     22          1           0       -4.238518   -2.476567    0.000006
     23          1           0       -1.803378   -2.963462    0.000102
     24          1           0       -0.169228   -1.089915    0.000106
 ---------------------------------------------------------------------

 SCF Done:  E(UB3LYP) =  -613.896636377     A.U. after   23 cycles

 The electronic state is 2-A.
 Alpha  occ. eigenvalues --  -19.04675 -18.91779 -10.11622 -10.10557 -10.07744
 Alpha  occ. eigenvalues --  -10.05817 -10.04788 -10.04778 -10.04303 -10.04039
 Alpha  occ. eigenvalues --  -10.03522 -10.03274 -10.02193 -10.01626  -0.96429
 Alpha  occ. eigenvalues --   -0.85956  -0.72480  -0.67073  -0.63353  -0.62132
 Alpha  occ. eigenvalues --   -0.61721  -0.58311  -0.51229  -0.48211  -0.47221
 Alpha  occ. eigenvalues --   -0.44289  -0.41178  -0.39287  -0.38285  -0.36377
 Alpha  occ. eigenvalues --   -0.34155  -0.32062  -0.31708  -0.30259  -0.29562
 Alpha  occ. eigenvalues --   -0.28593  -0.26401  -0.26156  -0.24993  -0.23832
 Alpha  occ. eigenvalues --   -0.22552  -0.22475  -0.21236  -0.18204  -0.13136
 Alpha  occ. eigenvalues --   -0.12896  -0.12409  -0.09403  -0.08993   0.02509
 Alpha virt. eigenvalues --    0.07831   0.08388   0.09179   0.10164   0.10432
 Alpha virt. eigenvalues --    0.11380   0.11382   0.12142   0.12801   0.13329
 Alpha virt. eigenvalues --    0.13699   0.15205   0.16023   0.16529   0.16648

  Beta  occ. eigenvalues --  -19.04555 -18.91110 -10.11625 -10.10236 -10.07449
  Beta  occ. eigenvalues --  -10.05926 -10.04856 -10.04809 -10.04102 -10.03945
  Beta  occ. eigenvalues --  -10.03519 -10.03124 -10.01970 -10.01678  -0.96164
  Beta  occ. eigenvalues --   -0.84777  -0.72278  -0.66770  -0.63030  -0.61878
  Beta  occ. eigenvalues --   -0.61531  -0.58194  -0.50425  -0.47986  -0.47066
  Beta  occ. eigenvalues --   -0.43921  -0.41014  -0.39150  -0.38097  -0.36052
  Beta  occ. eigenvalues --   -0.33917  -0.31972  -0.31629  -0.30124  -0.29520
  Beta  occ. eigenvalues --   -0.28437  -0.25756  -0.24839  -0.24257  -0.23714
  Beta  occ. eigenvalues --   -0.22350  -0.21140  -0.20948  -0.16993  -0.12780
  Beta  occ. eigenvalues --   -0.12627  -0.11057  -0.08402  -0.08204
  Beta virt. eigenvalues --    0.07813   0.08370   0.08447   0.09158   0.10403
  Beta virt. eigenvalues --    0.11104   0.11366   0.11983   0.12131   0.12793
  Beta virt. eigenvalues --    0.13551   0.13684   0.15209   0.16222   0.16530

 Mulliken charges and spin densities:
               1          2
     1  C   -0.460903  -0.001008
     2  O   -0.149172   0.020175
     3  C   -0.240942   0.233790
     4  C   -0.411606  -0.083970
     5  C    0.340963   0.197038
     6  C    0.442437  -0.069407
     7  C   -1.180728   0.174638
     8  O   -0.371932   0.246627
     9  C    1.811692   0.022019
    10  C    0.439982   0.151646
    11  C   -0.547216  -0.051268
    12  C   -0.255425   0.162121
    13  C   -0.222012  -0.021940
    14  C   -1.407537   0.054285
    15  H    0.131759  -0.000204
    16  H    0.184906   0.001416
    17  H    0.184914   0.001419
    18  H    0.133892  -0.017856
    19  H    0.159489   0.004023
    20  H    0.178750  -0.010769
    21  H    0.121145   0.003222
    22  H    0.104232  -0.012173
    23  H    0.135662   0.000668
    24  H   -0.122350  -0.004494
 Sum of Mulliken charges =  -1.00000   1.00000

 Dipole moment (field-independent basis, Debye):
    X=              1.5188    Y=             -5.7425    Z=             -0.0000  Tot=              5.9400
 Quadrupole moment (field-independent basis, Debye-Ang):
   XX=           -116.4736   YY=           -107.2122   ZZ=            -91.5941
   XY=              4.6870   XZ=              0.0002   YZ=             -0.0000

 Summary of Natural Population Analysis:

                                       Natural Population
                Natural  -----------------------------------------------
    Atom  No    Charge         Core      Valence    Rydberg      Total
 -----------------------------------------------------------------------
      C    1   -0.10476      0.99961     2.09708    0.00807     3.10476
      O    2   -0.26294      0.99986     3.25305    0.01002     4.26294
      C    3    0.16310      0.99949     1.82289    0.01452     2.83690
      C    4   -0.22783      0.99953     2.21949    0.00880     3.22783
      C    5    0.01781      0.99921     1.97629    0.00669     2.98219
      C    6   -0.04823      0.99922     2.04090    0.00811     3.04823
      C    7    0.25216      0.99954     1.72945    0.01886     2.74784
      O    8   -0.21878      0.99988     3.21302    0.00588     4.21878
      C    9   -0.04851      0.99948     2.03976    0.00926     3.04851
      C   10   -0.05589      0.99953     2.04687    0.00950     3.05589
      C   11   -0.12723      0.99957     2.11831    0.00935     3.12723
      C   12   -0.07108      0.99958     2.06182    0.00968     3.07108
      C   13   -0.12269      0.99957     2.11367    0.00944     3.12269
      C   14   -0.07518      0.99953     2.06779    0.00786     3.07518
      H   15    0.08399      0.00000     0.41518    0.00083     0.41601
      H   16    0.09303      0.00000     0.40591    0.00106     0.40697
      H   17    0.09303      0.00000     0.40591    0.00106     0.40697
      H   18    0.07634      0.00000     0.42263    0.00103     0.42366
      H   19    0.10680      0.00000     0.39175    0.00145     0.39320
      H   20    0.10753      0.00000     0.39109    0.00138     0.39247
      H   21    0.09140      0.00000     0.40758    0.00102     0.40860
      H   22    0.08792      0.00000     0.41104    0.00104     0.41208
      H   23    0.09092      0.00000     0.40801    0.00107     0.40908
      H   24    0.09907      0.00000     0.39941    0.00152     0.40093
 =======================================================================
   * Total *    0.00000     13.99362    34.85890    0.14748    49.00000

 Normal termination of Gaussian 16 at Thu Dec 10 09:43:19 2020.
