 Gaussian 16, Revision A.03,

 -----------------------------------------------------------
 # opt freq B3LYP/6-31G(d) empiricaldispersion=gd3bj scf=xqc
 -----------------------------------------------------------

 ------------------------------
 CID_80895536_JID_7661_neutraal
 ------------------------------
 Symbolic Z-matrix:
 Charge =  0 Multiplicity = 1

 SCF Done:  E(RB3LYP) =  -1545.61782869     A.U. after   16 cycles
 SCF Done:  E(RB3LYP) =  -1545.62722155     A.U. after   15 cycles
 SCF Done:  E(RB3LYP) =  -1545.63301235     A.U. after   17 cycles
 SCF Done:  E(RB3LYP) =  -1545.63759863     A.U. after   17 cycles
 SCF Done:  E(RB3LYP) =  -1545.64290396     A.U. after   15 cycles
 SCF Done:  E(RB3LYP) =  -1545.64495764     A.U. after   16 cycles
 SCF Done:  E(RB3LYP) =  -1545.64749502     A.U. after   17 cycles
 SCF Done:  E(RB3LYP) =  -1545.64757149     A.U. after   15 cycles
 SCF Done:  E(RB3LYP) =  -1545.64794946     A.U. after   14 cycles
 SCF Done:  E(RB3LYP) =  -1545.64839446     A.U. after   14 cycles
 SCF Done:  E(RB3LYP) =  -1545.64905320     A.U. after   10 cycles
 SCF Done:  E(RB3LYP) =  -1545.64905338     A.U. after    8 cycles
 SCF Done:  E(RB3LYP) =  -1545.64905348     A.U. after    8 cycles
 SCF Done:  E(RB3LYP) =  -1545.64905350     A.U. after    8 cycles
 SCF Done:  E(RB3LYP) =  -1545.64905350     A.U. after    7 cycles
 Optimization completed.
    -- Stationary point found.
 Normal termination of Gaussian 16 at Fri Dec 11 13:08:41 2020.

 --------------------------------------------------------------------
 #N Geom=AllCheck Guess=TCheck SCRF=Check GenChk RB3LYP/6-31G(d) Freq
 --------------------------------------------------------------------

 Structure from the checkpoint file:  "JID_7661.chk"
 ------------------------------
 CID_80895536_JID_7661_neutraal
 ------------------------------
 Charge =  0 Multiplicity = 1

 SCF Done:  E(RB3LYP) =  -1545.64905350     A.U. after    1 cycles

  Exact polarizability: 232.213   0.017 143.082   0.908  -1.025  99.911
 Approx polarizability: 357.681   1.503 265.040  -7.311  -7.774 189.807

                      1                      2                      3
                      A                      A                      A
 Frequencies --     22.8114                34.5695                62.1193
 Red. masses --      6.7727                 6.9807                 8.0557
 Frc consts  --      0.0021                 0.0049                 0.0183
 IR Inten    --      0.4179                 0.0650                 0.1814

                      4                      5                      6
                      A                      A                      A
 Frequencies --     86.5088                96.0636               113.5394
 Red. masses --      7.4654                12.4422                 1.0722
 Frc consts  --      0.0329                 0.0676                 0.0081
 IR Inten    --      0.6552                 0.0383                 0.4298

                      7                      8                      9
                      A                      A                      A
 Frequencies --    174.9563               183.0999               205.7626
 Red. masses --     11.2733                10.5120                 5.0161
 Frc consts  --      0.2033                 0.2076                 0.1251
 IR Inten    --      4.8701                 0.2419                 1.5207

                     10                     11                     12
                      A                      A                      A
 Frequencies --    229.2549               257.4164               280.7365
 Red. masses --      7.2114                 5.8033                 6.8551
 Frc consts  --      0.2233                 0.2266                 0.3183
 IR Inten    --      0.3339                 2.4240                 5.0370

                     13                     14                     15
                      A                      A                      A
 Frequencies --    323.7872               370.6448               379.5538
 Red. masses --      9.4976                 4.7084                11.2666
 Frc consts  --      0.5867                 0.3811                 0.9563
 IR Inten    --      8.4659                 3.3803                 1.5852

                     16                     17                     18
                      A                      A                      A
 Frequencies --    392.5855               406.3552               461.2074
 Red. masses --      1.2264                 4.0303                12.3025
 Frc consts  --      0.1114                 0.3921                 1.5418
 IR Inten    --    216.8406                 9.6950                17.2722

                     19                     20                     21
                      A                      A                      A
 Frequencies --    476.2008               477.4086               548.8659
 Red. masses --      4.2364                 7.9297                 8.7279
 Frc consts  --      0.5660                 1.0649                 1.5491
 IR Inten    --     18.5593                18.7061                 2.9746

                     22                     23                     24
                      A                      A                      A
 Frequencies --    588.2435               593.9311               614.4235
 Red. masses --      6.8154                 5.2221                 9.9141
 Frc consts  --      1.3895                 1.0853                 2.2052
 IR Inten    --      4.2432                 0.7609                12.1229

                     25                     26                     27
                      A                      A                      A
 Frequencies --    645.9246               680.3442               683.9815
 Red. masses --      3.6342                 1.3870                 4.1994
 Frc consts  --      0.8933                 0.3782                 1.1575
 IR Inten    --      1.3908                 1.8601                 6.1614

                     28                     29                     30
                      A                      A                      A
 Frequencies --    705.8909               746.9467               786.8962
 Red. masses --     11.3575                10.2354                10.4965
 Frc consts  --      3.3343                 3.3646                 3.8294
 IR Inten    --      0.3371                 0.0169                27.7326

                     31                     32                     33
                      A                      A                      A
 Frequencies --    791.1738               804.8840               868.6234
 Red. masses --     10.2905                10.1064                13.4940
 Frc consts  --      3.7951                 3.8576                 5.9986
 IR Inten    --     20.3870                16.7976                42.4320

                     34                     35                     36
                      A                      A                      A
 Frequencies --    964.0540               987.3229              1003.2123
 Red. masses --      7.9001                 5.6521                 1.4678
 Frc consts  --      4.3260                 3.2462                 0.8704
 IR Inten    --     10.4088                50.9758                 0.5938

                     37                     38                     39
                      A                      A                      A
 Frequencies --   1025.0254              1048.2858              1065.2640
 Red. masses --      2.0256                 2.3333                 4.7449
 Frc consts  --      1.2539                 1.5107                 3.1724
 IR Inten    --     31.4694                32.8089                34.4362

                     40                     41                     42
                      A                      A                      A
 Frequencies --   1077.1350              1147.8923              1257.2458
 Red. masses --      1.5574                 5.2108                 4.2097
 Frc consts  --      1.0646                 4.0453                 3.9205
 IR Inten    --      2.9493                 6.7659                29.5791

                     43                     44                     45
                      A                      A                      A
 Frequencies --   1302.7488              1324.2364              1369.9371
 Red. masses --      7.9788                 5.5157                 6.4951
 Frc consts  --      7.9782                 5.6988                 7.1818
 IR Inten    --    186.9437                80.6216               153.3927

                     46                     47                     48
                      A                      A                      A
 Frequencies --   1376.8197              1419.7648              1424.7199
 Red. masses --      5.5884                 1.7659                 1.6955
 Frc consts  --      6.2415                 2.0973                 2.0277
 IR Inten    --     85.7608                65.5254                39.1170

                     49                     50                     51
                      A                      A                      A
 Frequencies --   1457.6329              1491.4485              1497.8497
 Red. masses --      3.4074                 2.1740                 1.3802
 Frc consts  --      4.2655                 2.8492                 1.8244
 IR Inten    --      4.1866                41.2917                44.3730

                     52                     53                     54
                      A                      A                      A
 Frequencies --   1506.0601              1556.0338              1564.2032
 Red. masses --      1.0447                 3.4271                 8.4126
 Frc consts  --      1.3962                 4.8889                12.1274
 IR Inten    --      7.4534                87.1509               191.9885

                     55                     56                     57
                      A                      A                      A
 Frequencies --   1574.8190              1626.5178              1666.1877
 Red. masses --      4.9143                 3.1142                 3.5756
 Frc consts  --      7.1809                 4.8542                 5.8485
 IR Inten    --     75.9150               173.2802               970.3906

                     58                     59                     60
                      A                      A                      A
 Frequencies --   3066.0274              3123.7708              3171.5728
 Red. masses --      1.0373                 1.1012                 1.1020
 Frc consts  --      5.7451                 6.3309                 6.5310
 IR Inten    --     11.2995                 8.4497                 5.7674

                     61                     62                     63
                      A                      A                      A
 Frequencies --   3198.1069              3570.8395              3709.3244
 Red. masses --      1.0915                 1.0443                 1.1067
 Frc consts  --      6.5774                 7.8451                 8.9713
 IR Inten    --     18.8256               117.1534               110.3369

 - Thermochemistry -
 -------------------
 Temperature   298.150 Kelvin.  Pressure   1.00000 Atm.
 Atom     1 has atomic number  6 and mass  12.00000

 Molecular mass:   269.99937 amu.
 Principal axes and moments of inertia in atomic units:
                           1         2         3
     Eigenvalues --  2086.499228010.850339069.48801
           X            0.99991  -0.00138   0.01311
           Y            0.00123   0.99993   0.01173
           Z           -0.01312  -0.01171   0.99985
 This molecule is an asymmetric top.
 Rotational symmetry number  1.
 Warning -- assumption of classical behavior for rotation
           may cause significant error
 Rotational temperatures (Kelvin)      0.04151     0.01081     0.00955
 Rotational constants (GHZ):           0.86496     0.22529     0.19899
 Zero-point vibrational energy     392786.5 (Joules/Mol)
                                   93.87822 (Kcal/Mol)
 Warning -- explicit consideration of  24 degrees of freedom as
           vibrations may cause significant error
 Vibrational temperatures:     32.82    49.74    89.38   124.47   138.21
          (Kelvin)            163.36   251.72   263.44   296.05   329.85
                              370.36   403.92   465.86   533.28   546.09
                              564.84   584.65   663.57   685.15   686.88
                              789.70   846.35   854.53   884.02   929.34
                              978.86   984.10  1015.62  1074.69  1132.17
                             1138.32  1158.05  1249.76  1387.06  1420.54
                             1443.40  1474.78  1508.25  1532.68  1549.76
                             1651.56  1808.90  1874.36  1905.28  1971.03
                             1980.94  2042.72  2049.85  2097.21  2145.86
                             2155.07  2166.88  2238.79  2250.54  2265.81
                             2340.20  2397.27  4411.33  4494.41  4563.19
                             4601.36  5137.64  5336.89

 Zero-point correction=                           0.149604 (Hartree/Particle)
 Thermal correction to Energy=                    0.164731
 Thermal correction to Enthalpy=                  0.165675
 Thermal correction to Gibbs Free Energy=         0.105132
 Sum of electronic and zero-point Energies=          -1545.499449
 Sum of electronic and thermal Energies=             -1545.484323
 Sum of electronic and thermal Enthalpies=           -1545.483379
 Sum of electronic and thermal Free Energies=        -1545.543921

                     E (Thermal)             CV                S
                      KCal/Mol        Cal/Mol-Kelvin    Cal/Mol-Kelvin
 Total                  103.370             55.300            127.422
 Electronic               0.000              0.000              0.000
 Translational            0.889              2.981             42.679
 Rotational               0.889              2.981             33.383
 Vibrational            101.593             49.339             51.361
 Vibration     1          0.593              1.985              6.373
 Vibration     2          0.594              1.983              5.548
 Vibration     3          0.597              1.972              4.389
 Vibration     4          0.601              1.959              3.738
 Vibration     5          0.603              1.952              3.533
 Vibration     6          0.607              1.938              3.207
 Vibration     7          0.627              1.873              2.382
 Vibration     8          0.631              1.863              2.297
 Vibration     9          0.640              1.832              2.081
 Vibration    10          0.652              1.796              1.885
 Vibration    11          0.667              1.750              1.679
 Vibration    12          0.680              1.709              1.529
 Vibration    13          0.708              1.628              1.291
 Vibration    14          0.743              1.533              1.077
 Vibration    15          0.750              1.514              1.041
 Vibration    16          0.760              1.486              0.990
 Vibration    17          0.771              1.456              0.940
 Vibration    18          0.819              1.336              0.763
 Vibration    19          0.833              1.303              0.720
 Vibration    20          0.834              1.300              0.717
 Vibration    21          0.904              1.142              0.547
 Vibration    22          0.945              1.057              0.470
 Vibration    23          0.952              1.045              0.460
 Vibration    24          0.974              1.001              0.426

 Optimization completed.
    -- Stationary point found.
 Normal termination of Gaussian 16 at Fri Dec 11 13:15:26 2020.

 ----------------------------------------------------------------------
 # B3LYP/6-311++G(d,p) empiricaldispersion=gd3bj scf=xqc pop=npa geom=c
 heck
 ----------------------------------------------------------------------

 --------------------------------------
 CID_80895536_JID_7661_Energie_neutraal
 --------------------------------------
 Structure from the checkpoint file:  "JID_7661.chk"
 Charge =  0 Multiplicity = 1

 SCF Done:  E(RB3LYP) =  -1545.91152762     A.U. after   17 cycles
 Normal termination of Gaussian 16 at Fri Dec 11 13:18:23 2020.

 ----------------------------------------------------------------------
 # B3LYP/6-311++G(d,p) empiricaldispersion=gd3bj scf=xqc pop=npa geom=c
 heck
 ----------------------------------------------------------------------

 ------------------------------------
 CID_80895536_JID_7661_Energie_kation
 ------------------------------------
 Structure from the checkpoint file:  "JID_7661.chk"
 Charge =  1 Multiplicity = 2

 SCF Done:  E(UB3LYP) =  -1545.57769690     A.U. after   33 cycles
 SCF Done:  E(UB3LYP) =  -1545.57769690     a.u. after    2 cycles
 Normal termination of Gaussian 16 at Fri Dec 11 13:33:29 2020.
 Gaussian 16:  ES64L-G16RevA.03 25-Dec-2016

 ----------------------------------------------------------------------
 # B3LYP/6-311++G(d,p) empiricaldispersion=gd3bj scf=xqc pop=npa geom=c
 heck
 ----------------------------------------------------------------------

 -----------------------------------
 CID_80895536_JID_7661_Energie_anion
 -----------------------------------
 Structure from the checkpoint file:  "JID_7661.chk"
 Charge = -1 Multiplicity = 2

                         Standard orientation:
 ---------------------------------------------------------------------
 Center     Atomic      Atomic             Coordinates (Angstroms)
 Number     Number       Type             X           Y           Z
 ---------------------------------------------------------------------
      1          6           0       -4.749810   -0.689918   -1.568994
      2          6           0       -3.735936   -0.227405   -0.570383
      3          7           0       -3.966243   -0.316277    0.725373
      4         16           0       -2.629037    0.290429    1.532581
      5          6           0       -1.816856    0.625163    0.031658
      6          7           0       -2.539508    0.305426   -1.005072
      7         16           0       -0.227506    1.428410   -0.065591
      8          6           0        0.790212   -0.031157    0.002574
      9          7           0        0.158844   -1.198314    0.120019
     10          6           0        0.922264   -2.295571    0.166346
     11          7           0        2.240118   -2.375033    0.105962
     12          6           0        2.916467   -1.209025   -0.013157
     13          6           0        2.202033    0.030495   -0.066543
     14          7           0        2.880809    1.283265   -0.186252
     15          8           0        2.194317    2.311293   -0.212790
     16          8           0        4.121823    1.304998   -0.258093
     17          7           0        4.249074   -1.310482   -0.072045
     18          1           0       -5.631193   -1.077697   -1.055797
     19          1           0       -5.044071    0.138610   -2.222121
     20          1           0       -4.324808   -1.473799   -2.205002
     21          1           0        0.387017   -3.237497    0.265375
     22          1           0        4.642821   -2.239343   -0.026159
     23          1           0        4.813915   -0.477618   -0.165958
 ---------------------------------------------------------------------

 SCF Done:  E(UB3LYP) =  -1545.96968231     A.U. after   24 cycles

 The electronic state is 2-A.
 Alpha  occ. eigenvalues --  -88.80464 -88.75129 -18.96606 -18.96365 -14.34367
 Alpha  occ. eigenvalues --  -14.23948 -14.22394 -14.21217 -14.18334 -14.18179
 Alpha  occ. eigenvalues --  -10.16037 -10.15344 -10.14238 -10.11987 -10.10204
 Alpha  occ. eigenvalues --  -10.09394 -10.09220  -7.88941  -7.83618  -5.85314
 Alpha  occ. eigenvalues --   -5.84822  -5.84494  -5.80070  -5.79580  -5.79002
 Alpha  occ. eigenvalues --   -1.04572  -0.91545  -0.87599  -0.87064  -0.81887
 Alpha  occ. eigenvalues --   -0.78554  -0.75381  -0.71083  -0.68986  -0.65334
 Alpha  occ. eigenvalues --   -0.61193  -0.57212  -0.52649  -0.49620  -0.49094
 Alpha  occ. eigenvalues --   -0.46198  -0.43733  -0.41584  -0.39484  -0.37456
 Alpha  occ. eigenvalues --   -0.37294  -0.36811  -0.36571  -0.34424  -0.33211
 Alpha  occ. eigenvalues --   -0.32177  -0.31243  -0.30972  -0.29710  -0.28516
 Alpha  occ. eigenvalues --   -0.25546  -0.25092  -0.22337  -0.20553  -0.19578
 Alpha  occ. eigenvalues --   -0.19283  -0.18754  -0.17078  -0.15932  -0.14589
 Alpha  occ. eigenvalues --   -0.14164  -0.12725  -0.12355  -0.11935   0.00587
 Alpha virt. eigenvalues --    0.04577   0.06768   0.08841   0.09136   0.09601
 Alpha virt. eigenvalues --    0.09860   0.10439   0.10589   0.10990   0.11463
 Alpha virt. eigenvalues --    0.12264   0.13182   0.13649   0.14253   0.14581

  Beta  occ. eigenvalues --  -88.80463 -88.75109 -18.96082 -18.95850 -14.33687
  Beta  occ. eigenvalues --  -14.23947 -14.22393 -14.21168 -14.18481 -14.18176
  Beta  occ. eigenvalues --  -10.16040 -10.15343 -10.14151 -10.11625 -10.09882
  Beta  occ. eigenvalues --  -10.09394 -10.09285  -7.88940  -7.83600  -5.85314
  Beta  occ. eigenvalues --   -5.84820  -5.84493  -5.80063  -5.79579  -5.78928
  Beta  occ. eigenvalues --   -1.03456  -0.91541  -0.87207  -0.86295  -0.81712
  Beta  occ. eigenvalues --   -0.78542  -0.75208  -0.71066  -0.68613  -0.65153
  Beta  occ. eigenvalues --   -0.61111  -0.56463  -0.52458  -0.49045  -0.48983
  Beta  occ. eigenvalues --   -0.46167  -0.43601  -0.41389  -0.39040  -0.37211
  Beta  occ. eigenvalues --   -0.36680  -0.36274  -0.34715  -0.34191  -0.33059
  Beta  occ. eigenvalues --   -0.31877  -0.30905  -0.30056  -0.29559  -0.28500
  Beta  occ. eigenvalues --   -0.25349  -0.24536  -0.22234  -0.20512  -0.19234
  Beta  occ. eigenvalues --   -0.18976  -0.18268  -0.17033  -0.14432  -0.13871
  Beta  occ. eigenvalues --   -0.13293  -0.11764  -0.11544  -0.11532
  Beta virt. eigenvalues --    0.04616   0.06751   0.07797   0.08846   0.09178
  Beta virt. eigenvalues --    0.09839   0.10385   0.10533   0.10713   0.11064
  Beta virt. eigenvalues --    0.12260   0.13115   0.13458   0.14056   0.14262

 Mulliken charges and spin densities:
               1          2
     1  C   -0.666839  -0.008305
     2  C   -0.392866   0.001904
     3  N   -0.063637   0.000527
     4  S    0.263538  -0.004283
     5  C    0.229540   0.030817
     6  N    0.160952  -0.003935
     7  S   -0.264615   0.017170
     8  C    0.007112   0.230732
     9  N    0.099787  -0.080632
    10  C    0.007540   0.230629
    11  N   -0.236278  -0.015529
    12  C    0.109081   0.039394
    13  C   -0.348295  -0.050551
    14  N   -0.400514   0.227438
    15  O   -0.139718   0.190451
    16  O   -0.214940   0.188623
    17  N   -0.354640   0.026715
    18  H    0.144981   0.000242
    19  H    0.155065   0.000361
    20  H    0.165078   0.000246
    21  H    0.164897  -0.017412
    22  H    0.263964  -0.001396
    23  H    0.310808  -0.003208
 Sum of Mulliken charges =  -1.00000   1.00000

 Dipole moment (field-independent basis, Debye):
    X=             -5.5954    Y=             -3.6428    Z=              0.2282  Tot=              6.6806
 Quadrupole moment (field-independent basis, Debye-Ang):
   XX=           -152.5015   YY=           -137.3959   ZZ=           -118.4229
   XY=            -15.6006   XZ=              6.7269   YZ=              3.8659

 Summary of Natural Population Analysis:

                                       Natural Population
                Natural  -----------------------------------------------
    Atom  No    Charge         Core      Valence    Rydberg      Total
 -----------------------------------------------------------------------
      C    1   -0.30120      0.99962     2.29699    0.00459     3.30120
      C    2    0.19185      0.99965     1.79166    0.01684     2.80815
      N    3   -0.33051      0.99970     2.81636    0.01445     3.83051
      S    4    0.29556      4.99934     2.67895    0.02616     7.70444
      C    5   -0.04964      0.99961     2.02726    0.02277     3.04964
      N    6   -0.25862      0.99960     2.74266    0.01635     3.75862
      S    7    0.19667      4.99939     2.78156    0.02238     7.80333
      C    8    0.11948      0.99946     1.86452    0.01654     2.88052
      N    9   -0.31547      0.99966     2.80045    0.01536     3.81547
      C   10    0.21412      0.99968     1.76718    0.01902     2.78588
      N   11   -0.29071      0.99968     2.77948    0.01155     3.79071
      C   12    0.22870      0.99956     1.75613    0.01561     2.77130
      C   13   -0.04512      0.99934     2.03095    0.01483     3.04512
      N   14    0.31302      0.99969     2.16177    0.02552     3.18698
      O   15   -0.18116      0.99990     3.17283    0.00844     4.18116
      O   16   -0.20874      0.99989     3.20073    0.00812     4.20874
      N   17   -0.37730      0.99968     2.86943    0.00820     3.87730
      H   18    0.10657      0.00000     0.39253    0.00090     0.39343
      H   19    0.10658      0.00000     0.39252    0.00090     0.39342
      H   20    0.10882      0.00000     0.39032    0.00086     0.39118
      H   21    0.07240      0.00000     0.42634    0.00126     0.42760
      H   22    0.18926      0.00000     0.30909    0.00165     0.31074
      H   23    0.21546      0.00000     0.28287    0.00167     0.28454
 =======================================================================
   * Total *   -0.00000     24.99345    43.73257    0.27398    69.00000

 Normal termination of Gaussian 16 at Fri Dec 11 13:38:45 2020.
