 Gaussian 16, Revision A.03,

 -----------------------------------------------------------
 # opt freq B3LYP/6-31G(d) empiricaldispersion=gd3bj scf=xqc
 -----------------------------------------------------------

 -------------------------------
 CID_130898924_JID_3353_neutraal
 -------------------------------
 Symbolic Z-matrix:
 Charge =  0 Multiplicity = 1

 SCF Done:  E(RB3LYP) =  -1294.61757125     A.U. after   15 cycles
 SCF Done:  E(RB3LYP) =  -1294.62268806     A.U. after   12 cycles
 SCF Done:  E(RB3LYP) =  -1294.62413809     A.U. after   12 cycles
 SCF Done:  E(RB3LYP) =  -1294.62482206     A.U. after   13 cycles
 SCF Done:  E(RB3LYP) =  -1294.62523167     A.U. after   12 cycles
 SCF Done:  E(RB3LYP) =  -1294.62536369     A.U. after   13 cycles
 SCF Done:  E(RB3LYP) =  -1294.62543308     A.U. after   12 cycles
 SCF Done:  E(RB3LYP) =  -1294.62562735     A.U. after   11 cycles
 SCF Done:  E(RB3LYP) =  -1294.62570263     A.U. after   11 cycles
 SCF Done:  E(RB3LYP) =  -1294.62570847     A.U. after    8 cycles
 SCF Done:  E(RB3LYP) =  -1294.62570926     A.U. after    9 cycles
 SCF Done:  E(RB3LYP) =  -1294.62570945     A.U. after    8 cycles
 SCF Done:  E(RB3LYP) =  -1294.62570945     A.U. after    7 cycles
 SCF Done:  E(RB3LYP) =  -1294.62570946     A.U. after    7 cycles
 Optimization completed.
    -- Stationary point found.
 Normal termination of Gaussian 16 at Wed Dec  9 22:59:25 2020.

 --------------------------------------------------------------------
 #N Geom=AllCheck Guess=TCheck SCRF=Check GenChk RB3LYP/6-31G(d) Freq
 --------------------------------------------------------------------

 Structure from the checkpoint file:  "JID_3353.chk"
 -------------------------------
 CID_130898924_JID_3353_neutraal
 -------------------------------
 Charge =  0 Multiplicity = 1

 SCF Done:  E(RB3LYP) =  -1294.62570946     A.U. after    1 cycles

  Exact polarizability: 189.304  -0.564 145.833   2.934  -6.482  63.694
 Approx polarizability: 300.619  12.356 257.489   3.695 -20.744 104.334

                      1                      2                      3
                      A                      A                      A
 Frequencies --     74.8846                95.7659               120.3058
 Red. masses --      3.3003                 4.6083                 4.9040
 Frc consts  --      0.0109                 0.0249                 0.0418
 IR Inten    --      2.0559                 1.8948                 1.0422

                      4                      5                      6
                      A                      A                      A
 Frequencies --    135.7327               156.5208               186.0279
 Red. masses --      3.8909                 1.1842                 1.1799
 Frc consts  --      0.0422                 0.0171                 0.0241
 IR Inten    --      3.6614                 0.2817                 9.1435

                      7                      8                      9
                      A                      A                      A
 Frequencies --    216.0956               244.8214               262.2685
 Red. masses --      7.6766                 4.6771                 6.3403
 Frc consts  --      0.2112                 0.1652                 0.2570
 IR Inten    --      0.4721                 1.9055                 5.5243

                     10                     11                     12
                      A                      A                      A
 Frequencies --    322.9316               328.8062               340.6405
 Red. masses --      9.1418                 7.1141                 5.2762
 Frc consts  --      0.5617                 0.4532                 0.3607
 IR Inten    --      7.7297                 2.0342                 1.7961

                     13                     14                     15
                      A                      A                      A
 Frequencies --    392.4803               420.9543               473.0421
 Red. masses --      6.0725                11.3209                 4.7918
 Frc consts  --      0.5511                 1.1820                 0.6318
 IR Inten    --      6.6610                 0.0783                 0.7697

                     16                     17                     18
                      A                      A                      A
 Frequencies --    558.3712               564.3016               598.9564
 Red. masses --      2.4162                 1.5502                 5.2450
 Frc consts  --      0.4438                 0.2908                 1.1086
 IR Inten    --     29.0875                64.1421                 2.7740

                     19                     20                     21
                      A                      A                      A
 Frequencies --    626.9187               655.6766               664.2823
 Red. masses --      6.4694                 3.3611                 3.3107
 Frc consts  --      1.4981                 0.8513                 0.8608
 IR Inten    --      1.9856                10.6132                 3.8618

                     22                     23                     24
                      A                      A                      A
 Frequencies --    715.2179               733.2850               773.2368
 Red. masses --      7.0637                 2.1287                 9.9412
 Frc consts  --      2.1289                 0.6744                 3.5020
 IR Inten    --      7.9921                16.6975                18.3384

                     25                     26                     27
                      A                      A                      A
 Frequencies --    778.7364               840.2123               859.4057
 Red. masses --      3.0827                 4.7111                 1.4573
 Frc consts  --      1.1015                 1.9595                 0.6341
 IR Inten    --     13.4052                21.8961                26.0749

                     28                     29                     30
                      A                      A                      A
 Frequencies --    903.1460               927.6282               987.2208
 Red. masses --      1.3271                 1.2295                 6.0477
 Frc consts  --      0.6378                 0.6234                 3.4727
 IR Inten    --      4.2654                26.6079                26.3511

                     31                     32                     33
                      A                      A                      A
 Frequencies --   1067.6204              1097.1930              1131.5502
 Red. masses --      3.2905                 3.2182                 1.6770
 Frc consts  --      2.2097                 2.2826                 1.2651
 IR Inten    --      4.9868                50.5287                11.7003

                     34                     35                     36
                      A                      A                      A
 Frequencies --   1144.0203              1186.1153              1198.8674
 Red. masses --      4.0663                 1.2506                 1.4709
 Frc consts  --      3.1356                 1.0366                 1.2456
 IR Inten    --     57.3814                 1.3804                80.0331

                     37                     38                     39
                      A                      A                      A
 Frequencies --   1227.3119              1268.8452              1329.2953
 Red. masses --      1.4939                 1.7995                 2.1160
 Frc consts  --      1.3258                 1.7069                 2.2029
 IR Inten    --     16.3861               145.3566                41.9025

                     40                     41                     42
                      A                      A                      A
 Frequencies --   1376.3991              1406.0517              1448.4676
 Red. masses --      4.7531                 3.5148                 4.3582
 Frc consts  --      5.3053                 4.0941                 5.3873
 IR Inten    --     78.6666                34.9418                84.1796

                     43                     44                     45
                      A                      A                      A
 Frequencies --   1477.8912              1512.4300              1518.1315
 Red. masses --      2.3116                 1.7302                 1.0704
 Frc consts  --      2.9747                 2.3318                 1.4535
 IR Inten    --     35.4009                 3.6024                 7.5430

                     46                     47                     48
                      A                      A                      A
 Frequencies --   1530.6774              1557.1388              1614.4034
 Red. masses --      1.0512                 5.2104                 6.0140
 Frc consts  --      1.4511                 7.4434                 9.2350
 IR Inten    --      4.7453                44.8326                98.4636

                     49                     50                     51
                      A                      A                      A
 Frequencies --   1657.7695              2649.0475              3045.8605
 Red. masses --      7.3408                 1.0391                 1.0319
 Frc consts  --     11.8861                 4.2960                 5.6401
 IR Inten    --     71.3382                16.7835                42.6243

                     52                     53                     54
                      A                      A                      A
 Frequencies --   3115.9637              3164.4658              3220.7037
 Red. masses --      1.1069                 1.1035                 1.0910
 Frc consts  --      6.3320                 6.5108                 6.6679
 IR Inten    --     22.9093                25.5629                 2.7160

                     55                     56                     57
                      A                      A                      A
 Frequencies --   3225.1643              3265.1388              3602.9177
 Red. masses --      1.0906                 1.0976                 1.0645
 Frc consts  --      6.6835                 6.8942                 8.1413
 IR Inten    --      6.5452                 1.4628               113.4006

 - Thermochemistry -
 -------------------
 Temperature   298.150 Kelvin.  Pressure   1.00000 Atm.
 Atom     1 has atomic number  6 and mass  12.00000

 Molecular mass:   211.99657 amu.
 Principal axes and moments of inertia in atomic units:
                           1         2         3
     Eigenvalues --  1800.937333394.769025047.96677
           X            0.99964  -0.02658   0.00372
           Y            0.02653   0.99956   0.01330
           Z           -0.00407  -0.01319   0.99990
 This molecule is an asymmetric top.
 Rotational symmetry number  1.
 Warning -- assumption of classical behavior for rotation
           may cause significant error
 Rotational temperatures (Kelvin)      0.04809     0.02551     0.01716
 Rotational constants (GHZ):           1.00211     0.53162     0.35752
 Zero-point vibrational energy     394751.6 (Joules/Mol)
                                   94.34790 (Kcal/Mol)
 Warning -- explicit consideration of  18 degrees of freedom as
           vibrations may cause significant error
 Vibrational temperatures:    107.74   137.79   173.09   195.29   225.20
          (Kelvin)            267.65   310.91   352.24   377.35   464.63
                              473.08   490.11   564.69   605.66   680.60
                              803.37   811.90   861.76   902.00   943.37
                              955.75  1029.04  1055.03  1112.52  1120.43
                             1208.88  1236.49  1299.43  1334.65  1420.39
                             1536.07  1578.62  1628.05  1645.99  1706.56
                             1724.90  1765.83  1825.59  1912.56  1980.33
                             2022.99  2084.02  2126.36  2176.05  2184.25
                             2202.30  2240.38  2322.77  2385.16  3811.39
                             4382.31  4483.18  4552.96  4633.87  4640.29
                             4697.81  5183.79

 Zero-point correction=                           0.150353 (Hartree/Particle)
 Thermal correction to Energy=                    0.162590
 Thermal correction to Enthalpy=                  0.163535
 Thermal correction to Gibbs Free Energy=         0.111846
 Sum of electronic and zero-point Energies=          -1294.475357
 Sum of electronic and thermal Energies=             -1294.463119
 Sum of electronic and thermal Enthalpies=           -1294.462175
 Sum of electronic and thermal Free Energies=        -1294.513863

                     E (Thermal)             CV                S
                      KCal/Mol        Cal/Mol-Kelvin    Cal/Mol-Kelvin
 Total                  102.027             46.125            108.788
 Electronic               0.000              0.000              0.000
 Translational            0.889              2.981             41.958
 Rotational               0.889              2.981             31.801
 Vibrational            100.250             40.163             35.029
 Vibration     1          0.599              1.966              4.021
 Vibration     2          0.603              1.952              3.539
 Vibration     3          0.609              1.932              3.095
 Vibration     4          0.614              1.918              2.863
 Vibration     5          0.620              1.895              2.591
 Vibration     6          0.632              1.859              2.267
 Vibration     7          0.645              1.817              1.992
 Vibration     8          0.660              1.771              1.768
 Vibration     9          0.670              1.742              1.647
 Vibration    10          0.708              1.630              1.295
 Vibration    11          0.712              1.618              1.266
 Vibration    12          0.720              1.594              1.209
 Vibration    13          0.760              1.486              0.991
 Vibration    14          0.783              1.425              0.889
 Vibration    15          0.830              1.310              0.729
 Vibration    16          0.914              1.121              0.527
 Vibration    17          0.920              1.108              0.515
 Vibration    18          0.957              1.034              0.451

 Optimization completed.
    -- Stationary point found.
 Normal termination of Gaussian 16 at Wed Dec  9 23:04:58 2020.

 ----------------------------------------------------------------------
 # B3LYP/6-311++G(d,p) empiricaldispersion=gd3bj scf=xqc pop=npa geom=c
 heck
 ----------------------------------------------------------------------

 ---------------------------------------
 CID_130898924_JID_3353_Energie_neutraal
 ---------------------------------------
 Structure from the checkpoint file:  "JID_3353.chk"
 Charge =  0 Multiplicity = 1

 SCF Done:  E(RB3LYP) =  -1294.82204387     A.U. after   16 cycles
 Normal termination of Gaussian 16 at Wed Dec  9 23:07:36 2020.

 ----------------------------------------------------------------------
 # B3LYP/6-311++G(d,p) empiricaldispersion=gd3bj scf=xqc pop=npa geom=c
 heck
 ----------------------------------------------------------------------

 -------------------------------------
 CID_130898924_JID_3353_Energie_kation
 -------------------------------------
 Structure from the checkpoint file:  "JID_3353.chk"
 Charge =  1 Multiplicity = 2

 SCF Done:  E(UB3LYP) =  -1294.53748236     A.U. after   24 cycles
 Normal termination of Gaussian 16 at Wed Dec  9 23:13:16 2020.
 Gaussian 16:  ES64L-G16RevA.03 25-Dec-2016

 ----------------------------------------------------------------------
 # B3LYP/6-311++G(d,p) empiricaldispersion=gd3bj scf=xqc pop=npa geom=c
 heck
 ----------------------------------------------------------------------

 ------------------------------------
 CID_130898924_JID_3353_Energie_anion
 ------------------------------------
 Structure from the checkpoint file:  "JID_3353.chk"
 Charge = -1 Multiplicity = 2

                         Standard orientation:
 ---------------------------------------------------------------------
 Center     Atomic      Atomic             Coordinates (Angstroms)
 Number     Number       Type             X           Y           Z
 ---------------------------------------------------------------------
      1          6           0       -0.525627    2.795993    0.802694
      2          8           0       -0.417365    2.019883   -0.398838
      3          6           0       -0.269809    0.674086   -0.183828
      4          6           0        1.008928    0.124160   -0.104757
      5          6           0        1.202306   -1.266641    0.080235
      6          6           0        0.089632   -2.113330    0.174477
      7          6           0       -1.189844   -1.575107    0.079962
      8          6           0       -1.376983   -0.176934   -0.092903
      9         16           0       -3.044749    0.473776   -0.141989
     10          8           0       -2.244164   -2.425222    0.157979
     11          6           0        2.605015   -1.593291    0.135979
     12          6           0        3.407319   -0.505954   -0.004959
     13         16           0        2.529111    0.993791   -0.222754
     14          1           0       -0.586629    3.838080    0.484434
     15          1           0        0.357665    2.654365    1.436486
     16          1           0       -1.429985    2.525986    1.358312
     17          1           0        0.201738   -3.183836    0.307199
     18          1           0       -3.115316    0.729788   -1.467943
     19          1           0       -3.058161   -1.894547    0.050763
     20          1           0        2.978258   -2.602007    0.273010
     21          1           0        4.489232   -0.484081   -0.000905
 ---------------------------------------------------------------------

 SCF Done:  E(UB3LYP) =  -1294.81842702     A.U. after   33 cycles
 SCF Done:  E(UB3LYP) =  -1294.81842702     a.u. after    1 cycles

 The electronic state is 2-A.
 Alpha  occ. eigenvalues --  -88.73242 -88.72162 -19.02023 -19.01500 -10.10266
 Alpha  occ. eigenvalues --  -10.10120 -10.08845 -10.05839 -10.05423 -10.05164
 Alpha  occ. eigenvalues --  -10.03892 -10.03586 -10.02293  -7.81865  -7.80816
 Alpha  occ. eigenvalues --   -5.78184  -5.77831  -5.77405  -5.77159  -5.76804
 Alpha  occ. eigenvalues --   -5.76269  -0.93443  -0.93096  -0.74843  -0.69388
 Alpha  occ. eigenvalues --   -0.64291  -0.62326  -0.58791  -0.57045  -0.54672
 Alpha  occ. eigenvalues --   -0.47053  -0.46333  -0.43335  -0.40855  -0.37659
 Alpha  occ. eigenvalues --   -0.35827  -0.34519  -0.33478  -0.32862  -0.30431
 Alpha  occ. eigenvalues --   -0.28928  -0.27026  -0.26477  -0.25713  -0.25216
 Alpha  occ. eigenvalues --   -0.24132  -0.22891  -0.21419  -0.20748  -0.17160
 Alpha  occ. eigenvalues --   -0.15703  -0.14518  -0.13068  -0.09334  -0.07842
 Alpha  occ. eigenvalues --    0.05456
 Alpha virt. eigenvalues --    0.08261   0.08834   0.09346   0.10337   0.11412
 Alpha virt. eigenvalues --    0.12122   0.12459   0.13036   0.13327   0.13719
 Alpha virt. eigenvalues --    0.14394   0.15115   0.15560   0.15868   0.16070

  Beta  occ. eigenvalues --  -88.73221 -88.72139 -19.02027 -19.01489 -10.10233
  Beta  occ. eigenvalues --  -10.10168 -10.08627 -10.05896 -10.05210 -10.04792
  Beta  occ. eigenvalues --  -10.03724 -10.03593 -10.02146  -7.81845  -7.80783
  Beta  occ. eigenvalues --   -5.78177  -5.77825  -5.77327  -5.77127  -5.76791
  Beta  occ. eigenvalues --   -5.76243  -0.93435  -0.93012  -0.74582  -0.69031
  Beta  occ. eigenvalues --   -0.63941  -0.62017  -0.58655  -0.56778  -0.54400
  Beta  occ. eigenvalues --   -0.46659  -0.46234  -0.43000  -0.40753  -0.37549
  Beta  occ. eigenvalues --   -0.35658  -0.34256  -0.33269  -0.32746  -0.30191
  Beta  occ. eigenvalues --   -0.28646  -0.26798  -0.26283  -0.25584  -0.24925
  Beta  occ. eigenvalues --   -0.23732  -0.22683  -0.21210  -0.20600  -0.16333
  Beta  occ. eigenvalues --   -0.15628  -0.13812  -0.12768  -0.08099  -0.07009
  Beta virt. eigenvalues --    0.08416   0.08895   0.09307   0.10330   0.10709
  Beta virt. eigenvalues --    0.11604   0.12016   0.12751   0.13281   0.13469
  Beta virt. eigenvalues --    0.13778   0.14567   0.15217   0.15683   0.15938

 Mulliken charges and spin densities:
               1          2
     1  C   -0.312217   0.053761
     2  O   -0.143990   0.000915
     3  C   -0.893024   0.099834
     4  C    0.052706   0.185560
     5  C    1.030117   0.070027
     6  C   -0.838910   0.041143
     7  C   -1.694456   0.034123
     8  C    1.741355   0.500948
     9  S    0.426323  -1.032596
    10  O   -0.207453  -0.002927
    11  C    0.453198  -0.060900
    12  C   -0.215794   0.297021
    13  S   -0.705450   0.013246
    14  H    0.123211  -0.002101
    15  H    0.117468   0.002203
    16  H    0.101433   0.008664
    17  H    0.096265   0.009682
    18  H   -0.535173   0.666331
    19  H    0.118975   0.131438
    20  H    0.100616  -0.000545
    21  H    0.184803  -0.015829
 Sum of Mulliken charges =  -1.00000   1.00000

 Dipole moment (field-independent basis, Debye):
    X=              2.1293    Y=              1.2606    Z=              2.5656  Tot=              3.5645
 Quadrupole moment (field-independent basis, Debye-Ang):
   XX=           -127.7414   YY=           -108.1476   ZZ=           -106.9817
   XY=             -1.6234   XZ=             -5.0156   YZ=              4.4061

 Summary of Natural Population Analysis:

                                       Natural Population
                Natural  -----------------------------------------------
    Atom  No    Charge         Core      Valence    Rydberg      Total
 -----------------------------------------------------------------------
      C    1   -0.09300      0.99960     2.08594    0.00746     3.09300
      O    2   -0.29087      0.99986     3.28127    0.00974     4.29087
      C    3    0.17959      0.99922     1.80500    0.01619     2.82041
      C    4   -0.12455      0.99935     2.11476    0.01043     3.12455
      C    5   -0.00546      0.99948     1.99723    0.00874     3.00546
      C    6   -0.10528      0.99949     2.09765    0.00815     3.10528
      C    7    0.14989      0.99935     1.83507    0.01569     2.85011
      C    8   -0.10503      0.99934     2.09512    0.01057     3.10503
      S    9   -0.02824      4.99959     3.01064    0.01801     8.02824
      O   10   -0.35383      0.99987     3.34678    0.00718     4.35383
      C   11   -0.13793      0.99950     2.12897    0.00946     3.13793
      C   12   -0.11087      0.99953     2.10061    0.01073     3.11087
      S   13    0.16967      4.99947     2.80804    0.02281     7.83033
      H   14    0.08250      0.00000     0.41662    0.00088     0.41750
      H   15    0.08136      0.00000     0.41731    0.00133     0.41864
      H   16    0.08494      0.00000     0.41374    0.00132     0.41506
      H   17    0.09648      0.00000     0.40218    0.00134     0.40352
      H   18    0.08100      0.00000     0.40840    0.01061     0.41900
      H   19    0.23748      0.00000     0.25865    0.00386     0.26252
      H   20    0.09766      0.00000     0.40132    0.00101     0.40234
      H   21    0.09451      0.00000     0.40459    0.00090     0.40549
 =======================================================================
   * Total *    0.00000     20.99364    33.82992    0.17644    55.00000

 Normal termination of Gaussian 16 at Wed Dec  9 23:20:55 2020.
