 Gaussian 16, Revision A.03,

 -----------------------------------------------------------
 # opt freq B3LYP/6-31G(d) empiricaldispersion=gd3bj scf=xqc
 -----------------------------------------------------------

 -------------------------------
 CID_121484899_JID_2918_neutraal
 -------------------------------
 Symbolic Z-matrix:
 Charge =  0 Multiplicity = 1

 SCF Done:  E(RB3LYP) =  -606.747122738     A.U. after   15 cycles
 SCF Done:  E(RB3LYP) =  -606.750357410     A.U. after   12 cycles
 SCF Done:  E(RB3LYP) =  -606.750778809     A.U. after   13 cycles
 SCF Done:  E(RB3LYP) =  -606.750591543     A.U. after   13 cycles
 SCF Done:  E(RB3LYP) =  -606.750930076     A.U. after   12 cycles
 SCF Done:  E(RB3LYP) =  -606.750900988     A.U. after   12 cycles
 SCF Done:  E(RB3LYP) =  -606.750969907     A.U. after   11 cycles
 SCF Done:  E(RB3LYP) =  -606.751003924     A.U. after   10 cycles
 SCF Done:  E(RB3LYP) =  -606.751035264     A.U. after   11 cycles
 SCF Done:  E(RB3LYP) =  -606.751052355     A.U. after   11 cycles
 SCF Done:  E(RB3LYP) =  -606.751065360     A.U. after   11 cycles
 SCF Done:  E(RB3LYP) =  -606.751070228     A.U. after   11 cycles
 SCF Done:  E(RB3LYP) =  -606.751071223     A.U. after    9 cycles
 SCF Done:  E(RB3LYP) =  -606.751071473     A.U. after    9 cycles
 Optimization completed.
    -- Stationary point found.
 Normal termination of Gaussian 16 at Wed Dec  9 18:12:41 2020.

 --------------------------------------------------------------------
 #N Geom=AllCheck Guess=TCheck SCRF=Check GenChk RB3LYP/6-31G(d) Freq
 --------------------------------------------------------------------

 Structure from the checkpoint file:  "JID_2918.chk"
 -------------------------------
 CID_121484899_JID_2918_neutraal
 -------------------------------
 Charge =  0 Multiplicity = 1

 SCF Done:  E(RB3LYP) =  -606.751071473     A.U. after    1 cycles

  Exact polarizability: 128.948  -1.699  98.370  -4.657  -1.380  51.423
 Approx polarizability: 202.744  -7.017 150.002 -11.121  -2.270  78.338

                      1                      2                      3
                      A                      A                      A
 Frequencies --     34.4435                38.7098                83.8968
 Red. masses --      7.7110                 3.1639                 4.1922
 Frc consts  --      0.0054                 0.0028                 0.0174
 IR Inten    --      1.1823                 0.0859                 1.8828

                      4                      5                      6
                      A                      A                      A
 Frequencies --    109.0855               154.8080               177.9070
 Red. masses --      4.2820                 8.2017                 2.4122
 Frc consts  --      0.0300                 0.1158                 0.0450
 IR Inten    --     10.1853                 2.6662                 1.4588

                      7                      8                      9
                      A                      A                      A
 Frequencies --    205.2514               242.7992               260.9708
 Red. masses --      5.2966                 1.4464                 2.6279
 Frc consts  --      0.1315                 0.0502                 0.1054
 IR Inten    --      1.3929                 2.0697                 1.5374

                     10                     11                     12
                      A                      A                      A
 Frequencies --    346.3102               386.1751               399.2562
 Red. masses --      4.0436                 3.9526                 5.4256
 Frc consts  --      0.2857                 0.3473                 0.5096
 IR Inten    --      4.7950                 1.9339                 4.3533

                     13                     14                     15
                      A                      A                      A
 Frequencies --    486.3833               533.8698               595.4435
 Red. masses --      6.8467                 4.0921                 1.5038
 Frc consts  --      0.9543                 0.6872                 0.3141
 IR Inten    --      3.7742                17.1159                51.7458

                     16                     17                     18
                      A                      A                      A
 Frequencies --    647.9940               681.1385               702.5903
 Red. masses --      3.9401                 3.7203                 3.2676
 Frc consts  --      0.9748                 1.0170                 0.9503
 IR Inten    --     18.9841                26.5477                56.8391

                     19                     20                     21
                      A                      A                      A
 Frequencies --    746.4788               786.3738               804.7470
 Red. masses --      4.0547                 4.4435                 1.7230
 Frc consts  --      1.3312                 1.6190                 0.6574
 IR Inten    --     49.9564                 9.4672                18.2432

                     22                     23                     24
                      A                      A                      A
 Frequencies --    814.1261               825.3259               975.8608
 Red. masses --      1.5494                 2.3787                 2.4800
 Frc consts  --      0.6050                 0.9547                 1.3915
 IR Inten    --     20.9580                50.9554                 9.2816

                     25                     26                     27
                      A                      A                      A
 Frequencies --   1017.9648              1045.7698              1111.6102
 Red. masses --      1.7831                 5.1008                 2.0610
 Frc consts  --      1.0887                 3.2867                 1.5005
 IR Inten    --      0.3983                 3.1023                19.9700

                     28                     29                     30
                      A                      A                      A
 Frequencies --   1127.2590              1133.3837              1181.9692
 Red. masses --      3.5428                 1.8274                 1.7121
 Frc consts  --      2.6524                 1.3831                 1.4092
 IR Inten    --    182.7552                26.4592                52.6714

                     31                     32                     33
                      A                      A                      A
 Frequencies --   1243.3232              1274.4416              1353.8040
 Red. masses --      2.4195                 1.9719                 1.9264
 Frc consts  --      2.2037                 1.8870                 2.0802
 IR Inten    --    163.2634                 2.7053                17.0163

                     34                     35                     36
                      A                      A                      A
 Frequencies --   1372.6258              1400.1714              1413.2687
 Red. masses --      2.8735                 1.6960                 2.2500
 Frc consts  --      3.1898                 1.9590                 2.6478
 IR Inten    --     63.8958                10.3904                28.5458

                     37                     38                     39
                      A                      A                      A
 Frequencies --   1439.7399              1453.5434              1492.5691
 Red. masses --      1.2749                 1.5823                 3.2814
 Frc consts  --      1.5570                 1.9697                 4.3070
 IR Inten    --     11.8858                 1.1553                17.9582

                     40                     41                     42
                      A                      A                      A
 Frequencies --   1513.7610              1519.1653              1524.2910
 Red. masses --      1.1480                 1.0577                 6.0950
 Frc consts  --      1.5499                 1.4382                 8.3437
 IR Inten    --      2.6729                11.4418                37.8645

                     43                     44                     45
                      A                      A                      A
 Frequencies --   1537.2984              1577.6811              1808.5861
 Red. masses --      1.1072                 4.9164                10.0927
 Frc consts  --      1.5417                 7.2100                19.4508
 IR Inten    --      5.5652                92.8655               135.3576

                     46                     47                     48
                      A                      A                      A
 Frequencies --   1847.9425              2883.7374              3065.7895
 Red. masses --     10.2626                 1.0822                 1.0355
 Frc consts  --     20.6482                 5.3022                 5.7344
 IR Inten    --    352.9433               150.9397                16.5725

                     49                     50                     51
                      A                      A                      A
 Frequencies --   3088.9612              3128.9671              3140.9683
 Red. masses --      1.0595                 1.1051                 1.1040
 Frc consts  --      5.9565                 6.3744                 6.4173
 IR Inten    --     21.1032                 4.7232                26.2942

                     52                     53                     54
                      A                      A                      A
 Frequencies --   3157.5942              3273.7805              3689.2292
 Red. masses --      1.1047                 1.0977                 1.0639
 Frc consts  --      6.4894                 6.9318                 8.5314
 IR Inten    --     15.8289                 0.0471                63.7782

 - Thermochemistry -
 -------------------
 Temperature   298.150 Kelvin.  Pressure   1.00000 Atm.
 Atom     1 has atomic number  6 and mass  12.00000

 Molecular mass:   168.05349 amu.
 Principal axes and moments of inertia in atomic units:
                           1         2         3
     Eigenvalues --  1255.347912667.984883699.59879
           X            0.99997   0.00419   0.00608
           Y           -0.00413   0.99994  -0.01007
           Z           -0.00612   0.01004   0.99993
 This molecule is an asymmetric top.
 Rotational symmetry number  1.
 Warning -- assumption of classical behavior for rotation
           may cause significant error
 Rotational temperatures (Kelvin)      0.06900     0.03246     0.02341
 Rotational constants (GHZ):           1.43764     0.67644     0.48782
 Zero-point vibrational energy     399906.5 (Joules/Mol)
                                   95.57994 (Kcal/Mol)
 Warning -- explicit consideration of  15 degrees of freedom as
           vibrations may cause significant error
 Vibrational temperatures:     49.56    55.69   120.71   156.95   222.73
          (Kelvin)            255.97   295.31   349.33   375.48   498.26
                              555.62   574.44   699.80   768.12   856.71
                              932.32   980.01  1010.87  1074.02  1131.42
                             1157.85  1171.35  1187.46  1404.05  1464.62
                             1504.63  1599.36  1621.87  1630.69  1700.59
                             1788.86  1833.64  1947.82  1974.90  2014.53
                             2033.38  2071.46  2091.32  2147.47  2177.96
                             2185.74  2193.11  2211.83  2269.93  2602.15
                             2658.78  4149.05  4410.99  4444.33  4501.89
                             4519.15  4543.07  4710.24  5307.98

 Zero-point correction=                           0.152316 (Hartree/Particle)
 Thermal correction to Energy=                    0.163765
 Thermal correction to Enthalpy=                  0.164710
 Thermal correction to Gibbs Free Energy=         0.113257
 Sum of electronic and zero-point Energies=           -606.598755
 Sum of electronic and thermal Energies=              -606.587306
 Sum of electronic and thermal Enthalpies=            -606.586362
 Sum of electronic and thermal Free Energies=         -606.637814

                     E (Thermal)             CV                S
                      KCal/Mol        Cal/Mol-Kelvin    Cal/Mol-Kelvin
 Total                  102.764             40.428            108.290
 Electronic               0.000              0.000              0.000
 Translational            0.889              2.981             41.265
 Rotational               0.889              2.981             30.894
 Vibrational            100.987             34.467             36.130
 Vibration     1          0.594              1.983              5.555
 Vibration     2          0.594              1.981              5.324
 Vibration     3          0.601              1.960              3.798
 Vibration     4          0.606              1.942              3.285
 Vibration     5          0.620              1.897              2.612
 Vibration     6          0.628              1.870              2.350
 Vibration     7          0.640              1.832              2.086
 Vibration     8          0.659              1.775              1.782
 Vibration     9          0.669              1.744              1.655
 Vibration    10          0.724              1.583              1.183
 Vibration    11          0.755              1.500              1.015
 Vibration    12          0.765              1.472              0.965
 Vibration    13          0.842              1.280              0.693
 Vibration    14          0.889              1.175              0.579
 Vibration    15          0.953              1.041              0.458

                           ! Non-Optimized Parameters !
 Normal termination of Gaussian 16 at Wed Dec  9 18:16:52 2020.

 ----------------------------------------------------------------------
 # B3LYP/6-311++G(d,p) empiricaldispersion=gd3bj scf=xqc pop=npa geom=c
 heck
 ----------------------------------------------------------------------

 ---------------------------------------
 CID_121484899_JID_2918_Energie_neutraal
 ---------------------------------------
 Structure from the checkpoint file:  "JID_2918.chk"
 Charge =  0 Multiplicity = 1

 SCF Done:  E(RB3LYP) =  -606.931901603     A.U. after   16 cycles
 Normal termination of Gaussian 16 at Wed Dec  9 18:18:49 2020.

 ----------------------------------------------------------------------
 # B3LYP/6-311++G(d,p) empiricaldispersion=gd3bj scf=xqc pop=npa geom=c
 heck
 ----------------------------------------------------------------------

 -------------------------------------
 CID_121484899_JID_2918_Energie_kation
 -------------------------------------
 Structure from the checkpoint file:  "JID_2918.chk"
 Charge =  1 Multiplicity = 2

 SCF Done:  E(UB3LYP) =  -606.593388870     A.U. after   30 cycles
 Normal termination of Gaussian 16 at Wed Dec  9 18:23:41 2020.
 Gaussian 16:  ES64L-G16RevA.03 25-Dec-2016

 ----------------------------------------------------------------------
 # B3LYP/6-311++G(d,p) empiricaldispersion=gd3bj scf=xqc pop=npa geom=c
 heck
 ----------------------------------------------------------------------

 ------------------------------------
 CID_121484899_JID_2918_Energie_anion
 ------------------------------------
 Structure from the checkpoint file:  "JID_2918.chk"
 Charge = -1 Multiplicity = 2

                         Standard orientation:
 ---------------------------------------------------------------------
 Center     Atomic      Atomic             Coordinates (Angstroms)
 Number     Number       Type             X           Y           Z
 ---------------------------------------------------------------------
      1          6           0        3.641231   -0.427841    0.782106
      2          6           0        3.012134    0.115802   -0.498246
      3          7           0        1.568211    0.285980   -0.361792
      4          6           0        0.866697    1.434581   -0.239055
      5          6           0       -0.468525    1.086352   -0.073424
      6          6           0       -0.454377   -0.341890   -0.111704
      7          7           0        0.782760   -0.809065   -0.282505
      8          6           0       -1.607600   -1.275894   -0.089405
      9          8           0       -2.725988   -0.997359   -0.455616
     10          8           0       -1.259128   -2.501200    0.370976
     11          6           0       -1.538113    2.058677    0.173303
     12          8           0       -2.668819    1.805203    0.533264
     13          1           0        3.490143    0.265259    1.615932
     14          1           0        4.717101   -0.571064    0.638773
     15          1           0        3.190397   -1.389088    1.042414
     16          1           0        3.423828    1.093099   -0.765385
     17          1           0        3.180094   -0.565357   -1.336826
     18          1           0        1.346486    2.403000   -0.263442
     19          1           0       -2.069991   -3.039814    0.305031
     20          1           0       -1.212040    3.113677    0.023150
 ---------------------------------------------------------------------

 SCF Done:  E(UB3LYP) =  -606.938253703     A.U. after   33 cycles
 SCF Done:  E(UB3LYP) =  -606.938253703     a.u. after    1 cycles

 The electronic state is 2-A.
 Alpha  occ. eigenvalues --  -19.03993 -18.97022 -18.94293 -14.27885 -14.20835
 Alpha  occ. eigenvalues --  -10.16217 -10.11437 -10.08766 -10.08566 -10.07163
 Alpha  occ. eigenvalues --  -10.06973 -10.04260  -0.97769  -0.93783  -0.88455
 Alpha  occ. eigenvalues --   -0.87875  -0.74038  -0.67953  -0.64317  -0.56563
 Alpha  occ. eigenvalues --   -0.54036  -0.48994  -0.45908  -0.42963  -0.39717
 Alpha  occ. eigenvalues --   -0.37598  -0.35233  -0.34538  -0.34455  -0.32959
 Alpha  occ. eigenvalues --   -0.31641  -0.29434  -0.29031  -0.27834  -0.27169
 Alpha  occ. eigenvalues --   -0.26631  -0.25429  -0.23946  -0.19755  -0.18165
 Alpha  occ. eigenvalues --   -0.15205  -0.14216  -0.12943  -0.09896   0.04306
 Alpha virt. eigenvalues --    0.06117   0.08276   0.09120   0.09168   0.10192
 Alpha virt. eigenvalues --    0.10915   0.11562   0.13098   0.13653   0.14191
 Alpha virt. eigenvalues --    0.15958   0.16288   0.16510   0.16907   0.17598

  Beta  occ. eigenvalues --  -19.03957 -18.96855 -18.93871 -14.27963 -14.20708
  Beta  occ. eigenvalues --  -10.16086 -10.11409 -10.08541 -10.08440 -10.07036
  Beta  occ. eigenvalues --  -10.06957 -10.04218  -0.97603  -0.93719  -0.88180
  Beta  occ. eigenvalues --   -0.87144  -0.73935  -0.67714  -0.64141  -0.56309
  Beta  occ. eigenvalues --   -0.53614  -0.48703  -0.45709  -0.42793  -0.39460
  Beta  occ. eigenvalues --   -0.37470  -0.35060  -0.34431  -0.34300  -0.32670
  Beta  occ. eigenvalues --   -0.31157  -0.29204  -0.28889  -0.27545  -0.26956
  Beta  occ. eigenvalues --   -0.26479  -0.25203  -0.22105  -0.19140  -0.17951
  Beta  occ. eigenvalues --   -0.14905  -0.13528  -0.12049  -0.09524
  Beta virt. eigenvalues --    0.07033   0.08818   0.09100   0.09221   0.09510
  Beta virt. eigenvalues --    0.11005   0.11467   0.11723   0.13151   0.13983
  Beta virt. eigenvalues --    0.14562   0.16023   0.16306   0.16761   0.16932

 Mulliken charges and spin densities:
               1          2
     1  C   -0.074717  -0.411265
     2  C    0.415904  -0.577584
     3  N    0.179483   0.049221
     4  C   -0.450282   0.060838
     5  C    1.188638  -0.150376
     6  C   -0.144788  -0.143208
     7  N   -0.215610   0.117119
     8  C   -0.153462   0.067880
     9  O   -0.308111   0.055281
    10  O   -0.179673   0.003850
    11  C   -0.523555   0.214280
    12  O   -0.332770   0.139134
    13  H    0.103278   0.034105
    14  H   -0.246246   0.372291
    15  H    0.141931   0.028699
    16  H   -0.666277   0.814691
    17  H    0.146994   0.010261
    18  H   -0.166846   0.339450
    19  H    0.261582   0.000738
    20  H    0.024530  -0.025404
 Sum of Mulliken charges =  -1.00000   1.00000

 Dipole moment (field-independent basis, Debye):
    X=              2.1044    Y=             -3.0702    Z=              0.4836  Tot=              3.7535
 Quadrupole moment (field-independent basis, Debye-Ang):
   XX=           -131.1692   YY=            -88.9349   ZZ=            -81.2917
   XY=              3.8630   XZ=              3.5769   YZ=             -0.4403

 Summary of Natural Population Analysis:

                                       Natural Population
                Natural  -----------------------------------------------
    Atom  No    Charge         Core      Valence    Rydberg      Total
 -----------------------------------------------------------------------
      C    1   -0.29104      0.99966     2.28613    0.00525     3.29104
      C    2   -0.07933      0.99962     2.06803    0.01168     3.07933
      N    3   -0.11719      0.99966     2.60415    0.01339     3.61719
      C    4    0.02504      0.99952     1.96283    0.01261     2.97496
      C    5   -0.09694      0.99947     2.08670    0.01077     3.09694
      C    6    0.05152      0.99949     1.93291    0.01608     2.94848
      N    7   -0.12739      0.99970     2.61651    0.01117     3.62739
      C    8    0.40398      0.99968     1.57263    0.02371     2.59602
      O    9   -0.28318      0.99987     3.27570    0.00761     4.28318
      O   10   -0.34330      0.99988     3.33760    0.00582     4.34330
      C   11    0.22693      0.99969     1.75337    0.02001     2.77307
      O   12   -0.23479      0.99988     3.22752    0.00739     4.23479
      H   13    0.09873      0.00000     0.40042    0.00085     0.40127
      H   14    0.09896      0.00000     0.39982    0.00122     0.40104
      H   15    0.10706      0.00000     0.39194    0.00100     0.39294
      H   16    0.10055      0.00000     0.39666    0.00279     0.39945
      H   17    0.09874      0.00000     0.39999    0.00128     0.40126
      H   18    0.10061      0.00000     0.39780    0.00159     0.39939
      H   19    0.23098      0.00000     0.26605    0.00296     0.26902
      H   20    0.03004      0.00000     0.46746    0.00249     0.46996
 =======================================================================
   * Total *   -0.00000     11.99612    31.84420    0.15967    44.00000

 Normal termination of Gaussian 16 at Wed Dec  9 18:28:54 2020.
