 Gaussian 16, Revision A.03,

 -----------------------------------------------------------
 # opt freq B3LYP/6-31G(d) empiricaldispersion=gd3bj scf=xqc
 -----------------------------------------------------------

 -------------------------------
 CID_137927325_JID_8907_neutraal
 -------------------------------
 Symbolic Z-matrix:
 Charge =  0 Multiplicity = 1

 SCF Done:  E(RB3LYP) =  -765.805304736     A.U. after   14 cycles
 SCF Done:  E(RB3LYP) =  -765.810148026     A.U. after   13 cycles
 SCF Done:  E(RB3LYP) =  -765.807657773     A.U. after   13 cycles
 SCF Done:  E(RB3LYP) =  -765.810868062     A.U. after   12 cycles
 SCF Done:  E(RB3LYP) =  -765.812945365     A.U. after   12 cycles
 SCF Done:  E(RB3LYP) =  -765.814271409     A.U. after   12 cycles
 SCF Done:  E(RB3LYP) =  -765.815102795     A.U. after   12 cycles
 SCF Done:  E(RB3LYP) =  -765.815419061     A.U. after   11 cycles
 SCF Done:  E(RB3LYP) =  -765.815457947     A.U. after   11 cycles
 SCF Done:  E(RB3LYP) =  -765.815672187     A.U. after   10 cycles
 SCF Done:  E(RB3LYP) =  -765.815746908     A.U. after   10 cycles
 SCF Done:  E(RB3LYP) =  -765.815750132     A.U. after    9 cycles
 SCF Done:  E(RB3LYP) =  -765.815750788     A.U. after    8 cycles
 SCF Done:  E(RB3LYP) =  -765.815750917     A.U. after    7 cycles
 SCF Done:  E(RB3LYP) =  -765.815750935     A.U. after    6 cycles
 Optimization completed.
    -- Stationary point found.
 Normal termination of Gaussian 16 at Fri Dec 11 23:04:34 2020.

 --------------------------------------------------------------------
 #N Geom=AllCheck Guess=TCheck SCRF=Check GenChk RB3LYP/6-31G(d) Freq
 --------------------------------------------------------------------

 Structure from the checkpoint file:  "JID_8907.chk"
 -------------------------------
 CID_137927325_JID_8907_neutraal
 -------------------------------
 Charge =  0 Multiplicity = 1

 SCF Done:  E(RB3LYP) =  -765.815750935     A.U. after    1 cycles

  Exact polarizability: 184.902  -0.295 179.007  14.424  -0.957 137.039
 Approx polarizability: 261.990  -2.851 283.897  26.350   1.735 195.316

                      1                      2                      3
                      A                      A                      A
 Frequencies --     35.4308                44.0454                65.9990
 Red. masses --      3.6173                 4.0575                 2.9862
 Frc consts  --      0.0027                 0.0046                 0.0077
 IR Inten    --      0.1409                 0.1010                 1.4572

                      4                      5                      6
                      A                      A                      A
 Frequencies --     80.8289                94.7459               106.7676
 Red. masses --      2.6794                 2.6542                 2.8723
 Frc consts  --      0.0103                 0.0140                 0.0193
 IR Inten    --      0.6111                 1.3303                 0.0986

                      7                      8                      9
                      A                      A                      A
 Frequencies --    132.5029               162.6808               203.1918
 Red. masses --      2.6539                 2.9348                 2.1703
 Frc consts  --      0.0275                 0.0458                 0.0528
 IR Inten    --      1.5663                 1.3961                 1.4402

                     10                     11                     12
                      A                      A                      A
 Frequencies --    206.5230               241.2906               256.1682
 Red. masses --      3.4543                 1.6799                 3.4577
 Frc consts  --      0.0868                 0.0576                 0.1337
 IR Inten    --      4.5482                 3.1403                 2.3954

                     13                     14                     15
                      A                      A                      A
 Frequencies --    278.9716               301.4131               322.1155
 Red. masses --      2.4899                 2.0171                 2.9825
 Frc consts  --      0.1142                 0.1080                 0.1823
 IR Inten    --      2.1096                 0.9711                 0.4618

                     16                     17                     18
                      A                      A                      A
 Frequencies --    331.9216               366.5571               372.0496
 Red. masses --      2.7102                 3.1409                 2.1662
 Frc consts  --      0.1759                 0.2486                 0.1767
 IR Inten    --      3.3261                 5.1375                 0.5053

                     19                     20                     21
                      A                      A                      A
 Frequencies --    384.0623               433.3120               465.0695
 Red. masses --      2.6720                 3.0832                 2.1314
 Frc consts  --      0.2322                 0.3411                 0.2716
 IR Inten    --      8.6050                12.4343                 5.5935

                     22                     23                     24
                      A                      A                      A
 Frequencies --    476.2722               493.7914               518.6390
 Red. masses --      1.4196                 1.4225                 2.5031
 Frc consts  --      0.1897                 0.2044                 0.3967
 IR Inten    --     57.0907               251.2984                10.5862

                     25                     26                     27
                      A                      A                      A
 Frequencies --    527.6443               559.0012               599.4978
 Red. masses --      2.2844                 4.2368                 3.3959
 Frc consts  --      0.3747                 0.7800                 0.7191
 IR Inten    --      3.7985                 6.5959                10.6610

                     28                     29                     30
                      A                      A                      A
 Frequencies --    628.4206               668.8550               740.9306
 Red. masses --      3.3898                 3.5345                 5.9004
 Frc consts  --      0.7887                 0.9316                 1.9085
 IR Inten    --      0.0974                 3.0023                 5.5882

                     31                     32                     33
                      A                      A                      A
 Frequencies --    768.1624               773.6591               798.3319
 Red. masses --      1.6375                 4.7815                 1.6870
 Frc consts  --      0.5693                 1.6862                 0.6335
 IR Inten    --      1.6898                13.3580                 8.9542

                     34                     35                     36
                      A                      A                      A
 Frequencies --    805.9572               834.6706               845.5478
 Red. masses --      2.2403                 1.5254                 1.6043
 Frc consts  --      0.8574                 0.6261                 0.6758
 IR Inten    --     11.0763                 7.4874                 2.2181

                     37                     38                     39
                      A                      A                      A
 Frequencies --    851.3337               876.2793               889.2712
 Red. masses --      2.1577                 2.9022                 2.7923
 Frc consts  --      0.9214                 1.3130                 1.3010
 IR Inten    --     13.4752                 8.8875                 7.8827

                     40                     41                     42
                      A                      A                      A
 Frequencies --    925.9687               936.4856               951.9491
 Red. masses --      1.5198                 2.3474                 2.9483
 Frc consts  --      0.7678                 1.2129                 1.5742
 IR Inten    --      1.0448                14.4933                 3.0936

                     43                     44                     45
                      A                      A                      A
 Frequencies --    981.2114               986.9812              1028.4231
 Red. masses --      2.1695                 1.5578                 4.2380
 Frc consts  --      1.2306                 0.8941                 2.6409
 IR Inten    --      0.0557                13.4288                 5.0078

                     46                     47                     48
                      A                      A                      A
 Frequencies --   1032.0857              1051.6832              1068.6392
 Red. masses --      2.7481                 1.6593                 1.8099
 Frc consts  --      1.7247                 1.0813                 1.2178
 IR Inten    --      2.3158                10.8558                31.4260

                     49                     50                     51
                      A                      A                      A
 Frequencies --   1079.0846              1087.3492              1094.9781
 Red. masses --      1.4110                 2.2224                 1.7810
 Frc consts  --      0.9681                 1.5482                 1.2581
 IR Inten    --      3.5138                41.7855                 0.6502

                     52                     53                     54
                      A                      A                      A
 Frequencies --   1114.2541              1125.1965              1133.7651
 Red. masses --      1.8995                 1.7528                 1.5158
 Frc consts  --      1.3895                 1.3075                 1.1480
 IR Inten    --      1.1651                10.5160                29.2055

                     55                     56                     57
                      A                      A                      A
 Frequencies --   1145.8529              1162.5628              1167.9925
 Red. masses --      1.1350                 1.5619                 1.1879
 Frc consts  --      0.8780                 1.2438                 0.9548
 IR Inten    --      3.3396                 8.5536                 1.6686

                     58                     59                     60
                      A                      A                      A
 Frequencies --   1198.7439              1206.2203              1210.1087
 Red. masses --      1.6426                 2.4505                 1.5628
 Frc consts  --      1.3907                 2.1007                 1.3484
 IR Inten    --     11.2536                 4.3129                 1.8949

                     61                     62                     63
                      A                      A                      A
 Frequencies --   1217.8698              1239.7597              1252.0219
 Red. masses --      2.5219                 1.8279                 2.1086
 Frc consts  --      2.2039                 1.6553                 1.9474
 IR Inten    --     23.0227                 0.3082                 1.6134

                     64                     65                     66
                      A                      A                      A
 Frequencies --   1283.3610              1286.5491              1296.5756
 Red. masses --      1.2922                 1.4012                 1.9398
 Frc consts  --      1.2539                 1.3665                 1.9214
 IR Inten    --      6.4595                11.7208                 5.8984

                     67                     68                     69
                      A                      A                      A
 Frequencies --   1310.6391              1341.5408              1360.3474
 Red. masses --      2.0149                 1.4174                 1.6159
 Frc consts  --      2.0392                 1.5030                 1.7619
 IR Inten    --     15.2285                 0.9912                15.1650

                     70                     71                     72
                      A                      A                      A
 Frequencies --   1376.5528              1387.6326              1388.5384
 Red. masses --      1.2905                 1.5213                 1.4227
 Frc consts  --      1.4408                 1.7259                 1.6161
 IR Inten    --      4.3202                18.5330                20.1779

                     73                     74                     75
                      A                      A                      A
 Frequencies --   1404.5898              1409.5474              1438.6968
 Red. masses --      1.7445                 1.8066                 1.9254
 Frc consts  --      2.0278                 2.1148                 2.3481
 IR Inten    --     56.9922                37.2475                70.5834

                     76                     77                     78
                      A                      A                      A
 Frequencies --   1448.0146              1460.8301              1489.7567
 Red. masses --      1.5647                 3.2000                 1.3452
 Frc consts  --      1.9330                 4.0235                 1.7589
 IR Inten    --      1.9339                39.7586                27.2725

                     79                     80                     81
                      A                      A                      A
 Frequencies --   1493.4376              1493.9588              1501.7584
 Red. masses --      1.4768                 1.4315                 1.2614
 Frc consts  --      1.9406                 1.8824                 1.6761
 IR Inten    --     36.3938                34.2200                62.1678

                     82                     83                     84
                      A                      A                      A
 Frequencies --   1506.4712              1509.1022              1519.8009
 Red. masses --      1.1259                 1.0965                 1.0636
 Frc consts  --      1.5055                 1.4712                 1.4475
 IR Inten    --      6.6650                 0.2417                 4.3244

                     85                     86                     87
                      A                      A                      A
 Frequencies --   1521.0679              1523.1104              1530.8890
 Red. masses --      1.0958                 1.2106                 1.1161
 Frc consts  --      1.4938                 1.6547                 1.5411
 IR Inten    --      6.7153                12.5267                 1.8340

                     88                     89                     90
                      A                      A                      A
 Frequencies --   1538.0235              1548.9575              1607.5287
 Red. masses --      1.3700                 1.1030                 6.9951
 Frc consts  --      1.9094                 1.5593                10.6503
 IR Inten    --      1.9671                13.1075               270.6437

                     91                     92                     93
                      A                      A                      A
 Frequencies --   1623.3441              1662.2196              2990.4491
 Red. masses --      5.1228                 1.5605                 1.0566
 Frc consts  --      7.9539                 2.5404                 5.5673
 IR Inten    --    166.7672               424.2951                76.5365

                     94                     95                     96
                      A                      A                      A
 Frequencies --   3019.4210              3020.4523              3022.9272
 Red. masses --      1.0619                 1.0746                 1.0722
 Frc consts  --      5.7041                 5.7764                 5.7725
 IR Inten    --     34.9303                25.5973                 8.7738

                     97                     98                     99
                      A                      A                      A
 Frequencies --   3030.5458              3039.0064              3041.2542
 Red. masses --      1.0666                 1.0608                 1.0668
 Frc consts  --      5.7715                 5.7724                 5.8138
 IR Inten    --     24.8649                42.0608                30.7288

                    100                    101                    102
                      A                      A                      A
 Frequencies --   3062.6907              3082.1347              3085.4938
 Red. masses --      1.0951                 1.0963                 1.1007
 Frc consts  --      6.0524                 6.1359                 6.1742
 IR Inten    --     53.4505                60.4462                61.1257

                    103                    104                    105
                      A                      A                      A
 Frequencies --   3089.6754              3093.0642              3098.7580
 Red. masses --      1.0873                 1.0967                 1.0883
 Frc consts  --      6.1153                 6.1820                 6.1570
 IR Inten    --      9.1260                47.3414                48.0004

                    106                    107                    108
                      A                      A                      A
 Frequencies --   3102.2578              3138.2562              3149.5945
 Red. masses --      1.0922                 1.0531                 1.0560
 Frc consts  --      6.1932                 6.1110                 6.1719
 IR Inten    --     20.1511                29.8593                10.8128

                    109                    110                    111
                      A                      A                      A
 Frequencies --   3157.6470              3167.7432              3214.0278
 Red. masses --      1.0979                 1.0895                 1.1184
 Frc consts  --      6.4496                 6.4416                 6.8070
 IR Inten    --     25.0613                 6.7787                 4.9805

                    112                    113                    114
                      A                      A                      A
 Frequencies --   3232.3393              3588.7651              3708.5435
 Red. masses --      1.1159                 1.0458                 1.1020
 Frc consts  --      6.8690                 7.9355                 8.9299
 IR Inten    --     18.7542                48.5601                26.7313

 - Thermochemistry -
 -------------------
 Temperature   298.150 Kelvin.  Pressure   1.00000 Atm.
 Atom     1 has atomic number  6 and mass  12.00000

 Molecular mass:   246.18445 amu.
 Principal axes and moments of inertia in atomic units:
                           1         2         3
     Eigenvalues --  3450.849425148.715195654.08199
           X            0.99990   0.01193   0.00737
           Y           -0.01155   0.99873  -0.04910
           Z           -0.00794   0.04901   0.99877
 This molecule is an asymmetric top.
 Rotational symmetry number  1.
 Warning -- assumption of classical behavior for rotation
           may cause significant error
 Rotational temperatures (Kelvin)      0.02510     0.01682     0.01532
 Rotational constants (GHZ):           0.52298     0.35052     0.31919
 Zero-point vibrational energy     929133.5 (Joules/Mol)
                                  222.06823 (Kcal/Mol)
 Warning -- explicit consideration of  27 degrees of freedom as
           vibrations may cause significant error
 Vibrational temperatures:     50.98    63.37    94.96   116.29   136.32
          (Kelvin)            153.61   190.64   234.06   292.35   297.14
                              347.16   368.57   401.38   433.67   463.45
                              477.56   527.39   535.30   552.58   623.44
                              669.13   685.25   710.46   746.21   759.16
                              804.28   862.54   904.16   962.33  1066.03
                             1105.21  1113.12  1148.62  1159.59  1200.90
                             1216.55  1224.88  1260.77  1279.46  1332.26
                             1347.39  1369.64  1411.74  1420.05  1479.67
                             1484.94  1513.14  1537.53  1552.56  1564.45
                             1575.43  1603.16  1618.91  1631.24  1648.63
                             1672.67  1680.48  1724.73  1735.48  1741.08
                             1752.24  1783.74  1801.38  1846.47  1851.06
                             1865.48  1885.72  1930.18  1957.24  1980.55
                             1996.49  1997.80  2020.89  2028.02  2069.96
                             2083.37  2101.81  2143.43  2148.72  2149.47
                             2160.70  2167.48  2171.26  2186.65  2188.48
                             2191.42  2202.61  2212.87  2228.60  2312.88
                             2335.63  2391.56  4302.59  4344.27  4345.76
                             4349.32  4360.28  4372.45  4375.69  4406.53
                             4434.50  4439.34  4445.35  4450.23  4458.42
                             4463.46  4515.25  4531.56  4543.15  4557.68
                             4624.27  4650.62  5163.43  5335.77

 Zero-point correction=                           0.353888 (Hartree/Particle)
 Thermal correction to Energy=                    0.371099
 Thermal correction to Enthalpy=                  0.372043
 Thermal correction to Gibbs Free Energy=         0.308998
 Sum of electronic and zero-point Energies=           -765.461863
 Sum of electronic and thermal Energies=              -765.444652
 Sum of electronic and thermal Enthalpies=            -765.443708
 Sum of electronic and thermal Free Energies=         -765.506753

                     E (Thermal)             CV                S
                      KCal/Mol        Cal/Mol-Kelvin    Cal/Mol-Kelvin
 Total                  232.868             67.534            132.689
 Electronic               0.000              0.000              0.000
 Translational            0.889              2.981             42.403
 Rotational               0.889              2.981             32.974
 Vibrational            231.091             61.572             57.312
 Vibration     1          0.594              1.982              5.499
 Vibration     2          0.595              1.980              5.068
 Vibration     3          0.597              1.970              4.269
 Vibration     4          0.600              1.962              3.871
 Vibration     5          0.603              1.953              3.560
 Vibration     6          0.606              1.944              3.327
 Vibration     7          0.613              1.921              2.909
 Vibration     8          0.623              1.888              2.518
 Vibration     9          0.639              1.835              2.104
 Vibration    10          0.641              1.831              2.074
 Vibration    11          0.658              1.777              1.793
 Vibration    12          0.666              1.752              1.688
 Vibration    13          0.679              1.712              1.540
 Vibration    14          0.693              1.671              1.409
 Vibration    15          0.707              1.631              1.299
 Vibration    16          0.714              1.612              1.251
 Vibration    17          0.739              1.541              1.094
 Vibration    18          0.744              1.530              1.071
 Vibration    19          0.753              1.504              1.023
 Vibration    20          0.794              1.398              0.848
 Vibration    21          0.823              1.328              0.751
 Vibration    22          0.833              1.303              0.720
 Vibration    23          0.849              1.264              0.674
 Vibration    24          0.874              1.209              0.613
 Vibration    25          0.883              1.189              0.592
 Vibration    26          0.915              1.120              0.526
 Vibration    27          0.958              1.033              0.451

                           ! Non-Optimized Parameters !
 Normal termination of Gaussian 16 at Fri Dec 11 23:24:23 2020.

 ----------------------------------------------------------------------
 # B3LYP/6-311++G(d,p) empiricaldispersion=gd3bj scf=xqc pop=npa geom=c
 heck
 ----------------------------------------------------------------------

 ---------------------------------------
 CID_137927325_JID_8907_Energie_neutraal
 ---------------------------------------
 Structure from the checkpoint file:  "JID_8907.chk"
 Charge =  0 Multiplicity = 1

 SCF Done:  E(RB3LYP) =  -766.023071698     A.U. after   14 cycles
 Normal termination of Gaussian 16 at Fri Dec 11 23:31:42 2020.

 ----------------------------------------------------------------------
 # B3LYP/6-311++G(d,p) empiricaldispersion=gd3bj scf=xqc pop=npa geom=c
 heck
 ----------------------------------------------------------------------

 -------------------------------------
 CID_137927325_JID_8907_Energie_kation
 -------------------------------------
 Structure from the checkpoint file:  "JID_8907.chk"
 Charge =  1 Multiplicity = 2

 SCF Done:  E(UB3LYP) =  -765.750024980     A.U. after   22 cycles
 Normal termination of Gaussian 16 at Fri Dec 11 23:46:59 2020.
 Gaussian 16:  ES64L-G16RevA.03 25-Dec-2016

 ----------------------------------------------------------------------
 # B3LYP/6-311++G(d,p) empiricaldispersion=gd3bj scf=xqc pop=npa geom=c
 heck
 ----------------------------------------------------------------------

 ------------------------------------
 CID_137927325_JID_8907_Energie_anion
 ------------------------------------
 Structure from the checkpoint file:  "JID_8907.chk"
 Charge = -1 Multiplicity = 2

                         Standard orientation:
 ---------------------------------------------------------------------
 Center     Atomic      Atomic             Coordinates (Angstroms)
 Number     Number       Type             X           Y           Z
 ---------------------------------------------------------------------
      1          6           0        0.771577   -1.999140    2.315150
      2          7           0        1.101759   -1.238996    1.105947
      3          6           0        2.540376   -0.950806    1.005492
      4          6           0        3.040532   -0.876308   -0.442891
      5          6           0        2.493344    0.267542   -1.272113
      6          6           0        2.595827    0.217167   -2.776607
      7          6           0        1.249780    0.088038   -2.105504
      8          6           0        0.233479   -0.146956    0.871351
      9          7           0        0.691630    1.080005    1.123180
     10          6           0       -0.128753    2.101674    0.830755
     11          7           0       -1.369049    2.010010    0.337649
     12          6           0       -1.817775    0.766462    0.093457
     13          6           0       -1.057749   -0.381136    0.346864
     14          6           0       -1.519744   -1.760788   -0.075365
     15          6           0       -3.013393   -1.816594   -0.419844
     16          6           0       -3.424803   -0.622322   -1.282845
     17          6           0       -3.201272    0.679726   -0.509467
     18          7           0        0.376281    3.366321    1.021938
     19          1           0        1.224713   -2.994677    2.263291
     20          1           0       -0.309488   -2.115425    2.407564
     21          1           0        1.132183   -1.496548    3.228102
     22          1           0        2.796448   -0.032729    1.550470
     23          1           0        3.057130   -1.780389    1.499414
     24          1           0        4.137223   -0.800132   -0.404550
     25          1           0        2.807888   -1.827058   -0.941349
     26          1           0        2.610652    1.248138   -0.816989
     27          1           0        2.822151    1.135843   -3.310819
     28          1           0        3.026805   -0.674294   -3.226886
     29          1           0        0.779811   -0.891553   -2.100345
     30          1           0        0.549395    0.915651   -2.169226
     31          1           0       -1.300136   -2.508019    0.692457
     32          1           0       -0.926850   -2.067847   -0.949732
     33          1           0       -3.604323   -1.806116    0.506985
     34          1           0       -3.237156   -2.762728   -0.926446
     35          1           0       -2.823758   -0.611841   -2.202748
     36          1           0       -4.474396   -0.702950   -1.588351
     37          1           0       -3.353478    1.561761   -1.139459
     38          1           0       -3.937433    0.754783    0.304946
     39          1           0        1.161264    3.431549    1.653832
     40          1           0       -0.311538    4.103850    1.078240
 ---------------------------------------------------------------------

 SCF Done:  E(UB3LYP) =  -766.009778874     A.U. after   33 cycles
 SCF Done:  E(UB3LYP) =  -766.009778874     a.u. after    1 cycles

 The electronic state is 2-A.
 Alpha  occ. eigenvalues --  -14.22082 -14.21095 -14.18402 -14.18249 -10.15700
 Alpha  occ. eigenvalues --  -10.12607 -10.09856 -10.08867 -10.08747 -10.07552
 Alpha  occ. eigenvalues --  -10.07420 -10.07016 -10.06864 -10.06534 -10.06445
 Alpha  occ. eigenvalues --  -10.06311 -10.06297 -10.06241  -0.88991  -0.83779
 Alpha  occ. eigenvalues --   -0.79169  -0.76296  -0.75991  -0.71955  -0.66295
 Alpha  occ. eigenvalues --   -0.64493  -0.63212  -0.58510  -0.55518  -0.52793
 Alpha  occ. eigenvalues --   -0.52499  -0.50395  -0.48933  -0.46694  -0.46040
 Alpha  occ. eigenvalues --   -0.43302  -0.41504  -0.39194  -0.38559  -0.37433
 Alpha  occ. eigenvalues --   -0.36764  -0.35978  -0.35339  -0.33832  -0.33068
 Alpha  occ. eigenvalues --   -0.32595  -0.31949  -0.30458  -0.29988  -0.29107
 Alpha  occ. eigenvalues --   -0.28131  -0.27833  -0.27030  -0.26912  -0.26485
 Alpha  occ. eigenvalues --   -0.23990  -0.23252  -0.22960  -0.22183  -0.21159
 Alpha  occ. eigenvalues --   -0.19532  -0.19249  -0.19076  -0.17914  -0.13878
 Alpha  occ. eigenvalues --   -0.13073  -0.10786   0.04484
 Alpha virt. eigenvalues --    0.06423   0.06719   0.07215   0.07546   0.08377
 Alpha virt. eigenvalues --    0.08770   0.08989   0.09248   0.09843   0.09934
 Alpha virt. eigenvalues --    0.10614   0.10945   0.11279   0.11701   0.12384

  Beta  occ. eigenvalues --  -14.22072 -14.21105 -14.18314 -14.18162 -10.15714
  Beta  occ. eigenvalues --  -10.12500 -10.09729 -10.08854 -10.08691 -10.07547
  Beta  occ. eigenvalues --  -10.07416 -10.07008 -10.06861 -10.06521 -10.06426
  Beta  occ. eigenvalues --  -10.06313 -10.06282 -10.06278  -0.88875  -0.83717
  Beta  occ. eigenvalues --   -0.79082  -0.76217  -0.75906  -0.71902  -0.66250
  Beta  occ. eigenvalues --   -0.64464  -0.63109  -0.58395  -0.55437  -0.52740
  Beta  occ. eigenvalues --   -0.52459  -0.50383  -0.48853  -0.46664  -0.45980
  Beta  occ. eigenvalues --   -0.43220  -0.41446  -0.39173  -0.38516  -0.37347
  Beta  occ. eigenvalues --   -0.36730  -0.35936  -0.35273  -0.33762  -0.33002
  Beta  occ. eigenvalues --   -0.32500  -0.31811  -0.30416  -0.29938  -0.29044
  Beta  occ. eigenvalues --   -0.28077  -0.27770  -0.26994  -0.26864  -0.26464
  Beta  occ. eigenvalues --   -0.23958  -0.23190  -0.22912  -0.22121  -0.20977
  Beta  occ. eigenvalues --   -0.19469  -0.19129  -0.18803  -0.17715  -0.13758
  Beta  occ. eigenvalues --   -0.12935  -0.10649
  Beta virt. eigenvalues --    0.06502   0.06959   0.07309   0.07608   0.08428
  Beta virt. eigenvalues --    0.08748   0.09045   0.09301   0.09509   0.10007
  Beta virt. eigenvalues --    0.10178   0.10975   0.11162   0.11525   0.11910

 Mulliken charges and spin densities:
               1          2
     1  C    1.076095  -1.362955
     2  N    0.441556   0.073886
     3  C    0.043933  -0.408283
     4  C   -0.086615  -0.227987
     5  C   -0.118917   0.404777
     6  C   -0.136965  -0.379651
     7  C   -0.299277  -0.114020
     8  C   -0.757123   0.242119
     9  N    0.003035   0.040624
    10  C   -0.419889   0.357663
    11  N   -0.037118   0.028905
    12  C   -0.516937   0.311154
    13  C    0.538685  -0.432043
    14  C   -0.550199   0.149158
    15  C    0.527091  -1.030658
    16  C   -0.420729   0.268098
    17  C    0.501760  -1.004334
    18  N   -0.337179   0.056847
    19  H   -0.487363   0.674290
    20  H   -0.075247   0.195133
    21  H   -0.204615   0.341047
    22  H    0.173712  -0.004150
    23  H   -0.225647   0.372227
    24  H    0.006230   0.140443
    25  H    0.028964   0.120150
    26  H    0.150670   0.076870
    27  H    0.063253   0.071328
    28  H    0.090256   0.031859
    29  H    0.062561   0.056749
    30  H    0.185395  -0.003420
    31  H   -0.037819   0.162154
    32  H    0.123314   0.027533
    33  H   -0.029573   0.172125
    34  H   -0.310534   0.479378
    35  H    0.133153  -0.025338
    36  H   -0.302956   0.486312
    37  H    0.150834  -0.001649
    38  H   -0.155185   0.345946
    39  H    0.102841   0.155835
    40  H    0.106549   0.151877
 Sum of Mulliken charges =  -1.00000   1.00000

 Dipole moment (field-independent basis, Debye):
    X=              2.7552    Y=              3.6649    Z=             -2.8241  Tot=              5.3850
 Quadrupole moment (field-independent basis, Debye-Ang):
   XX=           -174.6224   YY=           -158.0600   ZZ=           -147.9057
   XY=              1.0681   XZ=             -5.2063   YZ=              8.8625

 Summary of Natural Population Analysis:

                                       Natural Population
                Natural  -----------------------------------------------
    Atom  No    Charge         Core      Valence    Rydberg      Total
 -----------------------------------------------------------------------
      C    1   -0.16912      0.99962     2.16137    0.00813     3.16912
      N    2   -0.28363      0.99967     2.77016    0.01380     3.78363
      C    3   -0.08040      0.99960     2.06936    0.01144     3.08040
      C    4   -0.19093      0.99960     2.18125    0.01008     3.19093
      C    5   -0.11595      0.99959     2.10697    0.00940     3.11595
      C    6   -0.20053      0.99962     2.19468    0.00623     3.20053
      C    7   -0.19848      0.99962     2.19189    0.00697     3.19848
      C    8    0.25404      0.99947     1.73004    0.01645     2.74596
      N    9   -0.28300      0.99963     2.77397    0.00941     3.78300
      C   10    0.29382      0.99962     1.68813    0.01843     2.70618
      N   11   -0.27643      0.99964     2.76723    0.00956     3.77643
      C   12    0.15290      0.99949     1.83413    0.01347     2.84710
      C   13   -0.08656      0.99939     2.07784    0.00933     3.08656
      C   14   -0.19259      0.99961     2.18319    0.00979     3.19259
      C   15   -0.18634      0.99963     2.17840    0.00831     3.18634
      C   16   -0.18800      0.99963     2.17999    0.00838     3.18800
      C   17   -0.20435      0.99959     2.19505    0.00971     3.20435
      N   18   -0.39868      0.99970     2.88999    0.00899     3.89868
      H   19    0.09599      0.00000     0.40212    0.00190     0.40401
      H   20    0.09904      0.00000     0.39980    0.00116     0.40096
      H   21    0.08629      0.00000     0.41227    0.00143     0.41371
      H   22    0.09627      0.00000     0.40180    0.00193     0.40373
      H   23    0.09512      0.00000     0.40355    0.00133     0.40488
      H   24    0.09568      0.00000     0.40342    0.00090     0.40432
      H   25    0.09639      0.00000     0.40193    0.00168     0.40361
      H   26    0.10756      0.00000     0.39074    0.00170     0.39244
      H   27    0.09853      0.00000     0.40061    0.00085     0.40147
      H   28    0.09703      0.00000     0.40201    0.00097     0.40297
      H   29    0.10248      0.00000     0.39610    0.00141     0.39752
      H   30    0.10570      0.00000     0.39328    0.00101     0.39430
      H   31    0.10396      0.00000     0.39453    0.00152     0.39604
      H   32    0.09826      0.00000     0.40001    0.00174     0.40174
      H   33    0.09424      0.00000     0.40419    0.00157     0.40576
      H   34    0.09784      0.00000     0.40118    0.00098     0.40216
      H   35    0.09211      0.00000     0.40655    0.00134     0.40789
      H   36    0.09884      0.00000     0.39996    0.00120     0.40116
      H   37    0.10575      0.00000     0.39296    0.00129     0.39425
      H   38    0.10596      0.00000     0.39233    0.00171     0.39404
      H   39    0.19044      0.00000     0.30801    0.00155     0.30956
      H   40    0.19076      0.00000     0.30765    0.00159     0.30924
 =======================================================================
   * Total *    0.00000     17.99273    48.78865    0.21863    67.00000

 Normal termination of Gaussian 16 at Sat Dec 12 00:10:15 2020.
