 Gaussian 16, Revision A.03,

 -----------------------------------------------------------
 # opt freq B3LYP/6-31G(d) empiricaldispersion=gd3bj scf=xqc
 -----------------------------------------------------------

 -------------------------------
 CID_66966122_JID_10414_neutraal
 -------------------------------
 Symbolic Z-matrix:
 Charge =  0 Multiplicity = 1

 SCF Done:  E(RB3LYP) =  -916.276646117     A.U. after   15 cycles
 SCF Done:  E(RB3LYP) =  -916.282814544     A.U. after   13 cycles
 SCF Done:  E(RB3LYP) =  -916.281445859     A.U. after   13 cycles
 SCF Done:  E(RB3LYP) =  -916.283740583     A.U. after   12 cycles
 SCF Done:  E(RB3LYP) =  -916.285046824     A.U. after   12 cycles
 SCF Done:  E(RB3LYP) =  -916.285419358     A.U. after   12 cycles
 SCF Done:  E(RB3LYP) =  -916.285537718     A.U. after   11 cycles
 SCF Done:  E(RB3LYP) =  -916.285586421     A.U. after   11 cycles
 SCF Done:  E(RB3LYP) =  -916.285587709     A.U. after   11 cycles
 SCF Done:  E(RB3LYP) =  -916.285609764     A.U. after   10 cycles
 SCF Done:  E(RB3LYP) =  -916.285623162     A.U. after    8 cycles
 SCF Done:  E(RB3LYP) =  -916.285623484     A.U. after    8 cycles
 SCF Done:  E(RB3LYP) =  -916.285623562     A.U. after    8 cycles
 SCF Done:  E(RB3LYP) =  -916.285623565     A.U. after    6 cycles
 Optimization completed.
    -- Stationary point found.
 Normal termination of Gaussian 16 at Mon Dec 14 13:56:06 2020.

 --------------------------------------------------------------------
 #N Geom=AllCheck Guess=TCheck SCRF=Check GenChk RB3LYP/6-31G(d) Freq
 --------------------------------------------------------------------

 Structure from the checkpoint file:  "JID_10414.chk"
 -------------------------------
 CID_66966122_JID_10414_neutraal
 -------------------------------
 Charge =  0 Multiplicity = 1

 SCF Done:  E(RB3LYP) =  -916.285623564     A.U. after    1 cycles

  Exact polarizability: 182.330  -1.825 187.523  17.316   5.048 146.808
 Approx polarizability: 238.946  -9.131 317.498  33.435   8.907 230.431

                      1                      2                      3
                      A                      A                      A
 Frequencies --     11.1728                31.3874                45.1686
 Red. masses --      4.9165                 4.5762                 3.7513
 Frc consts  --      0.0004                 0.0027                 0.0045
 IR Inten    --      0.5126                 0.0613                 0.8628

                      4                      5                      6
                      A                      A                      A
 Frequencies --     55.8028                73.8870                81.2976
 Red. masses --      4.9526                 3.8372                 4.0371
 Frc consts  --      0.0091                 0.0123                 0.0157
 IR Inten    --      1.2816                 2.5341                 0.9316

                      7                      8                      9
                      A                      A                      A
 Frequencies --     91.9434               108.1109               131.8562
 Red. masses --      3.7869                 3.0573                 4.6948
 Frc consts  --      0.0189                 0.0211                 0.0481
 IR Inten    --      3.2778                 3.7167                 2.1285

                     10                     11                     12
                      A                      A                      A
 Frequencies --    147.2481               184.2113               205.8553
 Red. masses --      3.9810                 2.8419                 2.8069
 Frc consts  --      0.0509                 0.0568                 0.0701
 IR Inten    --      1.9264                 8.8882                 8.8168

                     13                     14                     15
                      A                      A                      A
 Frequencies --    239.1412               267.3303               278.2051
 Red. masses --      2.9765                 1.5509                 2.6230
 Frc consts  --      0.1003                 0.0653                 0.1196
 IR Inten    --      2.5263                33.1725                 6.2231

                     16                     17                     18
                      A                      A                      A
 Frequencies --    292.1455               310.2442               341.9539
 Red. masses --      2.5299                 2.4799                 2.6692
 Frc consts  --      0.1272                 0.1406                 0.1839
 IR Inten    --      4.8814                 7.8300                 5.0910

                     19                     20                     21
                      A                      A                      A
 Frequencies --    364.0528               386.2680               433.1628
 Red. masses --      2.9312                 2.8139                 3.5243
 Frc consts  --      0.2289                 0.2474                 0.3896
 IR Inten    --      2.6543                 1.9079                 2.3699

                     22                     23                     24
                      A                      A                      A
 Frequencies --    442.7819               444.5387               460.2674
 Red. masses --      3.5376                 2.4355                 3.2594
 Frc consts  --      0.4086                 0.2836                 0.4068
 IR Inten    --      0.8974                 2.8227                 7.1282

                     25                     26                     27
                      A                      A                      A
 Frequencies --    491.1529               502.8498               532.0504
 Red. masses --      3.9579                 2.5952                 3.0886
 Frc consts  --      0.5625                 0.3866                 0.5151
 IR Inten    --      1.0973                 4.3160                10.7917

                     28                     29                     30
                      A                      A                      A
 Frequencies --    536.4595               570.2266               591.7311
 Red. masses --      2.9745                 3.3433                 2.6544
 Frc consts  --      0.5044                 0.6405                 0.5476
 IR Inten    --      3.4348                17.0084                22.4631

                     31                     32                     33
                      A                      A                      A
 Frequencies --    612.3324               643.2069               658.4847
 Red. masses --      2.6425                 2.7575                 1.5767
 Frc consts  --      0.5838                 0.6722                 0.4028
 IR Inten    --      8.7625                16.1079                70.9749

                     34                     35                     36
                      A                      A                      A
 Frequencies --    703.2758               728.7018               748.6435
 Red. masses --      2.9760                 1.6383                 2.7187
 Frc consts  --      0.8672                 0.5126                 0.8978
 IR Inten    --     15.9031                91.9115                13.3203

                     37                     38                     39
                      A                      A                      A
 Frequencies --    759.7847               811.0120               817.9569
 Red. masses --      2.4438                 2.3476                 4.0418
 Frc consts  --      0.8312                 0.9098                 1.5933
 IR Inten    --     13.1439                 5.1901                 8.9620

                     40                     41                     42
                      A                      A                      A
 Frequencies --    840.6701               859.1971               864.1192
 Red. masses --      1.8491                 2.7250                 2.6327
 Frc consts  --      0.7700                 1.1852                 1.1582
 IR Inten    --      0.6546                11.8284                 7.1532

                     43                     44                     45
                      A                      A                      A
 Frequencies --    867.1184               879.9141               921.3796
 Red. masses --      1.3313                 2.7433                 1.8982
 Frc consts  --      0.5898                 1.2514                 0.9494
 IR Inten    --    127.4932                 5.6082                14.0512

                     46                     47                     48
                      A                      A                      A
 Frequencies --    925.3372               936.5674               961.1407
 Red. masses --      1.6737                 1.9156                 2.2680
 Frc consts  --      0.8444                 0.9900                 1.2345
 IR Inten    --      4.5259                 4.7870                 3.6993

                     49                     50                     51
                      A                      A                      A
 Frequencies --    989.7751              1027.1181              1035.4220
 Red. masses --      2.3308                 2.7221                 1.7691
 Frc consts  --      1.3453                 1.6920                 1.1175
 IR Inten    --      5.3457                17.6130                 3.3700

                     52                     53                     54
                      A                      A                      A
 Frequencies --   1053.0329              1075.6280              1085.3064
 Red. masses --      1.6458                 3.0938                 2.1809
 Frc consts  --      1.0753                 2.1089                 1.5135
 IR Inten    --     14.1199                 1.0853                 5.8911

                     55                     56                     57
                      A                      A                      A
 Frequencies --   1106.5651              1115.6979              1123.9084
 Red. masses --      1.9892                 1.9440                 2.4176
 Frc consts  --      1.4351                 1.4257                 1.7993
 IR Inten    --      5.3547                 0.3464                11.7693

                     58                     59                     60
                      A                      A                      A
 Frequencies --   1154.7019              1167.4836              1181.9052
 Red. masses --      1.8367                 1.1803                 1.7580
 Frc consts  --      1.4429                 0.9479                 1.4469
 IR Inten    --      7.3932                 1.7481                 8.3574

                     61                     62                     63
                      A                      A                      A
 Frequencies --   1190.7965              1198.6535              1220.1223
 Red. masses --      1.9136                 1.8045                 1.4536
 Frc consts  --      1.5987                 1.5275                 1.2749
 IR Inten    --     18.6539                36.1801                 5.2413

                     64                     65                     66
                      A                      A                      A
 Frequencies --   1232.1555              1258.8093              1277.3721
 Red. masses --      1.2309                 2.8561                 1.3786
 Frc consts  --      1.1011                 2.6665                 1.3253
 IR Inten    --      4.5464                 4.9307                13.4104

                     67                     68                     69
                      A                      A                      A
 Frequencies --   1282.0550              1307.0924              1320.7366
 Red. masses --      1.3368                 1.7570                 1.6161
 Frc consts  --      1.2945                 1.7686                 1.6610
 IR Inten    --     10.2854                 2.4859                35.2898

                     70                     71                     72
                      A                      A                      A
 Frequencies --   1327.0218              1334.2528              1356.6028
 Red. masses --      1.2920                 1.5414                 2.5247
 Frc consts  --      1.3405                 1.6167                 2.7376
 IR Inten    --      3.0681                 8.5948                38.5105

                     73                     74                     75
                      A                      A                      A
 Frequencies --   1365.2883              1381.3611              1388.6330
 Red. masses --      1.1466                 1.5427                 1.4560
 Frc consts  --      1.2593                 1.7344                 1.6542
 IR Inten    --      4.6489                71.1607                 0.1269

                     76                     77                     78
                      A                      A                      A
 Frequencies --   1393.0237              1400.6023              1407.9606
 Red. masses --      1.4221                 1.5137                 1.5816
 Frc consts  --      1.6259                 1.7495                 1.8472
 IR Inten    --      0.1891                 0.8076                17.7698

                     79                     80                     81
                      A                      A                      A
 Frequencies --   1414.8350              1434.0220              1437.2352
 Red. masses --      1.6654                 1.4705                 2.4860
 Frc consts  --      1.9642                 1.7817                 3.0256
 IR Inten    --      2.8397                26.2722                 1.6090

                     82                     83                     84
                      A                      A                      A
 Frequencies --   1451.5990              1464.0303              1495.2596
 Red. masses --      1.4416                 1.8532                 1.1174
 Frc consts  --      1.7898                 2.3403                 1.4720
 IR Inten    --     13.1167                 1.2829                 0.9829

                     85                     86                     87
                      A                      A                      A
 Frequencies --   1500.1649              1508.6817              1511.4516
 Red. masses --      1.1084                 1.2230                 1.1554
 Frc consts  --      1.4697                 1.6401                 1.5551
 IR Inten    --     13.4566                30.8064                10.0684

                     88                     89                     90
                      A                      A                      A
 Frequencies --   1514.6104              1520.1550              1521.3784
 Red. masses --      1.4214                 1.1118                 1.0874
 Frc consts  --      1.9212                 1.5137                 1.4830
 IR Inten    --     56.8483                 4.6605                 4.5810

                     91                     92                     93
                      A                      A                      A
 Frequencies --   1528.7711              1530.9154              1546.1830
 Red. masses --      1.0965                 1.1023                 1.0841
 Frc consts  --      1.5099                 1.5221                 1.5269
 IR Inten    --     11.7829                 3.0292                 9.1055

                     94                     95                     96
                      A                      A                      A
 Frequencies --   1588.2082              1661.6425              1701.2909
 Red. masses --      4.5903                 7.5161                 1.0892
 Frc consts  --      6.8220                12.2270                 1.8575
 IR Inten    --      1.3241                21.3434                36.5661

                     97                     98                     99
                      A                      A                      A
 Frequencies --   1770.8521              1775.3350              2926.1563
 Red. masses --      7.3465                 8.8236                 1.0746
 Frc consts  --     13.5735                16.3855                 5.4212
 IR Inten    --    421.9785               417.4703                97.4852

                    100                    101                    102
                      A                      A                      A
 Frequencies --   3012.5488              3026.9389              3036.7023
 Red. masses --      1.0738                 1.0734                 1.0681
 Frc consts  --      5.7419                 5.7944                 5.8034
 IR Inten    --     11.0426                 6.3148                15.7503

                    103                    104                    105
                      A                      A                      A
 Frequencies --   3044.4814              3045.1427              3051.4605
 Red. masses --      1.0665                 1.0619                 1.0700
 Frc consts  --      5.8242                 5.8014                 5.8701
 IR Inten    --     28.3662                41.3863                25.7711

                    106                    107                    108
                      A                      A                      A
 Frequencies --   3053.8059              3079.0196              3088.8748
 Red. masses --      1.0665                 1.0867                 1.0594
 Frc consts  --      5.8602                 6.0701                 5.9556
 IR Inten    --     27.8376                41.2543                 6.4464

                    109                    110                    111
                      A                      A                      A
 Frequencies --   3090.2114              3092.8573              3095.2114
 Red. masses --      1.0901                 1.0957                 1.1015
 Frc consts  --      6.1333                 6.1752                 6.2175
 IR Inten    --     23.4611                43.0837                37.9245

                    112                    113                    114
                      A                      A                      A
 Frequencies --   3097.0595              3104.6735              3125.1120
 Red. masses --      1.0976                 1.0986                 1.0887
 Frc consts  --      6.2027                 6.2389                 6.2648
 IR Inten    --     33.8331                46.3364                 3.0474

                    115                    116                    117
                      A                      A                      A
 Frequencies --   3139.8687              3155.5823              3472.8502
 Red. masses --      1.1047                 1.0926                 1.0498
 Frc consts  --      6.4169                 6.4104                 7.4599
 IR Inten    --      6.4392                 4.7609                 1.5086

                    118                    119                    120
                      A                      A                      A
 Frequencies --   3555.6345              3586.1018              3594.9433
 Red. masses --      1.0922                 1.0752                 1.0785
 Frc consts  --      8.1358                 8.1467                 8.2121
 IR Inten    --      0.7097                17.2747                45.2346

 - Thermochemistry -
 -------------------
 Temperature   298.150 Kelvin.  Pressure   1.00000 Atm.
 Atom     1 has atomic number  6 and mass  12.00000

 Molecular mass:   278.17428 amu.
 Principal axes and moments of inertia in atomic units:
                           1         2         3
     Eigenvalues --  4094.995977993.126909314.65270
           X            0.99957   0.02830   0.00752
           Y           -0.02827   0.99959  -0.00455
           Z           -0.00764   0.00434   0.99996
 This molecule is an asymmetric top.
 Rotational symmetry number  1.
 Warning -- assumption of classical behavior for rotation
           may cause significant error
 Rotational temperatures (Kelvin)      0.02115     0.01084     0.00930
 Rotational constants (GHZ):           0.44072     0.22579     0.19375
 Zero-point vibrational energy     958820.6 (Joules/Mol)
                                  229.16363 (Kcal/Mol)
 Warning -- explicit consideration of  31 degrees of freedom as
           vibrations may cause significant error
 Vibrational temperatures:     16.08    45.16    64.99    80.29   106.31
          (Kelvin)            116.97   132.29   155.55   189.71   211.86
                              265.04   296.18   344.07   384.63   400.28
                              420.33   446.37   492.00   523.79   555.75
                              623.22   637.06   639.59   662.22   706.66
                              723.49   765.50   771.85   820.43   851.37
                              881.01   925.43   947.41  1011.86  1048.44
                             1077.13  1093.16  1166.87  1176.86  1209.54
                             1236.19  1243.27  1247.59  1266.00  1325.66
                             1331.35  1347.51  1382.87  1424.07  1477.79
                             1489.74  1515.08  1547.59  1561.51  1592.10
                             1605.24  1617.05  1661.36  1679.75  1700.50
                             1713.29  1724.60  1755.48  1772.80  1811.15
                             1837.85  1844.59  1880.61  1900.25  1909.29
                             1919.69  1951.85  1964.35  1987.47  1997.93
                             2004.25  2015.15  2025.74  2035.63  2063.24
                             2067.86  2088.53  2106.41  2151.35  2158.40
                             2170.66  2174.64  2179.19  2187.16  2188.92
                             2199.56  2202.65  2224.61  2285.08  2390.73
                             2447.78  2547.86  2554.31  4210.09  4334.39
                             4355.09  4369.14  4380.33  4381.28  4390.37
                             4393.75  4430.02  4444.20  4446.12  4449.93
                             4453.32  4455.98  4466.93  4496.34  4517.57
                             4540.18  4996.66  5115.77  5159.60  5172.32

 Zero-point correction=                           0.365195 (Hartree/Particle)
 Thermal correction to Energy=                    0.384603
 Thermal correction to Enthalpy=                  0.385547
 Thermal correction to Gibbs Free Energy=         0.315209
 Sum of electronic and zero-point Energies=           -915.920428
 Sum of electronic and thermal Energies=              -915.901020
 Sum of electronic and thermal Enthalpies=            -915.900076
 Sum of electronic and thermal Free Energies=         -915.970415

                     E (Thermal)             CV                S
                      KCal/Mol        Cal/Mol-Kelvin    Cal/Mol-Kelvin
 Total                  241.342             74.128            148.040
 Electronic               0.000              0.000              0.000
 Translational            0.889              2.981             42.768
 Rotational               0.889              2.981             34.077
 Vibrational            239.565             68.167             71.196
 Vibration     1          0.593              1.987              7.791
 Vibration     2          0.594              1.983              5.740
 Vibration     3          0.595              1.979              5.018
 Vibration     4          0.596              1.975              4.600
 Vibration     5          0.599              1.966              4.047
 Vibration     6          0.600              1.962              3.859
 Vibration     7          0.602              1.955              3.618
 Vibration     8          0.606              1.943              3.303
 Vibration     9          0.612              1.921              2.919
 Vibration    10          0.617              1.906              2.707
 Vibration    11          0.631              1.861              2.285
 Vibration    12          0.640              1.832              2.080
 Vibration    13          0.657              1.781              1.809
 Vibration    14          0.672              1.733              1.613
 Vibration    15          0.679              1.714              1.545
 Vibration    16          0.688              1.688              1.462
 Vibration    17          0.699              1.654              1.361
 Vibration    18          0.721              1.592              1.203
 Vibration    19          0.738              1.546              1.105
 Vibration    20          0.755              1.500              1.015
 Vibration    21          0.794              1.398              0.848
 Vibration    22          0.802              1.377              0.818
 Vibration    23          0.804              1.373              0.812
 Vibration    24          0.818              1.338              0.765
 Vibration    25          0.847              1.270              0.681
 Vibration    26          0.858              1.244              0.651
 Vibration    27          0.887              1.179              0.583
 Vibration    28          0.891              1.169              0.573
 Vibration    29          0.926              1.096              0.504
 Vibration    30          0.949              1.049              0.464
 Vibration    31          0.972              1.006              0.429

 Optimization completed on the basis of negligible forces.
    -- Stationary point found.
 Normal termination of Gaussian 16 at Mon Dec 14 14:18:32 2020.

 ----------------------------------------------------------------------
 # B3LYP/6-311++G(d,p) empiricaldispersion=gd3bj scf=xqc pop=npa geom=c
 heck
 ----------------------------------------------------------------------

 ---------------------------------------
 CID_66966122_JID_10414_Energie_neutraal
 ---------------------------------------
 Structure from the checkpoint file:  "JID_10414.chk"
 Charge =  0 Multiplicity = 1

 SCF Done:  E(RB3LYP) =  -916.552523588     A.U. after   16 cycles
 Normal termination of Gaussian 16 at Mon Dec 14 14:28:05 2020.

 ----------------------------------------------------------------------
 # B3LYP/6-311++G(d,p) empiricaldispersion=gd3bj scf=xqc pop=npa geom=c
 heck
 ----------------------------------------------------------------------

 -------------------------------------
 CID_66966122_JID_10414_Energie_kation
 -------------------------------------
 Structure from the checkpoint file:  "JID_10414.chk"
 Charge =  1 Multiplicity = 2

 SCF Done:  E(UB3LYP) =  -916.251462671     A.U. after   33 cycles
 SCF Done:  E(UB3LYP) =  -916.251462671     a.u. after    1 cycles
 Normal termination of Gaussian 16 at Mon Dec 14 14:54:42 2020.
 Gaussian 16:  ES64L-G16RevA.03 25-Dec-2016

 ----------------------------------------------------------------------
 # B3LYP/6-311++G(d,p) empiricaldispersion=gd3bj scf=xqc pop=npa geom=c
 heck
 ----------------------------------------------------------------------

 ------------------------------------
 CID_66966122_JID_10414_Energie_anion
 ------------------------------------
 Structure from the checkpoint file:  "JID_10414.chk"
 Charge = -1 Multiplicity = 2

                         Standard orientation:
 ---------------------------------------------------------------------
 Center     Atomic      Atomic             Coordinates (Angstroms)
 Number     Number       Type             X           Y           Z
 ---------------------------------------------------------------------
      1          6           0        2.871796    1.395379    1.780835
      2          6           0        3.940811    0.311316    1.623726
      3          6           0        3.301545   -1.009919    1.189261
      4          6           0        2.281640   -0.829754    0.098261
      5          6           0        1.735659    0.378309   -0.245610
      6          6           0        2.158274    1.655763    0.450016
      7          6           0        0.767365    0.422363   -1.320789
      8          7           0        0.419806   -0.639202   -2.001843
      9          7           0        0.980852   -1.804295   -1.643615
     10          6           0        1.886143   -2.042569   -0.612123
     11          8           0        2.289162   -3.179624   -0.380255
     12          6           0        0.069043    1.702951   -1.722154
     13          6           0       -0.916401    2.254004   -0.678142
     14          8           0       -0.687979    3.305666   -0.086353
     15          7           0       -2.064862    1.556041   -0.445748
     16          6           0       -2.466722    0.234584   -0.913025
     17          6           0       -2.193843   -0.882185    0.106030
     18          6           0       -2.840834   -0.668420    1.482149
     19          6           0       -4.359571   -0.471457    1.453222
     20          7           0       -5.031703   -1.633933    0.864765
     21          1           0        2.135097    1.074360    2.529984
     22          1           0        3.310044    2.329799    2.147822
     23          1           0        4.670893    0.631796    0.867899
     24          1           0        4.494311    0.167979    2.558259
     25          1           0        4.049660   -1.733789    0.847780
     26          1           0        2.807119   -1.496066    2.043399
     27          1           0        1.299814    2.315818    0.597381
     28          1           0        2.832771    2.200809   -0.228820
     29          1           0        0.688271   -2.609709   -2.184745
     30          1           0        0.791149    2.507005   -1.883141
     31          1           0       -0.449976    1.515837   -2.666579
     32          1           0       -2.630140    1.981924    0.279424
     33          1           0       -3.536446    0.280773   -1.152357
     34          1           0       -1.942590    0.013926   -1.843209
     35          1           0       -2.542347   -1.830218   -0.324116
     36          1           0       -1.111177   -0.983727    0.236776
     37          1           0       -2.617203   -1.538245    2.109716
     38          1           0       -2.382282    0.202755    1.968855
     39          1           0       -4.717384   -0.369310    2.484078
     40          1           0       -4.601816    0.484838    0.949938
     41          1           0       -6.040202   -1.538431    0.967330
     42          1           0       -4.855127   -1.668932   -0.137672
 ---------------------------------------------------------------------

 SCF Done:  E(UB3LYP) =  -916.564045584     A.U. after   33 cycles
 SCF Done:  E(UB3LYP) =  -916.564045584     a.u. after    1 cycles

 The electronic state is 2-A.
 Alpha  occ. eigenvalues --  -18.98279 -18.94898 -14.23670 -14.23498 -14.21158
 Alpha  occ. eigenvalues --  -14.19814 -10.16891 -10.13010 -10.10867 -10.10821
 Alpha  occ. eigenvalues --  -10.07815 -10.07429 -10.07124 -10.06886 -10.05976
 Alpha  occ. eigenvalues --  -10.05906 -10.05226 -10.04997 -10.04833 -10.03280
 Alpha  occ. eigenvalues --   -0.93457  -0.91621  -0.87026  -0.82291  -0.80134
 Alpha  occ. eigenvalues --   -0.73111  -0.70935  -0.68941  -0.64820  -0.63532
 Alpha  occ. eigenvalues --   -0.62604  -0.61809  -0.55503  -0.53706  -0.51844
 Alpha  occ. eigenvalues --   -0.49481  -0.47949  -0.46537  -0.45005  -0.41957
 Alpha  occ. eigenvalues --   -0.41906  -0.39362  -0.39125  -0.39020  -0.36447
 Alpha  occ. eigenvalues --   -0.35350  -0.34455  -0.34180  -0.33362  -0.32512
 Alpha  occ. eigenvalues --   -0.32255  -0.31628  -0.30720  -0.29663  -0.29482
 Alpha  occ. eigenvalues --   -0.29159  -0.28744  -0.27704  -0.26828  -0.26601
 Alpha  occ. eigenvalues --   -0.25989  -0.25133  -0.24676  -0.23656  -0.23126
 Alpha  occ. eigenvalues --   -0.21914  -0.21737  -0.20532  -0.17165  -0.16575
 Alpha  occ. eigenvalues --   -0.16241  -0.15317  -0.14650  -0.11836  -0.10191
 Alpha  occ. eigenvalues --    0.03545
 Alpha virt. eigenvalues --    0.04871   0.07380   0.07806   0.07954   0.08925
 Alpha virt. eigenvalues --    0.09202   0.09923   0.10163   0.10707   0.10896
 Alpha virt. eigenvalues --    0.11731   0.11795   0.12073   0.12321   0.12905

  Beta  occ. eigenvalues --  -18.98268 -18.94898 -14.23483 -14.23391 -14.21134
  Beta  occ. eigenvalues --  -14.19251 -10.16873 -10.13027 -10.10858 -10.10814
  Beta  occ. eigenvalues --  -10.07843 -10.07428 -10.07127 -10.06882 -10.05969
  Beta  occ. eigenvalues --  -10.05898 -10.05239 -10.04859 -10.04815 -10.02948
  Beta  occ. eigenvalues --   -0.93430  -0.91264  -0.86620  -0.82259  -0.80094
  Beta  occ. eigenvalues --   -0.72801  -0.70634  -0.68917  -0.64396  -0.63261
  Beta  occ. eigenvalues --   -0.62523  -0.61726  -0.55473  -0.53596  -0.51458
  Beta  occ. eigenvalues --   -0.49403  -0.47868  -0.46471  -0.44863  -0.41919
  Beta  occ. eigenvalues --   -0.41681  -0.39198  -0.39093  -0.38935  -0.36379
  Beta  occ. eigenvalues --   -0.35130  -0.34358  -0.34075  -0.33309  -0.32258
  Beta  occ. eigenvalues --   -0.31798  -0.31437  -0.30572  -0.29499  -0.29359
  Beta  occ. eigenvalues --   -0.29070  -0.28682  -0.27572  -0.26651  -0.26283
  Beta  occ. eigenvalues --   -0.25877  -0.25093  -0.24639  -0.23623  -0.22619
  Beta  occ. eigenvalues --   -0.21697  -0.21320  -0.20423  -0.16716  -0.16435
  Beta  occ. eigenvalues --   -0.15903  -0.15232  -0.13585  -0.11602  -0.08689
  Beta virt. eigenvalues --    0.05422   0.07342   0.07573   0.08054   0.08867
  Beta virt. eigenvalues --    0.09061   0.09614   0.09908   0.10318   0.10641
  Beta virt. eigenvalues --    0.10864   0.11794   0.11933   0.12033   0.12318

 Mulliken charges and spin densities:
               1          2
     1  C   -0.247421  -0.113481
     2  C   -0.341676  -0.080018
     3  C   -0.386614   0.028965
     4  C    0.270457   0.125255
     5  C    0.306945  -0.040975
     6  C   -0.499955   0.069323
     7  C   -0.196244  -0.030214
     8  N    0.038914   0.269728
     9  N   -0.306977   0.100758
    10  C   -0.022826   0.033032
    11  O   -0.391202   0.004425
    12  C   -0.284182   0.066416
    13  C   -0.223336  -0.021577
    14  O   -0.292888   0.003786
    15  N   -0.143173   0.000190
    16  C   -0.191679  -0.046954
    17  C   -0.129568  -0.076828
    18  C   -0.436978   0.117516
    19  C    0.072736  -0.586849
    20  N   -0.366966   0.017630
    21  H    0.077137   0.048199
    22  H    0.121781   0.019898
    23  H    0.088786   0.036819
    24  H    0.125064   0.018271
    25  H    0.184510  -0.005310
    26  H    0.117024   0.069387
    27  H    0.185201  -0.000802
    28  H    0.089926   0.071243
    29  H    0.304477   0.001530
    30  H    0.173751   0.012190
    31  H    0.114662   0.105256
    32  H    0.315900  -0.010478
    33  H   -0.048155   0.244485
    34  H    0.199868  -0.047424
    35  H    0.126174   0.054308
    36  H    0.162650  -0.063625
    37  H    0.139333   0.027181
    38  H    0.171599  -0.009986
    39  H    0.052850   0.109336
    40  H   -0.067770   0.164361
    41  H   -0.027678   0.264265
    42  H    0.165543   0.050768
 Sum of Mulliken charges =  -1.00000   1.00000

 Dipole moment (field-independent basis, Debye):
    X=             -1.2918    Y=              2.6065    Z=              0.0564  Tot=              2.9096
 Quadrupole moment (field-independent basis, Debye-Ang):
   XX=           -176.6338   YY=           -175.2583   ZZ=           -137.9996
   XY=              6.7254   XZ=              4.5275   YZ=              2.1997

 Summary of Natural Population Analysis:

                                       Natural Population
                Natural  -----------------------------------------------
    Atom  No    Charge         Core      Valence    Rydberg      Total
 -----------------------------------------------------------------------
      C    1   -0.18511      0.99964     2.17802    0.00745     3.18511
      C    2   -0.18659      0.99964     2.17933    0.00762     3.18659
      C    3   -0.20095      0.99961     2.19274    0.00860     3.20095
      C    4    0.01010      0.99943     1.98253    0.00795     2.98990
      C    5    0.01400      0.99944     1.97828    0.00828     2.98600
      C    6   -0.20704      0.99960     2.19971    0.00773     3.20704
      C    7    0.06743      0.99953     1.91815    0.01489     2.93257
      N    8   -0.06754      0.99965     2.55397    0.01393     3.56754
      N    9   -0.15666      0.99968     2.64356    0.01343     3.65666
      C   10    0.30311      0.99958     1.67492    0.02239     2.69689
      O   11   -0.35173      0.99988     3.34573    0.00612     4.35173
      C   12   -0.24321      0.99956     2.23561    0.00805     3.24321
      C   13    0.35127      0.99967     1.62628    0.02278     2.64873
      O   14   -0.33392      0.99988     3.32813    0.00591     4.33392
      N   15   -0.31803      0.99966     2.80835    0.01003     3.81803
      C   16   -0.09740      0.99961     2.08610    0.01170     3.09740
      C   17   -0.19973      0.99962     2.19245    0.00766     3.19973
      C   18   -0.19613      0.99963     2.18864    0.00786     3.19613
      C   19   -0.09286      0.99964     2.08116    0.01206     3.09286
      N   20   -0.42375      0.99977     2.91291    0.01106     3.92375
      H   21    0.09302      0.00000     0.40554    0.00144     0.40698
      H   22    0.09305      0.00000     0.40564    0.00131     0.40695
      H   23    0.09086      0.00000     0.40766    0.00148     0.40914
      H   24    0.09187      0.00000     0.40668    0.00145     0.40813
      H   25    0.10939      0.00000     0.38942    0.00120     0.39061
      H   26    0.10203      0.00000     0.39621    0.00177     0.39797
      H   27    0.11666      0.00000     0.38171    0.00163     0.38334
      H   28    0.09827      0.00000     0.40025    0.00148     0.40173
      H   29    0.18367      0.00000     0.31392    0.00241     0.31633
      H   30    0.11141      0.00000     0.38730    0.00130     0.38859
      H   31    0.11396      0.00000     0.38450    0.00154     0.38604
      H   32    0.18820      0.00000     0.30857    0.00323     0.31180
      H   33    0.08738      0.00000     0.41150    0.00111     0.41262
      H   34    0.11529      0.00000     0.38291    0.00180     0.38471
      H   35    0.09697      0.00000     0.40192    0.00111     0.40303
      H   36    0.11218      0.00000     0.38563    0.00219     0.38782
      H   37    0.10220      0.00000     0.39674    0.00106     0.39780
      H   38    0.09734      0.00000     0.40147    0.00119     0.40266
      H   39    0.09048      0.00000     0.40854    0.00098     0.40952
      H   40    0.07378      0.00000     0.42465    0.00157     0.42622
      H   41    0.17469      0.00000     0.32355    0.00176     0.32531
      H   42    0.17203      0.00000     0.32626    0.00171     0.32797
 =======================================================================
   * Total *    0.00000     19.99269    54.75711    0.25020    75.00000

 Normal termination of Gaussian 16 at Mon Dec 14 15:22:01 2020.
