 Gaussian 16, Revision A.03,

 -----------------------------------------------------------
 # opt freq B3LYP/6-31G(d) empiricaldispersion=gd3bj scf=xqc
 -----------------------------------------------------------

 -------------------------------
 CID_152483462_JID_1413_neutraal
 -------------------------------
 Symbolic Z-matrix:
 Charge =  0 Multiplicity = 1

 SCF Done:  E(RB3LYP) =  -1167.45949008     A.U. after   13 cycles
 SCF Done:  E(RB3LYP) =  -1167.46415439     A.U. after   11 cycles
 SCF Done:  E(RB3LYP) =  -1167.46342910     A.U. after   11 cycles
 SCF Done:  E(RB3LYP) =  -1167.46466007     A.U. after   10 cycles
 SCF Done:  E(RB3LYP) =  -1167.46495031     A.U. after   10 cycles
 SCF Done:  E(RB3LYP) =  -1167.46496979     A.U. after   10 cycles
 SCF Done:  E(RB3LYP) =  -1167.46501694     A.U. after   10 cycles
 SCF Done:  E(RB3LYP) =  -1167.46506966     A.U. after   11 cycles
 SCF Done:  E(RB3LYP) =  -1167.46486620     A.U. after   11 cycles
 SCF Done:  E(RB3LYP) =  -1167.46514704     A.U. after   11 cycles
 SCF Done:  E(RB3LYP) =  -1167.46837368     A.U. after    8 cycles
 SCF Done:  E(RB3LYP) =  -1167.46837419     A.U. after    7 cycles
 SCF Done:  E(RB3LYP) =  -1167.46837435     A.U. after    7 cycles
 SCF Done:  E(RB3LYP) =  -1167.46837445     A.U. after    7 cycles
 SCF Done:  E(RB3LYP) =  -1167.46837448     A.U. after    6 cycles
 Optimization completed.
    -- Stationary point found.
 Normal termination of Gaussian 16 at Tue Dec  8 20:20:42 2020.

 --------------------------------------------------------------------
 #N Geom=AllCheck Guess=TCheck SCRF=Check GenChk RB3LYP/6-31G(d) Freq
 --------------------------------------------------------------------

 Structure from the checkpoint file:  "JID_1413.chk"
 -------------------------------
 CID_152483462_JID_1413_neutraal
 -------------------------------
 Charge =  0 Multiplicity = 1

 SCF Done:  E(RB3LYP) =  -1167.46837448     A.U. after    1 cycles

  Exact polarizability: 138.569  -1.208 131.201   2.861   1.132 105.969
 Approx polarizability: 180.927  -0.713 176.056   6.009   2.265 168.797

                      1                      2                      3
                      A                      A                      A
 Frequencies --     22.9533                33.0141                64.8320
 Red. masses --      4.3661                 2.8458                 3.4364
 Frc consts  --      0.0014                 0.0018                 0.0085
 IR Inten    --      0.6459                 0.1575                 0.3160

                      4                      5                      6
                      A                      A                      A
 Frequencies --     81.8760               128.7381               132.0395
 Red. masses --      2.9746                 3.6118                 2.3698
 Frc consts  --      0.0117                 0.0353                 0.0243
 IR Inten    --      0.1851                 0.8882                 0.6270

                      7                      8                      9
                      A                      A                      A
 Frequencies --    148.4036               176.9503               212.2396
 Red. masses --      2.9973                 2.5687                 1.6485
 Frc consts  --      0.0389                 0.0474                 0.0438
 IR Inten    --      0.8262                 0.7234                 8.1321

                     10                     11                     12
                      A                      A                      A
 Frequencies --    231.0594               243.3630               269.2663
 Red. masses --      1.2728                 1.3540                 1.1515
 Frc consts  --      0.0400                 0.0472                 0.0492
 IR Inten    --     17.3343                 2.7558                17.7092

                     13                     14                     15
                      A                      A                      A
 Frequencies --    280.5375               289.6199               310.4326
 Red. masses --      1.4584                 2.9476                 2.3027
 Frc consts  --      0.0676                 0.1457                 0.1307
 IR Inten    --      0.6528                 3.6702                 0.8693

                     16                     17                     18
                      A                      A                      A
 Frequencies --    340.2110               390.0786               429.5525
 Red. masses --      4.7181                 1.9181                 2.7150
 Frc consts  --      0.3217                 0.1720                 0.2952
 IR Inten    --      2.4004                 0.8582                 0.9686

                     19                     20                     21
                      A                      A                      A
 Frequencies --    448.8113               462.9524               567.3016
 Red. masses --      2.9482                 2.7325                 1.5442
 Frc consts  --      0.3499                 0.3450                 0.2928
 IR Inten    --      0.9128                 1.8831                29.4819

                     22                     23                     24
                      A                      A                      A
 Frequencies --    632.5411               687.4392               711.8420
 Red. masses --      2.3240                 2.4663                 2.5604
 Frc consts  --      0.5479                 0.6867                 0.7644
 IR Inten    --     45.8457                27.7582                 7.6387

                     25                     26                     27
                      A                      A                      A
 Frequencies --    775.6665               781.4196               848.4465
 Red. masses --      1.4092                 1.3626                 1.7748
 Frc consts  --      0.4996                 0.4902                 0.7527
 IR Inten    --      4.8783                23.1201                 8.6791

                     28                     29                     30
                      A                      A                      A
 Frequencies --    858.9038               884.4922               895.1518
 Red. masses --      1.8789                 1.5129                 1.8451
 Frc consts  --      0.8167                 0.6973                 0.8711
 IR Inten    --      0.9967                 3.9644                 4.7628

                     31                     32                     33
                      A                      A                      A
 Frequencies --    914.4514               949.6289               980.6473
 Red. masses --      1.3104                 1.5604                 1.8100
 Frc consts  --      0.6456                 0.8291                 1.0255
 IR Inten    --      8.8444                19.7787                10.8129

                     34                     35                     36
                      A                      A                      A
 Frequencies --   1007.4773              1047.1754              1071.1642
 Red. masses --      1.6783                 1.7883                 2.1901
 Frc consts  --      1.0037                 1.1554                 1.4805
 IR Inten    --      3.6034                 8.3840                 7.9195

                     37                     38                     39
                      A                      A                      A
 Frequencies --   1097.2247              1107.7489              1132.5052
 Red. masses --      2.3391                 1.6393                 2.0528
 Frc consts  --      1.6592                 1.1852                 1.5512
 IR Inten    --      2.3747                 3.6551                 8.7683

                     40                     41                     42
                      A                      A                      A
 Frequencies --   1144.0207              1170.9829              1192.7268
 Red. masses --      2.0089                 2.3497                 2.6715
 Frc consts  --      1.5491                 1.8983                 2.2392
 IR Inten    --      7.9334                71.1856                31.4651

                     43                     44                     45
                      A                      A                      A
 Frequencies --   1255.9058              1276.6354              1290.1367
 Red. masses --      1.1854                 1.2901                 1.2864
 Frc consts  --      1.1016                 1.2388                 1.2615
 IR Inten    --      3.9877                 5.2624                13.8438

                     46                     47                     48
                      A                      A                      A
 Frequencies --   1295.7363              1334.4002              1335.5525
 Red. masses --      1.2107                 1.1383                 1.1958
 Frc consts  --      1.1977                 1.1942                 1.2567
 IR Inten    --      3.9444                26.2163                 8.1248

                     49                     50                     51
                      A                      A                      A
 Frequencies --   1360.3562              1373.4179              1395.4926
 Red. masses --      1.2266                 1.3045                 1.4045
 Frc consts  --      1.3374                 1.4498                 1.6115
 IR Inten    --      8.2507                19.8518                13.7034

                     52                     53                     54
                      A                      A                      A
 Frequencies --   1397.8527              1405.5371              1420.8564
 Red. masses --      1.3223                 1.3609                 1.4292
 Frc consts  --      1.5224                 1.5840                 1.7000
 IR Inten    --      2.4664                 3.1623                 6.6742

                     55                     56                     57
                      A                      A                      A
 Frequencies --   1444.4130              1446.5297              1506.2581
 Red. masses --      1.2454                 1.2572                 1.1103
 Frc consts  --      1.5309                 1.5500                 1.4842
 IR Inten    --      4.7878                 4.9740                 6.1238

                     58                     59                     60
                      A                      A                      A
 Frequencies --   1508.0141              1510.7909              1521.9121
 Red. masses --      1.1336                 1.1094                 1.0611
 Frc consts  --      1.5189                 1.4920                 1.4481
 IR Inten    --     13.0217                16.0021                 4.4726

                     61                     62                     63
                      A                      A                      A
 Frequencies --   1528.8011              1529.9219              1534.6056
 Red. masses --      1.0526                 1.0564                 1.0662
 Frc consts  --      1.4495                 1.4569                 1.4794
 IR Inten    --      6.6542                21.5632                 2.3339

                     64                     65                     66
                      A                      A                      A
 Frequencies --   1543.0587              1545.8925              2675.1786
 Red. masses --      1.0922                 1.0636                 1.0381
 Frc consts  --      1.5322                 1.4975                 4.3772
 IR Inten    --      9.1013                11.0335                32.0490

                     67                     68                     69
                      A                      A                      A
 Frequencies --   2680.1763              2999.6491              3025.3552
 Red. masses --      1.0381                 1.0820                 1.0651
 Frc consts  --      4.3934                 5.7362                 5.7437
 IR Inten    --      7.5866                21.6095                18.3592

                     70                     71                     72
                      A                      A                      A
 Frequencies --   3031.5159              3039.8633              3046.5768
 Red. masses --      1.0666                 1.0616                 1.0424
 Frc consts  --      5.7752                 5.7798                 5.7007
 IR Inten    --     27.5851                23.3143                25.7228

                     73                     74                     75
                      A                      A                      A
 Frequencies --   3050.7732              3056.3665              3063.4280
 Red. masses --      1.0368                 1.0684                 1.0982
 Frc consts  --      5.6852                 5.8800                 6.0721
 IR Inten    --     29.5493                 9.5064                24.0240

                     76                     77                     78
                      A                      A                      A
 Frequencies --   3070.0346              3070.7556              3106.1672
 Red. masses --      1.0913                 1.0964                 1.1010
 Frc consts  --      6.0602                 6.0914                 6.2585
 IR Inten    --     66.8105                31.9922                44.1099

                     79                     80                     81
                      A                      A                      A
 Frequencies --   3107.0692              3109.0671              3116.4493
 Red. masses --      1.0869                 1.1006                 1.1017
 Frc consts  --      6.1820                 6.2682                 6.3044
 IR Inten    --      5.6260                14.8735                48.9004

                     82                     83                     84
                      A                      A                      A
 Frequencies --   3121.5113              3148.5667              3542.3705
 Red. masses --      1.1016                 1.0991                 1.0733
 Frc consts  --      6.3243                 6.4197                 7.9354
 IR Inten    --     44.9929                18.3202                 1.3622

 - Thermochemistry -
 -------------------
 Temperature   298.150 Kelvin.  Pressure   1.00000 Atm.
 Atom     1 has atomic number  6 and mass  12.00000

 Molecular mass:   193.09589 amu.
 Principal axes and moments of inertia in atomic units:
                           1         2         3
     Eigenvalues --  2146.401363255.275514605.87830
           X            0.99973   0.01038  -0.02058
           Y           -0.01036   0.99995   0.00136
           Z            0.02059  -0.00115   0.99979
 This molecule is an asymmetric top.
 Rotational symmetry number  1.
 Warning -- assumption of classical behavior for rotation
           may cause significant error
 Rotational temperatures (Kelvin)      0.04035     0.02661     0.01881
 Rotational constants (GHZ):           0.84082     0.55441     0.39183
 Zero-point vibrational energy     693707.5 (Joules/Mol)
                                  165.80008 (Kcal/Mol)
 Warning -- explicit consideration of  21 degrees of freedom as
           vibrations may cause significant error
 Vibrational temperatures:     33.02    47.50    93.28   117.80   185.23
          (Kelvin)            189.98   213.52   254.59   305.37   332.44
                              350.15   387.41   403.63   416.70   446.64
                              489.49   561.24   618.03   645.74   666.09
                              816.22   910.09   989.07  1024.18  1116.01
                             1124.29  1220.73  1235.77  1272.59  1287.92
                             1315.69  1366.30  1410.93  1449.54  1506.65
                             1541.17  1578.66  1593.80  1629.42  1645.99
                             1684.78  1716.07  1806.97  1836.79  1856.22
                             1864.28  1919.90  1921.56  1957.25  1976.04
                             2007.80  2011.20  2022.25  2044.30  2078.19
                             2081.23  2167.17  2169.70  2173.69  2189.69
                             2199.60  2201.22  2207.96  2220.12  2224.19
                             3848.99  3856.18  4315.83  4352.81  4361.68
                             4373.69  4383.34  4389.38  4397.43  4407.59
                             4417.10  4418.13  4469.08  4470.38  4473.25
                             4483.88  4491.16  4530.09  5096.68

 Zero-point correction=                           0.264219 (Hartree/Particle)
 Thermal correction to Energy=                    0.279260
 Thermal correction to Enthalpy=                  0.280205
 Thermal correction to Gibbs Free Energy=         0.220917
 Sum of electronic and zero-point Energies=          -1167.204155
 Sum of electronic and thermal Energies=             -1167.189114
 Sum of electronic and thermal Enthalpies=           -1167.188170
 Sum of electronic and thermal Free Energies=        -1167.247457

                     E (Thermal)             CV                S
                      KCal/Mol        Cal/Mol-Kelvin    Cal/Mol-Kelvin
 Total                  175.239             54.267            124.781
 Electronic               0.000              0.000              0.000
 Translational            0.889              2.981             41.679
 Rotational               0.889              2.981             31.843
 Vibrational            173.461             48.305             51.259
 Vibration     1          0.593              1.985              6.361
 Vibration     2          0.594              1.983              5.640
 Vibration     3          0.597              1.971              4.304
 Vibration     4          0.600              1.962              3.845
 Vibration     5          0.611              1.925              2.965
 Vibration     6          0.612              1.921              2.916
 Vibration     7          0.618              1.904              2.693
 Vibration     8          0.628              1.871              2.360
 Vibration     9          0.643              1.822              2.024
 Vibration    10          0.653              1.794              1.871
 Vibration    11          0.659              1.774              1.778
 Vibration    12          0.674              1.730              1.601
 Vibration    13          0.680              1.710              1.530
 Vibration    14          0.686              1.693              1.476
 Vibration    15          0.699              1.654              1.360
 Vibration    16          0.720              1.595              1.211
 Vibration    17          0.758              1.491              1.000
 Vibration    18          0.791              1.406              0.860
 Vibration    19          0.808              1.364              0.799
 Vibration    20          0.821              1.332              0.758
 Vibration    21          0.923              1.102              0.509

                           ! Non-Optimized Parameters !
 Normal termination of Gaussian 16 at Tue Dec  8 20:27:41 2020.

 ----------------------------------------------------------------------
 # B3LYP/6-311++G(d,p) empiricaldispersion=gd3bj scf=xqc pop=npa geom=c
 heck
 ----------------------------------------------------------------------

 ---------------------------------------
 CID_152483462_JID_1413_Energie_neutraal
 ---------------------------------------
 Structure from the checkpoint file:  "JID_1413.chk"
 Charge =  0 Multiplicity = 1

 SCF Done:  E(RB3LYP) =  -1167.63788481     A.U. after   13 cycles
 Normal termination of Gaussian 16 at Tue Dec  8 20:31:43 2020.

 ----------------------------------------------------------------------
 # B3LYP/6-311++G(d,p) empiricaldispersion=gd3bj scf=xqc pop=npa geom=c
 heck
 ----------------------------------------------------------------------

 -------------------------------------
 CID_152483462_JID_1413_Energie_kation
 -------------------------------------
 Structure from the checkpoint file:  "JID_1413.chk"
 Charge =  1 Multiplicity = 2

 SCF Done:  E(UB3LYP) =  -1167.33452886     A.U. after   33 cycles
 SCF Done:  E(UB3LYP) =  -1167.33517263     a.u. after    6 cycles
 Normal termination of Gaussian 16 at Tue Dec  8 21:15:31 2020.
 Gaussian 16:  ES64L-G16RevA.03 25-Dec-2016

 ----------------------------------------------------------------------
 # B3LYP/6-311++G(d,p) empiricaldispersion=gd3bj scf=xqc pop=npa geom=c
 heck
 ----------------------------------------------------------------------

 ------------------------------------
 CID_152483462_JID_1413_Energie_anion
 ------------------------------------
 Structure from the checkpoint file:  "JID_1413.chk"
 Charge = -1 Multiplicity = 2

                         Standard orientation:
 ---------------------------------------------------------------------
 Center     Atomic      Atomic             Coordinates (Angstroms)
 Number     Number       Type             X           Y           Z
 ---------------------------------------------------------------------
      1          6           0        1.974842    2.724107    0.270153
      2          6           0        2.050916    1.863388   -0.994380
      3          6           0        2.420402    0.392846   -0.729956
      4          6           0        1.439856   -0.367608    0.169855
      5          7           0        0.158331   -0.509819   -0.491320
      6          6           0       -0.978175   -0.878741    0.332656
      7          6           0       -1.512392    0.219628    1.275417
      8          6           0       -1.846876    1.593763    0.673153
      9          6           0       -3.185851    1.699775   -0.064473
     10         16           0       -2.215303   -1.555719   -0.878416
     11         16           0        2.108076   -2.037422    0.643266
     12          1           0        1.164193    2.405032    0.934203
     13          1           0        1.796712    3.775231    0.019433
     14          1           0        2.910967    2.668396    0.838567
     15          1           0        1.102642    1.933701   -1.545538
     16          1           0        2.808740    2.279545   -1.669854
     17          1           0        2.496853   -0.147503   -1.681746
     18          1           0        3.407660    0.352121   -0.258443
     19          1           0        1.377157    0.137016    1.146244
     20          1           0       -0.054348    0.300016   -1.065813
     21          1           0       -0.651648   -1.719855    0.948752
     22          1           0       -2.381062   -0.170981    1.821733
     23          1           0       -0.729429    0.360306    2.034249
     24          1           0       -1.842083    2.320399    1.495662
     25          1           0       -1.033501    1.908135    0.005398
     26          1           0       -4.010585    1.360571    0.574893
     27          1           0       -3.389397    2.740056   -0.342960
     28          1           0       -3.197889    1.094201   -0.973508
     29          1           0       -3.304512   -1.445574   -0.087409
     30          1           0        1.960511   -2.574766   -0.586777
 ---------------------------------------------------------------------

 SCF Done:  E(UB3LYP) =  -1167.62562797     A.U. after   27 cycles

 The electronic state is 2-A.
 Alpha  occ. eigenvalues --  -88.74626 -88.74226 -14.21958 -10.14404 -10.13731
 Alpha  occ. eigenvalues --  -10.08004 -10.07689 -10.07570 -10.06917 -10.06128
 Alpha  occ. eigenvalues --  -10.05506  -7.83358  -7.82943  -5.79736  -5.79366
 Alpha  occ. eigenvalues --   -5.79319  -5.78965  -5.78752  -5.78316  -0.84134
 Alpha  occ. eigenvalues --   -0.72298  -0.69019  -0.66612  -0.64482  -0.60240
 Alpha  occ. eigenvalues --   -0.59669  -0.53759  -0.52220  -0.48394  -0.47319
 Alpha  occ. eigenvalues --   -0.41552  -0.38804  -0.36579  -0.36095  -0.35004
 Alpha  occ. eigenvalues --   -0.34271  -0.32196  -0.31194  -0.30870  -0.29799
 Alpha  occ. eigenvalues --   -0.29187  -0.27717  -0.26753  -0.25858  -0.24742
 Alpha  occ. eigenvalues --   -0.24135  -0.23888  -0.23670  -0.23149  -0.21816
 Alpha  occ. eigenvalues --   -0.15987  -0.14318  -0.13832   0.04307
 Alpha virt. eigenvalues --    0.06348   0.07385   0.07418   0.08371   0.09122
 Alpha virt. eigenvalues --    0.09219   0.09591   0.10017   0.10349   0.10797
 Alpha virt. eigenvalues --    0.11525   0.12113   0.12336   0.12512   0.13368

  Beta  occ. eigenvalues --  -88.74620 -88.74217 -14.21944 -10.14388 -10.13727
  Beta  occ. eigenvalues --  -10.07991 -10.07666 -10.07545 -10.06892 -10.06087
  Beta  occ. eigenvalues --  -10.05477  -7.83351  -7.82932  -5.79717  -5.79362
  Beta  occ. eigenvalues --   -5.79303  -5.78957  -5.78748  -5.78309  -0.84114
  Beta  occ. eigenvalues --   -0.72263  -0.68975  -0.66570  -0.64441  -0.60186
  Beta  occ. eigenvalues --   -0.59612  -0.53694  -0.52155  -0.48321  -0.47247
  Beta  occ. eigenvalues --   -0.41508  -0.38771  -0.36544  -0.36040  -0.34958
  Beta  occ. eigenvalues --   -0.34228  -0.32152  -0.31153  -0.30824  -0.29766
  Beta  occ. eigenvalues --   -0.29136  -0.27679  -0.26698  -0.25810  -0.24696
  Beta  occ. eigenvalues --   -0.24092  -0.23849  -0.23616  -0.23106  -0.21781
  Beta  occ. eigenvalues --   -0.15964  -0.14294  -0.13806
  Beta virt. eigenvalues --    0.06570   0.07335   0.07807   0.07970   0.08853
  Beta virt. eigenvalues --    0.09403   0.09487   0.09948   0.10413   0.10689
  Beta virt. eigenvalues --    0.11161   0.11838   0.12359   0.12765   0.12880

 Mulliken charges and spin densities:
               1          2
     1  C    1.020754  -1.614497
     2  C   -0.750773   0.622384
     3  C    0.380078  -0.876728
     4  C    0.268921  -0.339692
     5  N   -0.009089   0.119278
     6  C   -0.353545   0.255898
     7  C    0.181410  -0.575484
     8  C   -0.685834   0.600874
     9  C    0.853862  -1.562595
    10  S    0.062696  -0.220354
    11  S    0.157656  -0.247793
    12  H   -0.281822   0.432834
    13  H   -0.512200   0.668029
    14  H   -0.219180   0.357478
    15  H   -0.272832   0.389966
    16  H   -0.581954   0.771525
    17  H    0.106368   0.051228
    18  H   -0.104538   0.261530
    19  H    0.250867  -0.078721
    20  H    0.212352  -0.074640
    21  H    0.148788   0.063430
    22  H   -0.444317   0.627588
    23  H   -0.175750   0.330650
    24  H   -0.345068   0.501308
    25  H    0.936549  -0.793453
    26  H   -0.237063   0.387523
    27  H   -0.341436   0.475489
    28  H    0.001367   0.152948
    29  H   -0.186758   0.221226
    30  H   -0.079510   0.092772
 Sum of Mulliken charges =  -1.00000   1.00000

 Dipole moment (field-independent basis, Debye):
    X=              0.7285    Y=             -5.5444    Z=             -1.3650  Tot=              5.7562
 Quadrupole moment (field-independent basis, Debye-Ang):
   XX=           -152.5851   YY=           -147.6437   ZZ=           -122.5136
   XY=             -4.9465   XZ=              5.0735   YZ=             -0.5683

 Summary of Natural Population Analysis:

                                       Natural Population
                Natural  -----------------------------------------------
    Atom  No    Charge         Core      Valence    Rydberg      Total
 -----------------------------------------------------------------------
      C    1   -0.28809      0.99966     2.28255    0.00587     3.28809
      C    2   -0.19186      0.99964     2.18345    0.00877     3.19186
      C    3   -0.19824      0.99959     2.18742    0.01124     3.19824
      C    4   -0.05371      0.99956     2.03906    0.01509     3.05371
      N    5   -0.35693      0.99968     2.84388    0.01337     3.85693
      C    6   -0.05609      0.99956     2.04046    0.01608     3.05609
      C    7   -0.20169      0.99959     2.19227    0.00984     3.20169
      C    8   -0.19656      0.99963     2.18736    0.00957     3.19656
      C    9   -0.28807      0.99966     2.28278    0.00563     3.28807
      S   10   -0.02603      4.99964     3.01218    0.01421     8.02603
      S   11   -0.03271      4.99966     3.01960    0.01346     8.03271
      H   12    0.09646      0.00000     0.40179    0.00175     0.40354
      H   13    0.10396      0.00000     0.39449    0.00155     0.39604
      H   14    0.09719      0.00000     0.40150    0.00131     0.40281
      H   15    0.09022      0.00000     0.40810    0.00168     0.40978
      H   16    0.10117      0.00000     0.39738    0.00145     0.39883
      H   17    0.10088      0.00000     0.39790    0.00123     0.39912
      H   18    0.10527      0.00000     0.39349    0.00124     0.39473
      H   19    0.09154      0.00000     0.40613    0.00234     0.40846
      H   20    0.18529      0.00000     0.31122    0.00349     0.31471
      H   21    0.10484      0.00000     0.39337    0.00179     0.39516
      H   22    0.10203      0.00000     0.39651    0.00145     0.39797
      H   23    0.10305      0.00000     0.39528    0.00166     0.39695
      H   24    0.10056      0.00000     0.39770    0.00175     0.39944
      H   25    0.09221      0.00000     0.40561    0.00217     0.40779
      H   26    0.09534      0.00000     0.40327    0.00139     0.40466
      H   27    0.09863      0.00000     0.40034    0.00103     0.40137
      H   28    0.10136      0.00000     0.39737    0.00127     0.39864
      H   29    0.05792      0.00000     0.43917    0.00291     0.44208
      H   30    0.06207      0.00000     0.43499    0.00294     0.43793
 =======================================================================
   * Total *    0.00000     18.99586    33.84660    0.15754    53.00000

 Normal termination of Gaussian 16 at Tue Dec  8 21:27:33 2020.
