 Gaussian 16, Revision A.03,

 -----------------------------------------------------------
 # opt freq B3LYP/6-31G(d) empiricaldispersion=gd3bj scf=xqc
 -----------------------------------------------------------

 -------------------------------
 CID_143836492_JID_2596_neutraal
 -------------------------------
 Symbolic Z-matrix:
 Charge =  0 Multiplicity = 1

 SCF Done:  E(RB3LYP) =  -539.674138606     A.U. after   13 cycles
 SCF Done:  E(RB3LYP) =  -539.676752345     A.U. after   11 cycles
 SCF Done:  E(RB3LYP) =  -539.676185108     A.U. after   12 cycles
 SCF Done:  E(RB3LYP) =  -539.677127195     A.U. after   12 cycles
 SCF Done:  E(RB3LYP) =  -539.677609355     A.U. after   11 cycles
 SCF Done:  E(RB3LYP) =  -539.677749707     A.U. after   11 cycles
 SCF Done:  E(RB3LYP) =  -539.677795680     A.U. after   11 cycles
 SCF Done:  E(RB3LYP) =  -539.677835129     A.U. after   10 cycles
 SCF Done:  E(RB3LYP) =  -539.677872459     A.U. after   11 cycles
 SCF Done:  E(RB3LYP) =  -539.677884117     A.U. after   10 cycles
 SCF Done:  E(RB3LYP) =  -539.677891117     A.U. after    9 cycles
 SCF Done:  E(RB3LYP) =  -539.677891395     A.U. after    7 cycles
 SCF Done:  E(RB3LYP) =  -539.677891471     A.U. after    7 cycles
 SCF Done:  E(RB3LYP) =  -539.677891501     A.U. after    7 cycles
 SCF Done:  E(RB3LYP) =  -539.677891513     A.U. after    6 cycles
 Optimization completed.
    -- Stationary point found.
 Normal termination of Gaussian 16 at Wed Dec  9 17:44:23 2020.

 --------------------------------------------------------------------
 #N Geom=AllCheck Guess=TCheck SCRF=Check GenChk RB3LYP/6-31G(d) Freq
 --------------------------------------------------------------------

 Structure from the checkpoint file:  "JID_2596.chk"
 -------------------------------
 CID_143836492_JID_2596_neutraal
 -------------------------------
 Charge =  0 Multiplicity = 1

 SCF Done:  E(RB3LYP) =  -539.677891513     A.U. after    1 cycles

  Exact polarizability: 122.466   7.773 125.123   9.349   5.563  95.503
 Approx polarizability: 149.535  14.115 169.777  13.755  11.208 146.907

                      1                      2                      3
                      A                      A                      A
 Frequencies --     22.2709                38.2403                44.4686
 Red. masses --      3.5445                 2.6593                 3.3009
 Frc consts  --      0.0010                 0.0023                 0.0038
 IR Inten    --      0.1974                 0.3135                 0.0789

                      4                      5                      6
                      A                      A                      A
 Frequencies --     67.8094                99.0610               114.8025
 Red. masses --      2.3750                 3.2261                 2.1108
 Frc consts  --      0.0064                 0.0187                 0.0164
 IR Inten    --      0.1699                 0.8055                 0.3608

                      7                      8                      9
                      A                      A                      A
 Frequencies --    144.5073               171.7380               204.7915
 Red. masses --      3.0732                 2.5886                 2.7189
 Frc consts  --      0.0378                 0.0450                 0.0672
 IR Inten    --      0.7913                 0.1142                 1.2027

                     10                     11                     12
                      A                      A                      A
 Frequencies --    249.6382               264.7202               298.4825
 Red. masses --      2.2448                 1.8157                 2.1968
 Frc consts  --      0.0824                 0.0750                 0.1153
 IR Inten    --      9.2449                 1.0076                 1.9665

                     13                     14                     15
                      A                      A                      A
 Frequencies --    308.0376               347.2850               365.8608
 Red. masses --      2.2555                 2.1675                 1.6960
 Frc consts  --      0.1261                 0.1540                 0.1338
 IR Inten    --      0.1409                 6.1227                24.6142

                     16                     17                     18
                      A                      A                      A
 Frequencies --    384.8091               414.7354               438.3130
 Red. masses --      1.5991                 2.4577                 2.0805
 Frc consts  --      0.1395                 0.2491                 0.2355
 IR Inten    --     85.2927                 7.6501                 0.3974

                     19                     20                     21
                      A                      A                      A
 Frequencies --    486.2390               516.7606               618.9169
 Red. masses --      1.8642                 1.8502                 2.1618
 Frc consts  --      0.2597                 0.2911                 0.4879
 IR Inten    --      8.5193                 1.0003                 6.0754

                     22                     23                     24
                      A                      A                      A
 Frequencies --    685.0844               733.3422               799.0886
 Red. masses --      1.8978                 1.9317                 1.7304
 Frc consts  --      0.5248                 0.6121                 0.6510
 IR Inten    --     12.2448                 3.4603                 5.2204

                     25                     26                     27
                      A                      A                      A
 Frequencies --    816.6149               835.6363               860.7577
 Red. masses --      1.9295                 2.1437                 1.9178
 Frc consts  --      0.7581                 0.8820                 0.8372
 IR Inten    --     15.3797                34.9738                35.0343

                     28                     29                     30
                      A                      A                      A
 Frequencies --    888.1375               913.5348               925.0861
 Red. masses --      2.3897                 1.4721                 1.4671
 Frc consts  --      1.1106                 0.7238                 0.7397
 IR Inten    --      4.8315                20.6170                 5.9771

                     31                     32                     33
                      A                      A                      A
 Frequencies --    938.7329               942.8668               963.1599
 Red. masses --      1.4372                 1.9889                 2.0686
 Frc consts  --      0.7462                 1.0418                 1.1307
 IR Inten    --     31.3506                14.7089                10.2049

                     34                     35                     36
                      A                      A                      A
 Frequencies --   1014.0373              1027.1681              1037.5243
 Red. masses --      1.6613                 2.1605                 1.1557
 Frc consts  --      1.0065                 1.3431                 0.7330
 IR Inten    --     15.3509                 7.0169                10.9716

                     37                     38                     39
                      A                      A                      A
 Frequencies --   1080.1153              1098.9742              1129.9010
 Red. masses --      2.4543                 1.7566                 1.7354
 Frc consts  --      1.6870                 1.2500                 1.3054
 IR Inten    --      2.0393                 0.9399                 5.3845

                     40                     41                     42
                      A                      A                      A
 Frequencies --   1133.6465              1144.5420              1150.0823
 Red. masses --      2.2049                 2.1952                 2.6536
 Frc consts  --      1.6696                 1.6943                 2.0680
 IR Inten    --     15.5572                 7.3937                52.9070

                     43                     44                     45
                      A                      A                      A
 Frequencies --   1188.6812              1193.5851              1251.0724
 Red. masses --      2.1277                 2.3970                 1.2203
 Frc consts  --      1.7713                 2.0120                 1.1254
 IR Inten    --      1.5933                14.4101                 1.1886

                     46                     47                     48
                      A                      A                      A
 Frequencies --   1282.6206              1302.5453              1323.6109
 Red. masses --      1.3521                 1.2398                 1.2001
 Frc consts  --      1.3106                 1.2393                 1.2388
 IR Inten    --      1.2301                 3.5092                 5.9089

                     49                     50                     51
                      A                      A                      A
 Frequencies --   1330.4471              1346.0753              1358.0641
 Red. masses --      1.2637                 1.2259                 1.1635
 Frc consts  --      1.3180                 1.3087                 1.2644
 IR Inten    --      3.1075                 5.3307                 1.0105

                     52                     53                     54
                      A                      A                      A
 Frequencies --   1360.1570              1377.2173              1399.5018
 Red. masses --      1.2123                 1.2335                 1.3170
 Frc consts  --      1.3214                 1.3785                 1.5197
 IR Inten    --     24.7875                22.9205                23.8603

                     55                     56                     57
                      A                      A                      A
 Frequencies --   1405.2890              1412.7810              1427.0655
 Red. masses --      1.3611                 1.3967                 1.3953
 Frc consts  --      1.5837                 1.6424                 1.6742
 IR Inten    --      0.5726                 2.4751                 5.3329

                     58                     59                     60
                      A                      A                      A
 Frequencies --   1436.8031              1447.9529              1475.3037
 Red. masses --      1.3176                 1.2661                 1.1860
 Frc consts  --      1.6026                 1.5639                 1.5209
 IR Inten    --      8.0730                 6.8811                 4.1926

                     61                     62                     63
                      A                      A                      A
 Frequencies --   1493.0293              1503.6957              1507.4463
 Red. masses --      1.0878                 1.0863                 1.0821
 Frc consts  --      1.4287                 1.4472                 1.4487
 IR Inten    --      6.2271                 2.0120                 0.5934

                     64                     65                     66
                      A                      A                      A
 Frequencies --   1509.5116              1512.5417              1528.1433
 Red. masses --      1.0807                 1.1017                 1.0621
 Frc consts  --      1.4508                 1.4851                 1.4613
 IR Inten    --      1.5724                12.7200                 4.8216

                     67                     68                     69
                      A                      A                      A
 Frequencies --   1528.7661              1533.3309              1541.1869
 Red. masses --      1.1563                 1.0497                 1.1123
 Frc consts  --      1.5923                 1.4541                 1.5566
 IR Inten    --     20.5134                 8.0161                42.3368

                     70                     71                     72
                      A                      A                      A
 Frequencies --   1728.0094              2986.5587              3006.8661
 Red. masses --      4.4076                 1.0685                 1.0657
 Frc consts  --      7.7543                 5.6150                 5.6770
 IR Inten    --      3.3147                42.3892                32.5733

                     73                     74                     75
                      A                      A                      A
 Frequencies --   3026.5056              3034.9408              3039.0842
 Red. masses --      1.0608                 1.0630                 1.0650
 Frc consts  --      5.7251                 5.7686                 5.7957
 IR Inten    --     42.3664                29.4752                15.5512

                     76                     77                     78
                      A                      A                      A
 Frequencies --   3054.0930              3054.6527              3058.3897
 Red. masses --      1.0781                 1.0396                 1.0749
 Frc consts  --      5.9246                 5.7152                 5.9240
 IR Inten    --     50.7451                24.6524                39.3622

                     79                     80                     81
                      A                      A                      A
 Frequencies --   3069.2228              3073.6940              3079.6599
 Red. masses --      1.1028                 1.0963                 1.0984
 Frc consts  --      6.1209                 6.1026                 6.1379
 IR Inten    --     33.6883                18.1442                24.6193

                     82                     83                     84
                      A                      A                      A
 Frequencies --   3081.8449              3114.9843              3115.6439
 Red. masses --      1.1018                 1.0992                 1.1023
 Frc consts  --      6.1653                 6.2838                 6.3045
 IR Inten    --     61.8213                29.1351                52.0649

                     85                     86                     87
                      A                      A                      A
 Frequencies --   3135.2133              3147.0861              3159.2548
 Red. masses --      1.1002                 1.0591                 1.0908
 Frc consts  --      6.3714                 6.1804                 6.4145
 IR Inten    --     51.0255                22.9730                 8.5487

                     88                     89                     90
                      A                      A                      A
 Frequencies --   3229.0317              3494.5020              3750.1034
 Red. masses --      1.1151                 1.0726                 1.0683
 Frc consts  --      6.8502                 7.7174                 8.8517
 IR Inten    --     22.7166                16.2512                30.4076

 - Thermochemistry -
 -------------------
 Temperature   298.150 Kelvin.  Pressure   1.00000 Atm.
 Atom     1 has atomic number  6 and mass  12.00000

 Molecular mass:   172.15756 amu.
 Principal axes and moments of inertia in atomic units:
                           1         2         3
     Eigenvalues --  1478.695993752.320464746.91652
           X            0.99996  -0.00721   0.00525
           Y            0.00718   0.99995   0.00712
           Z           -0.00530  -0.00708   0.99996
 This molecule is an asymmetric top.
 Rotational symmetry number  1.
 Warning -- assumption of classical behavior for rotation
           may cause significant error
 Rotational temperatures (Kelvin)      0.05857     0.02308     0.01825
 Rotational constants (GHZ):           1.22050     0.48097     0.38019
 Zero-point vibrational energy     766419.2 (Joules/Mol)
                                  183.17859 (Kcal/Mol)
 Warning -- explicit consideration of  21 degrees of freedom as
           vibrations may cause significant error
 Vibrational temperatures:     32.04    55.02    63.98    97.56   142.53
          (Kelvin)            165.18   207.91   247.09   294.65   359.17
                              380.87   429.45   443.20   499.67   526.39
                              553.65   596.71   630.63   699.59   743.50
                              890.48   985.68  1055.12  1149.71  1174.93
                             1202.29  1238.44  1277.83  1314.37  1330.99
                             1350.63  1356.57  1385.77  1458.97  1477.87
                             1492.77  1554.05  1581.18  1625.68  1631.06
                             1646.74  1654.71  1710.25  1717.30  1800.01
                             1845.40  1874.07  1904.38  1914.22  1936.70
                             1953.95  1956.96  1981.51  2013.57  2021.90
                             2032.68  2053.23  2067.24  2083.28  2122.63
                             2148.14  2163.48  2168.88  2171.85  2176.21
                             2198.66  2199.55  2206.12  2217.42  2486.22
                             4296.99  4326.21  4354.47  4366.60  4372.56
                             4394.16  4394.96  4400.34  4415.93  4422.36
                             4430.94  4434.09  4481.77  4482.72  4510.87
                             4527.95  4545.46  4645.86  5027.81  5395.56

 Zero-point correction=                           0.291914 (Hartree/Particle)
 Thermal correction to Energy=                    0.306632
 Thermal correction to Enthalpy=                  0.307576
 Thermal correction to Gibbs Free Energy=         0.248631
 Sum of electronic and zero-point Energies=           -539.385978
 Sum of electronic and thermal Energies=              -539.371260
 Sum of electronic and thermal Enthalpies=            -539.370315
 Sum of electronic and thermal Free Energies=         -539.429261

                     E (Thermal)             CV                S
                      KCal/Mol        Cal/Mol-Kelvin    Cal/Mol-Kelvin
 Total                  192.414             53.599            124.061
 Electronic               0.000              0.000              0.000
 Translational            0.889              2.981             41.337
 Rotational               0.889              2.981             31.644
 Vibrational            190.637             47.637             51.080
 Vibration     1          0.593              1.985              6.421
 Vibration     2          0.594              1.982              5.348
 Vibration     3          0.595              1.980              5.049
 Vibration     4          0.598              1.970              4.216
 Vibration     5          0.604              1.950              3.473
 Vibration     6          0.608              1.937              3.186
 Vibration     7          0.616              1.909              2.743
 Vibration     8          0.626              1.877              2.416
 Vibration     9          0.640              1.833              2.090
 Vibration    10          0.662              1.763              1.733
 Vibration    11          0.671              1.738              1.630
 Vibration    12          0.692              1.677              1.425
 Vibration    13          0.698              1.658              1.373
 Vibration    14          0.725              1.581              1.178
 Vibration    15          0.739              1.542              1.097
 Vibration    16          0.754              1.503              1.020
 Vibration    17          0.778              1.438              0.910
 Vibration    18          0.798              1.387              0.832
 Vibration    19          0.842              1.281              0.693
 Vibration    20          0.872              1.213              0.618
 Vibration    21          0.979              0.992              0.418

 Optimization completed.
    -- Stationary point found.
 Normal termination of Gaussian 16 at Wed Dec  9 17:52:10 2020.

 ----------------------------------------------------------------------
 # B3LYP/6-311++G(d,p) empiricaldispersion=gd3bj scf=xqc pop=npa geom=c
 heck
 ----------------------------------------------------------------------

 ---------------------------------------
 CID_143836492_JID_2596_Energie_neutraal
 ---------------------------------------
 Structure from the checkpoint file:  "JID_2596.chk"
 Charge =  0 Multiplicity = 1

 SCF Done:  E(RB3LYP) =  -539.845313794     A.U. after   13 cycles
 Normal termination of Gaussian 16 at Wed Dec  9 17:55:42 2020.

 ----------------------------------------------------------------------
 # B3LYP/6-311++G(d,p) empiricaldispersion=gd3bj scf=xqc pop=npa geom=c
 heck
 ----------------------------------------------------------------------

 -------------------------------------
 CID_143836492_JID_2596_Energie_kation
 -------------------------------------
 Structure from the checkpoint file:  "JID_2596.chk"
 Charge =  1 Multiplicity = 2

 SCF Done:  E(UB3LYP) =  -539.554376293     A.U. after   24 cycles
 Normal termination of Gaussian 16 at Wed Dec  9 18:04:08 2020.
 Gaussian 16:  ES64L-G16RevA.03 25-Dec-2016

 ----------------------------------------------------------------------
 # B3LYP/6-311++G(d,p) empiricaldispersion=gd3bj scf=xqc pop=npa geom=c
 heck
 ----------------------------------------------------------------------

 ------------------------------------
 CID_143836492_JID_2596_Energie_anion
 ------------------------------------
 Structure from the checkpoint file:  "JID_2596.chk"
 Charge = -1 Multiplicity = 2

                         Standard orientation:
 ---------------------------------------------------------------------
 Center     Atomic      Atomic             Coordinates (Angstroms)
 Number     Number       Type             X           Y           Z
 ---------------------------------------------------------------------
      1          6           0       -3.009557    2.210809   -0.187640
      2          6           0       -3.504004    0.769588   -0.343777
      3          6           0       -2.411759   -0.293412   -0.491215
      4          7           0       -1.636840   -0.507873    0.733452
      5          6           0       -0.910478   -1.785803    0.759931
      6          6           0       -0.046260   -2.181228   -0.450931
      7          6           0        1.087758   -1.215854   -0.816874
      8          7           0        1.942163   -0.939971    0.336985
      9          6           0        3.203617   -0.264841    0.009174
     10          6           0        3.057546    1.158542   -0.469982
     11          6           0        3.582274    2.216491    0.149066
     12          8           0       -0.642469    0.555637    0.802387
     13          1           0       -2.495765    2.365294    0.764944
     14          1           0       -3.849840    2.913027   -0.230106
     15          1           0       -2.304827    2.475160   -0.984190
     16          1           0       -4.138842    0.496729    0.508721
     17          1           0       -4.137394    0.708669   -1.239472
     18          1           0       -2.890152   -1.254568   -0.716308
     19          1           0       -1.753137   -0.048297   -1.338984
     20          1           0       -0.293641   -1.773002    1.663222
     21          1           0       -1.676854   -2.556493    0.911865
     22          1           0        0.392371   -3.158546   -0.212533
     23          1           0       -0.682819   -2.326533   -1.333321
     24          1           0        1.708171   -1.691454   -1.588049
     25          1           0        0.663247   -0.304512   -1.268643
     26          1           0        1.409142   -0.331664    0.957165
     27          1           0        3.843529   -0.280795    0.900748
     28          1           0        3.710169   -0.871394   -0.754989
     29          1           0        2.454500    1.308690   -1.365441
     30          1           0        3.437018    3.230591   -0.214119
     31          1           0        4.187168    2.104804    1.047618
     32          1           0       -0.874379    0.998356    1.633212
 ---------------------------------------------------------------------

 SCF Done:  E(UB3LYP) =  -539.829209543     A.U. after   33 cycles
 SCF Done:  E(UB3LYP) =  -539.829209543     a.u. after    1 cycles

 The electronic state is 2-A.
 Alpha  occ. eigenvalues --  -19.04050 -14.24818 -14.19087 -10.09886 -10.08816
 Alpha  occ. eigenvalues --  -10.08607 -10.08536 -10.07982 -10.07233 -10.06164
 Alpha  occ. eigenvalues --  -10.05986 -10.04972  -0.95325  -0.80410  -0.75831
 Alpha  occ. eigenvalues --   -0.68997  -0.67369  -0.64216  -0.58992  -0.56246
 Alpha  occ. eigenvalues --   -0.53386  -0.48935  -0.46847  -0.45844  -0.41533
 Alpha  occ. eigenvalues --   -0.39882  -0.38171  -0.36211  -0.35210  -0.34706
 Alpha  occ. eigenvalues --   -0.33982  -0.32786  -0.31496  -0.30585  -0.30022
 Alpha  occ. eigenvalues --   -0.29303  -0.27497  -0.26732  -0.25351  -0.25039
 Alpha  occ. eigenvalues --   -0.24628  -0.23534  -0.23440  -0.22782  -0.18651
 Alpha  occ. eigenvalues --   -0.17632  -0.12630  -0.12485   0.04651
 Alpha virt. eigenvalues --    0.06758   0.06998   0.07631   0.08360   0.08477
 Alpha virt. eigenvalues --    0.08938   0.09578   0.09835   0.10262   0.10802
 Alpha virt. eigenvalues --    0.11138   0.11934   0.12321   0.12836   0.13428

  Beta  occ. eigenvalues --  -19.04016 -14.24803 -14.19078 -10.09877 -10.08801
  Beta  occ. eigenvalues --  -10.08586 -10.08525 -10.07978 -10.07210 -10.06148
  Beta  occ. eigenvalues --  -10.05964 -10.04937  -0.95250  -0.80394  -0.75769
  Beta  occ. eigenvalues --   -0.68972  -0.67331  -0.64177  -0.58947  -0.56200
  Beta  occ. eigenvalues --   -0.53330  -0.48873  -0.46795  -0.45778  -0.41479
  Beta  occ. eigenvalues --   -0.39851  -0.38142  -0.36174  -0.35173  -0.34674
  Beta  occ. eigenvalues --   -0.33954  -0.32740  -0.31458  -0.30551  -0.29982
  Beta  occ. eigenvalues --   -0.29261  -0.27474  -0.26703  -0.25325  -0.24997
  Beta  occ. eigenvalues --   -0.24576  -0.23488  -0.23397  -0.22751  -0.18607
  Beta  occ. eigenvalues --   -0.17599  -0.12575  -0.12467
  Beta virt. eigenvalues --    0.06707   0.07455   0.07671   0.08106   0.08721
  Beta virt. eigenvalues --    0.09052   0.09129   0.10023   0.10129   0.10563
  Beta virt. eigenvalues --    0.11262   0.11474   0.12102   0.12660   0.12947

 Mulliken charges and spin densities:
               1          2
     1  C    0.736433  -1.231323
     2  C   -0.310684  -0.041642
     3  C    0.662246  -0.951001
     4  N   -0.097589   0.132494
     5  C   -0.062973  -0.480118
     6  C    0.088468  -0.180642
     7  C    0.037673  -0.482525
     8  N   -0.039105   0.093047
     9  C    0.276371  -0.895573
    10  C   -0.369209   0.779965
    11  C    0.137087  -0.670539
    12  O   -0.187511   0.020549
    13  H   -0.290229   0.403577
    14  H   -0.207545   0.335600
    15  H   -0.108428   0.249395
    16  H   -0.028198   0.183764
    17  H   -0.205194   0.328633
    18  H   -0.582166   0.755694
    19  H    0.171643  -0.036833
    20  H   -0.035873   0.211619
    21  H   -0.344769   0.510436
    22  H   -0.081424   0.249058
    23  H   -0.195934   0.325189
    24  H   -0.115956   0.264696
    25  H    0.171861  -0.046608
    26  H    0.303259  -0.070503
    27  H    0.014397   0.135231
    28  H   -0.030028   0.164796
    29  H   -0.117942   0.280951
    30  H   -0.092690   0.207936
    31  H   -0.112193   0.216588
    32  H    0.016202   0.238087
 Sum of Mulliken charges =  -1.00000   1.00000

 Dipole moment (field-independent basis, Debye):
    X=              3.6428    Y=             -0.3291    Z=              0.0619  Tot=              3.6582
 Quadrupole moment (field-independent basis, Debye-Ang):
   XX=           -145.8134   YY=           -128.4221   ZZ=           -107.1689
   XY=             -1.2788   XZ=             -1.0317   YZ=             -1.4975

 Summary of Natural Population Analysis:

                                       Natural Population
                Natural  -----------------------------------------------
    Atom  No    Charge         Core      Valence    Rydberg      Total
 -----------------------------------------------------------------------
      C    1   -0.28131      0.99966     2.27741    0.00423     3.28131
      C    2   -0.19061      0.99964     2.18334    0.00763     3.19061
      C    3   -0.09426      0.99959     2.08086    0.01381     3.09426
      N    4   -0.12762      0.99970     2.61248    0.01543     3.62762
      C    5   -0.09234      0.99959     2.07961    0.01313     3.09234
      C    6   -0.20292      0.99962     2.19391    0.00938     3.20292
      C    7   -0.08988      0.99962     2.07908    0.01118     3.08988
      N    8   -0.34359      0.99975     2.83267    0.01117     3.84359
      C    9   -0.10153      0.99961     2.09057    0.01135     3.10153
      C   10   -0.09047      0.99956     2.08230    0.00860     3.09047
      C   11   -0.19205      0.99957     2.18532    0.00716     3.19205
      O   12   -0.30884      0.99991     3.30076    0.00817     4.30884
      H   13    0.09677      0.00000     0.40167    0.00156     0.40323
      H   14    0.09473      0.00000     0.40401    0.00127     0.40527
      H   15    0.09691      0.00000     0.40179    0.00130     0.40309
      H   16    0.09577      0.00000     0.40230    0.00192     0.40423
      H   17    0.09415      0.00000     0.40455    0.00130     0.40585
      H   18    0.10020      0.00000     0.39749    0.00231     0.39980
      H   19    0.08701      0.00000     0.41110    0.00189     0.41299
      H   20    0.09872      0.00000     0.39967    0.00161     0.40128
      H   21    0.10119      0.00000     0.39725    0.00156     0.39881
      H   22    0.09994      0.00000     0.39854    0.00152     0.40006
      H   23    0.09822      0.00000     0.40050    0.00127     0.40178
      H   24    0.08876      0.00000     0.40980    0.00143     0.41124
      H   25    0.08436      0.00000     0.41327    0.00237     0.41564
      H   26    0.18316      0.00000     0.31302    0.00383     0.31684
      H   27    0.09173      0.00000     0.40693    0.00134     0.40827
      H   28    0.09308      0.00000     0.40545    0.00147     0.40692
      H   29    0.09362      0.00000     0.40507    0.00131     0.40638
      H   30    0.09324      0.00000     0.40552    0.00124     0.40676
      H   31    0.08703      0.00000     0.41133    0.00164     0.41297
      H   32    0.23682      0.00000     0.25859    0.00459     0.26318
 =======================================================================
   * Total *    0.00000     11.99582    35.84619    0.15799    48.00000

 Normal termination of Gaussian 16 at Wed Dec  9 18:13:49 2020.
