 Gaussian 16, Revision A.03,

 -----------------------------------------------------------
 # opt freq B3LYP/6-31G(d) empiricaldispersion=gd3bj scf=xqc
 -----------------------------------------------------------

 -----------------------------
 CID_58471380_JID_643_neutraal
 -----------------------------
 Symbolic Z-matrix:
 Charge =  0 Multiplicity = 1

 SCF Done:  E(RB3LYP) =  -443.865689744     A.U. after   14 cycles
 SCF Done:  E(RB3LYP) =  -443.868496851     A.U. after   12 cycles
 SCF Done:  E(RB3LYP) =  -443.868821961     A.U. after   12 cycles
 SCF Done:  E(RB3LYP) =  -443.869513828     A.U. after   11 cycles
 SCF Done:  E(RB3LYP) =  -443.869578739     A.U. after   10 cycles
 SCF Done:  E(RB3LYP) =  -443.869607324     A.U. after   11 cycles
 SCF Done:  E(RB3LYP) =  -443.869613628     A.U. after    9 cycles
 SCF Done:  E(RB3LYP) =  -443.869618432     A.U. after    9 cycles
 SCF Done:  E(RB3LYP) =  -443.869623435     A.U. after   10 cycles
 SCF Done:  E(RB3LYP) =  -443.869626947     A.U. after   10 cycles
 SCF Done:  E(RB3LYP) =  -443.869627914     A.U. after    8 cycles
 SCF Done:  E(RB3LYP) =  -443.869628287     A.U. after    8 cycles
 SCF Done:  E(RB3LYP) =  -443.869628271     A.U. after    6 cycles
 Optimization completed.
    -- Stationary point found.
 Normal termination of Gaussian 16 at Tue Dec  8 12:24:53 2020.

 --------------------------------------------------------------------
 #N Geom=AllCheck Guess=TCheck SCRF=Check GenChk RB3LYP/6-31G(d) Freq
 --------------------------------------------------------------------

 Structure from the checkpoint file:  "JID_643.chk"
 -----------------------------
 CID_58471380_JID_643_neutraal
 -----------------------------
 Charge =  0 Multiplicity = 1

 SCF Done:  E(RB3LYP) =  -443.869628271     A.U. after    1 cycles

  Exact polarizability: 115.897   1.920  83.445   2.020  -0.805  76.117
 Approx polarizability: 151.406   1.681 112.937   6.991   2.202 123.983

                      1                      2                      3
                      A                      A                      A
 Frequencies --     41.9241               116.1125               185.4463
 Red. masses --      2.3897                 3.7548                 2.5115
 Frc consts  --      0.0025                 0.0298                 0.0509
 IR Inten    --      0.4124                 2.5552                 4.5375

                      4                      5                      6
                      A                      A                      A
 Frequencies --    223.6651               275.7722               307.2181
 Red. masses --      3.2946                 2.5670                 2.4202
 Frc consts  --      0.0971                 0.1150                 0.1346
 IR Inten    --      6.5103                 7.8517                 0.2290

                      7                      8                      9
                      A                      A                      A
 Frequencies --    314.5825               333.5613               360.8337
 Red. masses --      2.1582                 2.1716                 2.3206
 Frc consts  --      0.1258                 0.1424                 0.1780
 IR Inten    --      8.5343                 1.2430                 4.4396

                     10                     11                     12
                      A                      A                      A
 Frequencies --    394.2881               455.1523               487.0129
 Red. masses --      3.0381                 2.5831                 2.8766
 Frc consts  --      0.2783                 0.3153                 0.4020
 IR Inten    --      0.3574                 0.6384                 5.7083

                     13                     14                     15
                      A                      A                      A
 Frequencies --    520.8316               579.3607               722.7752
 Red. masses --      2.0652                 2.9752                 1.4891
 Frc consts  --      0.3301                 0.5884                 0.4583
 IR Inten    --      8.0398                 0.6049                 7.3493

                     16                     17                     18
                      A                      A                      A
 Frequencies --    798.4182               852.9224               864.7823
 Red. masses --      2.2551                 1.7614                 1.6264
 Frc consts  --      0.8470                 0.7550                 0.7166
 IR Inten    --      0.8244                 4.3670                 0.9700

                     19                     20                     21
                      A                      A                      A
 Frequencies --    907.6312               913.7778               947.6596
 Red. masses --      1.9363                 2.2313                 2.0348
 Frc consts  --      0.9398                 1.0977                 1.0767
 IR Inten    --      0.9823                 2.2501                 3.1812

                     22                     23                     24
                      A                      A                      A
 Frequencies --    976.3927              1003.4431              1044.2843
 Red. masses --      2.4128                 1.7347                 2.4257
 Frc consts  --      1.3553                 1.0291                 1.5586
 IR Inten    --     18.3687                 3.4707                13.3902

                     25                     26                     27
                      A                      A                      A
 Frequencies --   1060.0217              1073.9784              1084.3130
 Red. masses --      3.2653                 1.7812                 2.8207
 Frc consts  --      2.1617                 1.2105                 1.9540
 IR Inten    --     42.7229                 1.8947                 4.3251

                     28                     29                     30
                      A                      A                      A
 Frequencies --   1097.7983              1103.8108              1150.3450
 Red. masses --      2.3896                 2.1540                 2.8124
 Frc consts  --      1.6968                 1.5463                 2.1927
 IR Inten    --     32.0281                 2.4015                25.9682

                     31                     32                     33
                      A                      A                      A
 Frequencies --   1209.1916              1219.0952              1232.5341
 Red. masses --      1.8171                 1.4813                 1.1669
 Frc consts  --      1.5654                 1.2971                 1.0444
 IR Inten    --    103.1977                34.6070                11.1772

                     34                     35                     36
                      A                      A                      A
 Frequencies --   1264.8033              1284.0934              1313.1072
 Red. masses --      1.3652                 1.1853                 1.1989
 Frc consts  --      1.2868                 1.1515                 1.2179
 IR Inten    --     30.2700                 6.3010                21.4410

                     37                     38                     39
                      A                      A                      A
 Frequencies --   1334.4107              1341.0259              1345.7573
 Red. masses --      1.1287                 1.2323                 1.2066
 Frc consts  --      1.1842                 1.3057                 1.2875
 IR Inten    --      0.0631                65.0372                 2.6763

                     40                     41                     42
                      A                      A                      A
 Frequencies --   1388.8841              1393.3739              1396.4642
 Red. masses --      1.2510                 1.3401                 1.3932
 Frc consts  --      1.4218                 1.5330                 1.6007
 IR Inten    --      8.4416                 2.3565                 2.1303

                     43                     44                     45
                      A                      A                      A
 Frequencies --   1406.2567              1413.8691              1419.6052
 Red. masses --      1.3667                 1.2855                 1.3146
 Frc consts  --      1.5924                 1.5140                 1.5609
 IR Inten    --      3.5768                 2.6158                 2.5657

                     46                     47                     48
                      A                      A                      A
 Frequencies --   1442.5768              1505.3065              1507.6627
 Red. masses --      1.3212                 1.0884                 1.0892
 Frc consts  --      1.6199                 1.4531                 1.4587
 IR Inten    --      5.1040                 3.2452                 5.4874

                     49                     50                     51
                      A                      A                      A
 Frequencies --   1521.7795              1526.0045              1534.9010
 Red. masses --      1.0882                 1.0934                 1.1028
 Frc consts  --      1.4848                 1.5001                 1.5308
 IR Inten    --      1.0955                 1.7950                 5.7428

                     52                     53                     54
                      A                      A                      A
 Frequencies --   1537.3734              1552.8959              1779.9248
 Red. masses --      1.0737                 1.0778                 8.0699
 Frc consts  --      1.4952                 1.5313                15.0634
 IR Inten    --     10.2191                 8.4261               275.2373

                     55                     56                     57
                      A                      A                      A
 Frequencies --   2955.4539              3001.5619              3012.4634
 Red. masses --      1.0717                 1.0834                 1.0736
 Frc consts  --      5.5155                 5.7507                 5.7401
 IR Inten    --     54.3540                12.2654                59.1905

                     58                     59                     60
                      A                      A                      A
 Frequencies --   3024.3152              3035.3557              3038.6464
 Red. masses --      1.0669                 1.0641                 1.0644
 Frc consts  --      5.7494                 5.7761                 5.7903
 IR Inten    --      8.5911                39.8009                36.8626

                     61                     62                     63
                      A                      A                      A
 Frequencies --   3041.0096              3047.6029              3069.3764
 Red. masses --      1.0677                 1.0779                 1.0952
 Frc consts  --      5.8177                 5.8984                 6.0793
 IR Inten    --     27.1138                 8.0699                20.1729

                     64                     65                     66
                      A                      A                      A
 Frequencies --   3075.4557              3079.4862              3085.6605
 Red. masses --      1.0903                 1.0907                 1.1016
 Frc consts  --      6.0762                 6.0944                 6.1795
 IR Inten    --     93.5470                59.9207                31.4745

                     67                     68                     69
                      A                      A                      A
 Frequencies --   3086.8494              3125.0769              3135.7898
 Red. masses --      1.0992                 1.0948                 1.0915
 Frc consts  --      6.1711                 6.2996                 6.3236
 IR Inten    --     63.9662                41.3837                11.5498

 - Thermochemistry -
 -------------------
 Temperature   298.150 Kelvin.  Pressure   1.00000 Atm.
 Atom     1 has atomic number  6 and mass  12.00000

 Molecular mass:   141.11536 amu.
 Principal axes and moments of inertia in atomic units:
                           1         2         3
     Eigenvalues --   927.571251606.716342330.14522
           X            0.99988   0.01524   0.00092
           Y           -0.01522   0.99975  -0.01625
           Z           -0.00117   0.01623   0.99987
 This molecule is an asymmetric top.
 Rotational symmetry number  1.
 Warning -- assumption of classical behavior for rotation
           may cause significant error
 Rotational temperatures (Kelvin)      0.09338     0.05391     0.03717
 Rotational constants (GHZ):           1.94566     1.12325     0.77452
 Zero-point vibrational energy     597433.7 (Joules/Mol)
                                  142.79008 (Kcal/Mol)
 Warning -- explicit consideration of  14 degrees of freedom as
           vibrations may cause significant error
 Vibrational temperatures:     60.32   167.06   266.82   321.80   396.77
          (Kelvin)            442.02   452.61   479.92   519.16   567.29
                              654.86   700.70   749.36   833.57  1039.91
                             1148.75  1227.17  1244.23  1305.88  1314.72
                             1363.47  1404.81  1443.73  1502.49  1525.13
                             1545.22  1560.08  1579.49  1588.14  1655.09
                             1739.76  1754.01  1773.34  1819.77  1847.52
                             1889.27  1919.92  1929.44  1936.24  1998.29
                             2004.75  2009.20  2023.29  2034.24  2042.50
                             2075.55  2165.80  2169.19  2189.50  2195.58
                             2208.38  2211.94  2234.27  2560.91  4252.24
                             4318.58  4334.26  4351.32  4367.20  4371.93
                             4375.33  4384.82  4416.15  4424.89  4430.69
                             4439.58  4441.29  4496.29  4511.70

 Zero-point correction=                           0.227550 (Hartree/Particle)
 Thermal correction to Energy=                    0.237143
 Thermal correction to Enthalpy=                  0.238087
 Thermal correction to Gibbs Free Energy=         0.192749
 Sum of electronic and zero-point Energies=           -443.642078
 Sum of electronic and thermal Energies=              -443.632486
 Sum of electronic and thermal Enthalpies=            -443.631541
 Sum of electronic and thermal Free Energies=         -443.676879

                     E (Thermal)             CV                S
                      KCal/Mol        Cal/Mol-Kelvin    Cal/Mol-Kelvin
 Total                  148.809             37.561             95.421
 Electronic               0.000              0.000              0.000
 Translational            0.889              2.981             40.745
 Rotational               0.889              2.981             29.631
 Vibrational            147.032             31.600             25.046
 Vibration     1          0.595              1.980              5.166
 Vibration     2          0.608              1.936              3.164
 Vibration     3          0.632              1.860              2.273
 Vibration     4          0.649              1.805              1.929
 Vibration     5          0.677              1.718              1.560
 Vibration     6          0.697              1.660              1.377
 Vibration     7          0.702              1.646              1.338
 Vibration     8          0.715              1.608              1.243
 Vibration     9          0.735              1.553              1.119
 Vibration    10          0.761              1.482              0.984
 Vibration    11          0.813              1.349              0.780
 Vibration    12          0.843              1.279              0.691
 Vibration    13          0.876              1.204              0.608
 Vibration    14          0.936              1.076              0.487

 Optimization completed.
    -- Stationary point found.
 Normal termination of Gaussian 16 at Tue Dec  8 12:30:06 2020.

 ----------------------------------------------------------------------
 # B3LYP/6-311++G(d,p) empiricaldispersion=gd3bj scf=xqc pop=npa geom=c
 heck
 ----------------------------------------------------------------------

 -------------------------------------
 CID_58471380_JID_643_Energie_neutraal
 -------------------------------------
 Structure from the checkpoint file:  "JID_643.chk"
 Charge =  0 Multiplicity = 1

 SCF Done:  E(RB3LYP) =  -443.993884031     A.U. after   13 cycles
 Normal termination of Gaussian 16 at Tue Dec  8 12:32:36 2020.

 ----------------------------------------------------------------------
 # B3LYP/6-311++G(d,p) empiricaldispersion=gd3bj scf=xqc pop=npa geom=c
 heck
 ----------------------------------------------------------------------

 -----------------------------------
 CID_58471380_JID_643_Energie_kation
 -----------------------------------
 Structure from the checkpoint file:  "JID_643.chk"
 Charge =  1 Multiplicity = 2

 SCF Done:  E(UB3LYP) =  -443.666207173     A.U. after   20 cycles
 Normal termination of Gaussian 16 at Tue Dec  8 12:40:12 2020.
 Gaussian 16:  ES64L-G16RevA.03 25-Dec-2016

 ----------------------------------------------------------------------
 # B3LYP/6-311++G(d,p) empiricaldispersion=gd3bj scf=xqc pop=npa geom=c
 heck
 ----------------------------------------------------------------------

 ----------------------------------
 CID_58471380_JID_643_Energie_anion
 ----------------------------------
 Structure from the checkpoint file:  "JID_643.chk"
 Charge = -1 Multiplicity = 2

                         Standard orientation:
 ---------------------------------------------------------------------
 Center     Atomic      Atomic             Coordinates (Angstroms)
 Number     Number       Type             X           Y           Z
 ---------------------------------------------------------------------
      1          6           0       -0.261459    1.508965   -0.522404
      2          6           0       -1.593425    1.397777    0.273763
      3          6           0       -2.545857    0.269663   -0.172034
      4          6           0       -2.098421   -1.144212    0.248657
      5          7           0       -0.856604   -1.477732   -0.425608
      6          6           0        0.200000   -1.384834    0.254636
      7          8           0        1.416398   -1.485491   -0.332942
      8          6           0        2.413553   -0.616174    0.221083
      9          6           0        2.254147    0.851185   -0.196518
     10          6           0        1.006859    1.568376    0.368281
     11          1           0       -0.287371    2.407578   -1.150745
     12          1           0       -0.184065    0.669793   -1.215294
     13          1           0       -1.374858    1.257985    1.342069
     14          1           0       -2.137469    2.347966    0.212820
     15          1           0       -2.664755    0.291884   -1.262581
     16          1           0       -3.539498    0.446928    0.260608
     17          1           0       -2.868188   -1.868923   -0.041309
     18          1           0       -2.008639   -1.179746    1.350119
     19          1           0        0.235748   -1.180306    1.337445
     20          1           0        3.364655   -1.014817   -0.140462
     21          1           0        2.404468   -0.697945    1.319288
     22          1           0        2.265865    0.911690   -1.291701
     23          1           0        3.160916    1.362985    0.154011
     24          1           0        1.259878    2.618621    0.556265
     25          1           0        0.785972    1.149885    1.359472
 ---------------------------------------------------------------------

 SCF Done:  E(UB3LYP) =  -443.976080335     A.U. after   32 cycles

 The electronic state is 2-A.
 Alpha  occ. eigenvalues --  -19.04869 -14.19145 -10.15129 -10.12172 -10.09239
 Alpha  occ. eigenvalues --  -10.06538 -10.06397 -10.05954 -10.05898 -10.05395
 Alpha  occ. eigenvalues --   -0.97173  -0.81561  -0.70319  -0.66653  -0.64346
 Alpha  occ. eigenvalues --   -0.56526  -0.54966  -0.48283  -0.47382  -0.46891
 Alpha  occ. eigenvalues --   -0.40912  -0.39554  -0.38190  -0.35498  -0.33490
 Alpha  occ. eigenvalues --   -0.32167  -0.31796  -0.29867  -0.28953  -0.27436
 Alpha  occ. eigenvalues --   -0.26356  -0.25151  -0.24306  -0.22519  -0.22148
 Alpha  occ. eigenvalues --   -0.20739  -0.20234  -0.16335  -0.14943   0.04918
 Alpha virt. eigenvalues --    0.06827   0.07517   0.08340   0.09301   0.09713
 Alpha virt. eigenvalues --    0.10247   0.10387   0.11244   0.12061   0.12204
 Alpha virt. eigenvalues --    0.12987   0.13030   0.14001   0.14936   0.15770

  Beta  occ. eigenvalues --  -19.04865 -14.19138 -10.15105 -10.12142 -10.09224
  Beta  occ. eigenvalues --  -10.06516 -10.06384 -10.05930 -10.05878 -10.05388
  Beta  occ. eigenvalues --   -0.97159  -0.81542  -0.70281  -0.66612  -0.64309
  Beta  occ. eigenvalues --   -0.56475  -0.54928  -0.48208  -0.47322  -0.46836
  Beta  occ. eigenvalues --   -0.40844  -0.39517  -0.38151  -0.35446  -0.33457
  Beta  occ. eigenvalues --   -0.32127  -0.31762  -0.29834  -0.28914  -0.27396
  Beta  occ. eigenvalues --   -0.26310  -0.25106  -0.24267  -0.22469  -0.22106
  Beta  occ. eigenvalues --   -0.20702  -0.20198  -0.16282  -0.14927
  Beta virt. eigenvalues --    0.07402   0.07983   0.08378   0.08986   0.09957
  Beta virt. eigenvalues --    0.10175   0.10705   0.10917   0.11657   0.12490
  Beta virt. eigenvalues --    0.12918   0.13425   0.13507   0.14353   0.15326

 Mulliken charges and spin densities:
               1          2
     1  C    0.034616  -0.365968
     2  C    0.318546  -0.519255
     3  C   -0.286632   0.020637
     4  C    0.328516  -0.747817
     5  N   -0.176124   0.114104
     6  C    0.436958  -0.596349
     7  O   -0.068411   0.055007
     8  C    1.048218  -1.398702
     9  C   -0.496591   0.122116
    10  C    0.509208  -0.596731
    11  H   -0.116101   0.284739
    12  H    0.180980  -0.008687
    13  H   -0.045645   0.197236
    14  H   -0.276007   0.417992
    15  H    0.178149  -0.030597
    16  H   -0.420589   0.557275
    17  H    0.005596   0.163169
    18  H   -0.310135   0.415333
    19  H   -0.163947   0.291009
    20  H   -0.307578   0.481145
    21  H   -0.467040   0.627780
    22  H    0.201731  -0.037296
    23  H   -0.683314   0.841652
    24  H   -0.475958   0.645709
    25  H    0.051552   0.066500
 Sum of Mulliken charges =  -1.00000   1.00000

 Dipole moment (field-independent basis, Debye):
    X=             -2.2125    Y=             -1.9811    Z=             -3.5018  Tot=              4.5916
 Quadrupole moment (field-independent basis, Debye-Ang):
   XX=           -125.8542   YY=           -107.6142   ZZ=            -94.7850
   XY=             -2.0726   XZ=             -2.9161   YZ=             -3.7119

 Summary of Natural Population Analysis:

                                       Natural Population
                Natural  -----------------------------------------------
    Atom  No    Charge         Core      Valence    Rydberg      Total
 -----------------------------------------------------------------------
      C    1   -0.20006      0.99962     2.19138    0.00906     3.20006
      C    2   -0.19324      0.99963     2.18437    0.00924     3.19324
      C    3   -0.18765      0.99962     2.17916    0.00888     3.18765
      C    4   -0.09585      0.99960     2.08355    0.01270     3.09585
      N    5   -0.25388      0.99964     2.74397    0.01026     3.75388
      C    6    0.21387      0.99951     1.76785    0.01876     2.78613
      O    7   -0.27832      0.99986     3.26942    0.00904     4.27832
      C    8   -0.00969      0.99956     1.99619    0.01394     3.00969
      C    9   -0.20244      0.99962     2.19345    0.00937     3.20244
      C   10   -0.19639      0.99962     2.18701    0.00976     3.19639
      H   11    0.09570      0.00000     0.40335    0.00095     0.40430
      H   12    0.10395      0.00000     0.39392    0.00213     0.39605
      H   13    0.09417      0.00000     0.40401    0.00182     0.40583
      H   14    0.09928      0.00000     0.39949    0.00123     0.40072
      H   15    0.09502      0.00000     0.40387    0.00111     0.40498
      H   16    0.09890      0.00000     0.39970    0.00141     0.40110
      H   17    0.09265      0.00000     0.40614    0.00121     0.40735
      H   18    0.08189      0.00000     0.41620    0.00191     0.41811
      H   19    0.06383      0.00000     0.43405    0.00212     0.43617
      H   20    0.09319      0.00000     0.40542    0.00139     0.40681
      H   21    0.08489      0.00000     0.41246    0.00264     0.41511
      H   22    0.09671      0.00000     0.40209    0.00120     0.40329
      H   23    0.10617      0.00000     0.39118    0.00266     0.39383
      H   24    0.10291      0.00000     0.39543    0.00166     0.39709
      H   25    0.09436      0.00000     0.40351    0.00212     0.40564
 =======================================================================
   * Total *    0.00000      9.99628    28.86715    0.13657    39.00000

 Normal termination of Gaussian 16 at Tue Dec  8 12:50:23 2020.
