 Gaussian 16, Revision A.03,

 -----------------------------------------------------------
 # opt freq B3LYP/6-31G(d) empiricaldispersion=gd3bj scf=xqc
 -----------------------------------------------------------

 -------------------------------
 CID_116935064_JID_8178_neutraal
 -------------------------------
 Symbolic Z-matrix:
 Charge =  0 Multiplicity = 1

 SCF Done:  E(RB3LYP) =  -807.926345796     A.U. after   13 cycles
 SCF Done:  E(RB3LYP) =  -807.931780502     A.U. after   12 cycles
 SCF Done:  E(RB3LYP) =  -807.929693453     A.U. after   12 cycles
 SCF Done:  E(RB3LYP) =  -807.933406527     A.U. after   12 cycles
 SCF Done:  E(RB3LYP) =  -807.934283872     A.U. after   11 cycles
 SCF Done:  E(RB3LYP) =  -807.934797785     A.U. after   11 cycles
 SCF Done:  E(RB3LYP) =  -807.935043292     A.U. after   11 cycles
 SCF Done:  E(RB3LYP) =  -807.935153028     A.U. after   11 cycles
 SCF Done:  E(RB3LYP) =  -807.935182244     A.U. after    9 cycles
 SCF Done:  E(RB3LYP) =  -807.935215581     A.U. after   10 cycles
 SCF Done:  E(RB3LYP) =  -807.939055173     A.U. after   10 cycles
 SCF Done:  E(RB3LYP) =  -807.939091055     A.U. after   10 cycles
 SCF Done:  E(RB3LYP) =  -807.939095744     A.U. after    9 cycles
 SCF Done:  E(RB3LYP) =  -807.939097293     A.U. after    9 cycles
 SCF Done:  E(RB3LYP) =  -807.939097515     A.U. after    7 cycles
 SCF Done:  E(RB3LYP) =  -807.939097598     A.U. after    6 cycles
 Optimization completed.
    -- Stationary point found.
 Normal termination of Gaussian 16 at Fri Dec 11 19:41:02 2020.

 --------------------------------------------------------------------
 #N Geom=AllCheck Guess=TCheck SCRF=Check GenChk RB3LYP/6-31G(d) Freq
 --------------------------------------------------------------------

 Structure from the checkpoint file:  "JID_8178.chk"
 -------------------------------
 CID_116935064_JID_8178_neutraal
 -------------------------------
 Charge =  0 Multiplicity = 1

 SCF Done:  E(RB3LYP) =  -807.939097598     A.U. after    1 cycles

  Exact polarizability: 208.089  10.994 175.445  16.923  -8.248 131.028
 Approx polarizability: 278.026  15.624 264.149  36.997 -18.212 193.021

                      1                      2                      3
                      A                      A                      A
 Frequencies --     19.3425                33.1989                51.5741
 Red. masses --      4.2001                 2.6836                 3.1662
 Frc consts  --      0.0009                 0.0017                 0.0050
 IR Inten    --      0.1102                 0.4464                 0.5689

                      4                      5                      6
                      A                      A                      A
 Frequencies --     53.5084                84.1132                96.0668
 Red. masses --      2.8289                 3.7163                 2.9524
 Frc consts  --      0.0048                 0.0155                 0.0161
 IR Inten    --      2.6041                 2.7659                 1.4659

                      7                      8                      9
                      A                      A                      A
 Frequencies --    124.5680               131.7063               150.9028
 Red. masses --      3.3584                 1.1362                 2.7815
 Frc consts  --      0.0307                 0.0116                 0.0373
 IR Inten    --      0.5774                 0.1549                 1.8908

                     10                     11                     12
                      A                      A                      A
 Frequencies --    165.2483               177.7754               199.1560
 Red. masses --      3.2307                 2.7007                 2.8158
 Frc consts  --      0.0520                 0.0503                 0.0658
 IR Inten    --      1.0940                 7.4961                 7.5813

                     13                     14                     15
                      A                      A                      A
 Frequencies --    208.3155               227.0346               236.5439
 Red. masses --      2.5165                 1.1165                 1.5006
 Frc consts  --      0.0643                 0.0339                 0.0495
 IR Inten    --      0.3710                 0.3158                 0.0312

                     16                     17                     18
                      A                      A                      A
 Frequencies --    242.9370               261.9613               274.2225
 Red. masses --      2.5502                 1.1558                 1.6558
 Frc consts  --      0.0887                 0.0467                 0.0734
 IR Inten    --      3.3217                 6.8543                 2.4656

                     19                     20                     21
                      A                      A                      A
 Frequencies --    284.4526               291.5670               300.1278
 Red. masses --      1.3998                 1.3653                 2.6650
 Frc consts  --      0.0667                 0.0684                 0.1414
 IR Inten    --      1.9428                33.2171                14.3367

                     22                     23                     24
                      A                      A                      A
 Frequencies --    322.2853               350.4528               376.4098
 Red. masses --      3.4212                 3.1449                 2.3284
 Frc consts  --      0.2094                 0.2276                 0.1944
 IR Inten    --      0.4941                 0.7599                 0.6665

                     25                     26                     27
                      A                      A                      A
 Frequencies --    427.2153               450.4078               457.5522
 Red. masses --      4.2728                 2.9225                 3.1756
 Frc consts  --      0.4595                 0.3493                 0.3917
 IR Inten    --      0.1019                 3.5645                 2.2600

                     28                     29                     30
                      A                      A                      A
 Frequencies --    474.9580               484.9443               503.7628
 Red. masses --      2.4475                 4.6828                 3.7095
 Frc consts  --      0.3253                 0.6488                 0.5547
 IR Inten    --     12.0733                 2.2311                 0.5478

                     31                     32                     33
                      A                      A                      A
 Frequencies --    509.4074               602.9940               637.9256
 Red. masses --      3.6540                 3.8573                 4.2976
 Frc consts  --      0.5587                 0.8263                 1.0304
 IR Inten    --     11.0453                 2.1239                 5.2296

                     34                     35                     36
                      A                      A                      A
 Frequencies --    681.6339               713.6027               735.4095
 Red. masses --      4.9906                 2.5031                 3.6666
 Frc consts  --      1.3662                 0.7510                 1.1683
 IR Inten    --      6.7259                54.8037                 4.2283

                     37                     38                     39
                      A                      A                      A
 Frequencies --    747.0197               789.8297               821.1835
 Red. masses --      4.2290                 1.9449                 4.2144
 Frc consts  --      1.3904                 0.7148                 1.6744
 IR Inten    --     17.3489                41.3247                45.6361

                     40                     41                     42
                      A                      A                      A
 Frequencies --    856.5498               861.6455               874.2159
 Red. masses --      2.1792                 1.3911                 1.4799
 Frc consts  --      0.9420                 0.6085                 0.6664
 IR Inten    --      8.1543                 9.6016                17.5483

                     43                     44                     45
                      A                      A                      A
 Frequencies --    923.4832               936.6477               942.1968
 Red. masses --      2.1239                 1.2801                 1.6905
 Frc consts  --      1.0672                 0.6617                 0.8842
 IR Inten    --     93.2266                 0.9845                90.4584

                     46                     47                     48
                      A                      A                      A
 Frequencies --    953.7711               978.4517              1020.5170
 Red. masses --      1.4390                 2.1124                 2.2761
 Frc consts  --      0.7713                 1.1916                 1.3966
 IR Inten    --      0.8673                 3.6882                50.3038

                     49                     50                     51
                      A                      A                      A
 Frequencies --   1034.5356              1056.0763              1073.2549
 Red. masses --      1.7346                 2.2277                 1.4749
 Frc consts  --      1.0938                 1.4639                 1.0009
 IR Inten    --     41.2989                31.2828                 2.0193

                     52                     53                     54
                      A                      A                      A
 Frequencies --   1093.1081              1103.4040              1149.6809
 Red. masses --      6.0966                 2.0157                 3.2440
 Frc consts  --      4.2920                 1.4459                 2.5263
 IR Inten    --    129.3939                15.5827                 6.0008

                     55                     56                     57
                      A                      A                      A
 Frequencies --   1152.8428              1171.9818              1186.2997
 Red. masses --      2.2830                 2.5266                 1.2723
 Frc consts  --      1.7877                 2.0447                 1.0549
 IR Inten    --     19.4235                12.5907                 1.4710

                     58                     59                     60
                      A                      A                      A
 Frequencies --   1187.3956              1206.1727              1209.3408
 Red. masses --      1.2724                 2.1959                 1.8511
 Frc consts  --      1.0570                 1.8823                 1.5951
 IR Inten    --      0.6850                 0.8400                41.5477

                     61                     62                     63
                      A                      A                      A
 Frequencies --   1219.0201              1221.8846              1228.9065
 Red. masses --      1.4821                 1.6490                 1.7277
 Frc consts  --      1.2976                 1.4505                 1.5373
 IR Inten    --     10.2895                 4.6827                 0.8715

                     64                     65                     66
                      A                      A                      A
 Frequencies --   1231.7086              1258.8091              1306.8149
 Red. masses --      1.4927                 3.2719                 1.4566
 Frc consts  --      1.3343                 3.0547                 1.4656
 IR Inten    --      1.9139               392.7057                 7.8715

                     67                     68                     69
                      A                      A                      A
 Frequencies --   1313.6967              1331.0910              1358.7911
 Red. masses --      1.4238                 4.6339                 3.3732
 Frc consts  --      1.4477                 4.8374                 3.6694
 IR Inten    --      8.4740                 8.4399                 5.6568

                     70                     71                     72
                      A                      A                      A
 Frequencies --   1367.0744              1377.1559              1391.7101
 Red. masses --      1.4102                 1.3144                 1.8097
 Frc consts  --      1.5528                 1.4687                 2.0652
 IR Inten    --     18.3968                18.7086                30.3204

                     73                     74                     75
                      A                      A                      A
 Frequencies --   1417.4686              1420.2173              1430.1223
 Red. masses --      1.2795                 1.4909                 1.3647
 Frc consts  --      1.5146                 1.7718                 1.6445
 IR Inten    --     10.4732                30.0498                 7.5834

                     76                     77                     78
                      A                      A                      A
 Frequencies --   1441.5923              1443.6245              1451.7757
 Red. masses --      1.2597                 1.3015                 2.0294
 Frc consts  --      1.5424                 1.5982                 2.5201
 IR Inten    --     13.5004                 7.6975                73.9421

                     79                     80                     81
                      A                      A                      A
 Frequencies --   1501.3917              1504.8049              1506.8557
 Red. masses --      1.1849                 1.2527                 1.0447
 Frc consts  --      1.5736                 1.6713                 1.3975
 IR Inten    --      2.4639                 4.5683                 5.0981

                     82                     83                     84
                      A                      A                      A
 Frequencies --   1513.6480              1516.0227              1520.0961
 Red. masses --      1.0752                 1.0578                 1.0485
 Frc consts  --      1.4515                 1.4324                 1.4274
 IR Inten    --      5.9619                 3.7729                 5.8934

                     85                     86                     87
                      A                      A                      A
 Frequencies --   1520.3673              1520.4947              1525.5056
 Red. masses --      1.0497                 1.0700                 1.1837
 Frc consts  --      1.4296                 1.4575                 1.6229
 IR Inten    --      4.3308                12.7502                 0.3751

                     88                     89                     90
                      A                      A                      A
 Frequencies --   1532.5911              1535.0682              1537.9428
 Red. masses --      1.0849                 1.0958                 1.0520
 Frc consts  --      1.5014                 1.5213                 1.4661
 IR Inten    --      7.8505               118.0746                 1.3178

                     91                     92                     93
                      A                      A                      A
 Frequencies --   1539.9906              1549.4058              1566.6546
 Red. masses --      1.0708                 1.1460                 2.3496
 Frc consts  --      1.4962                 1.6209                 3.3977
 IR Inten    --      1.0589                76.7108               128.0074

                     94                     95                     96
                      A                      A                      A
 Frequencies --   1639.7957              1671.7793              1684.0694
 Red. masses --      7.7467                 5.9529                 1.0876
 Frc consts  --     12.2729                 9.8025                 1.8174
 IR Inten    --      0.1730                 1.9115                44.1286

                     97                     98                     99
                      A                      A                      A
 Frequencies --   2963.2396              3019.2793              3021.3633
 Red. masses --      1.0706                 1.0830                 1.0353
 Frc consts  --      5.5390                 5.8169                 5.5683
 IR Inten    --     50.3168                37.1650               103.0498

                    100                    101                    102
                      A                      A                      A
 Frequencies --   3022.7143              3024.7060              3036.2160
 Red. masses --      1.0365                 1.0825                 1.0386
 Frc consts  --      5.5796                 5.8350                 5.6414
 IR Inten    --     16.9685                11.8172                19.4599

                    103                    104                    105
                      A                      A                      A
 Frequencies --   3042.3536              3049.2597              3064.9158
 Red. masses --      1.0403                 1.0359                 1.0892
 Frc consts  --      5.6730                 5.6749                 6.0283
 IR Inten    --     31.1758                36.2362                48.6056

                    106                    107                    108
                      A                      A                      A
 Frequencies --   3078.2715              3080.4442              3099.1759
 Red. masses --      1.1064                 1.1063                 1.0994
 Frc consts  --      6.1770                 6.1853                 6.2213
 IR Inten    --     42.2573                43.8318                 4.5172

                    109                    110                    111
                      A                      A                      A
 Frequencies --   3101.6999              3108.0682              3120.1810
 Red. masses --      1.1004                 1.0979                 1.1007
 Frc consts  --      6.2371                 6.2489                 6.3138
 IR Inten    --     17.0494                89.8624                34.9332

                    112                    113                    114
                      A                      A                      A
 Frequencies --   3129.3652              3134.7213              3154.4431
 Red. masses --      1.1029                 1.1025                 1.0994
 Frc consts  --      6.3634                 6.3828                 6.4457
 IR Inten    --     19.7303                28.9413                32.8142

                    115                    116                    117
                      A                      A                      A
 Frequencies --   3155.5455              3208.5051              3217.7695
 Red. masses --      1.0996                 1.0883                 1.0888
 Frc consts  --      6.4512                 6.6006                 6.6424
 IR Inten    --     20.0012                13.5196                 9.4940

                    118                    119                    120
                      A                      A                      A
 Frequencies --   3480.6780              3513.6091              3569.2549
 Red. masses --      1.0499                 1.0733                 1.0915
 Frc consts  --      7.4941                 7.8070                 8.1924
 IR Inten    --     11.1212                 9.8509                 5.0038

 - Thermochemistry -
 -------------------
 Temperature   298.150 Kelvin.  Pressure   1.00000 Atm.
 Atom     1 has atomic number  6 and mass  12.00000

 Molecular mass:   252.18378 amu.
 Principal axes and moments of inertia in atomic units:
                           1         2         3
     Eigenvalues --  2983.378537717.312548609.96271
           X            0.99997   0.00127  -0.00819
           Y           -0.00131   0.99999  -0.00498
           Z            0.00818   0.00499   0.99995
 This molecule is an asymmetric top.
 Rotational symmetry number  1.
 Warning -- assumption of classical behavior for rotation
           may cause significant error
 Rotational temperatures (Kelvin)      0.02903     0.01122     0.01006
 Rotational constants (GHZ):           0.60493     0.23386     0.20961
 Zero-point vibrational energy     975953.1 (Joules/Mol)
                                  233.25839 (Kcal/Mol)
 Warning -- explicit consideration of  32 degrees of freedom as
           vibrations may cause significant error
 Vibrational temperatures:     27.83    47.77    74.20    76.99   121.02
          (Kelvin)            138.22   179.23   189.50   217.12   237.76
                              255.78   286.54   299.72   326.65   340.33
                              349.53   376.90   394.54   409.26   419.50
                              431.82   463.70   504.22   541.57   614.67
                              648.04   658.32   683.36   697.73   724.80
                              732.92   867.57   917.83   980.72  1026.72
                             1058.09  1074.79  1136.39  1181.50  1232.38
                             1239.72  1257.80  1328.69  1347.63  1355.61
                             1372.26  1407.77  1468.30  1488.47  1519.46
                             1544.17  1572.74  1587.55  1654.13  1658.68
                             1686.22  1706.82  1708.40  1735.41  1739.97
                             1753.90  1758.02  1768.12  1772.15  1811.15
                             1880.22  1890.12  1915.14  1955.00  1966.92
                             1981.42  2002.36  2039.42  2043.38  2057.63
                             2074.13  2077.05  2088.78  2160.17  2165.08
                             2168.03  2177.80  2181.22  2187.08  2187.47
                             2187.65  2194.86  2205.06  2208.62  2212.76
                             2215.70  2229.25  2254.07  2359.30  2405.32
                             2423.00  4263.44  4344.07  4347.07  4349.01
                             4351.88  4368.44  4377.27  4387.20  4409.73
                             4428.95  4432.07  4459.02  4462.65  4471.82
                             4489.24  4502.46  4510.16  4538.54  4540.13
                             4616.32  4629.65  5007.92  5055.30  5135.36

 Zero-point correction=                           0.371721 (Hartree/Particle)
 Thermal correction to Energy=                    0.392204
 Thermal correction to Enthalpy=                  0.393148
 Thermal correction to Gibbs Free Energy=         0.322142
 Sum of electronic and zero-point Energies=           -807.567377
 Sum of electronic and thermal Energies=              -807.546894
 Sum of electronic and thermal Enthalpies=            -807.545949
 Sum of electronic and thermal Free Energies=         -807.616956

                     E (Thermal)             CV                S
                      KCal/Mol        Cal/Mol-Kelvin    Cal/Mol-Kelvin
 Total                  246.112             75.985            149.446
 Electronic               0.000              0.000              0.000
 Translational            0.889              2.981             42.475
 Rotational               0.889              2.981             33.649
 Vibrational            244.334             70.024             73.322
 Vibration     1          0.593              1.986              6.701
 Vibration     2          0.594              1.983              5.628
 Vibration     3          0.596              1.977              4.756
 Vibration     4          0.596              1.976              4.683
 Vibration     5          0.601              1.960              3.793
 Vibration     6          0.603              1.952              3.533
 Vibration     7          0.610              1.928              3.028
 Vibration     8          0.612              1.922              2.921
 Vibration     9          0.618              1.902              2.661
 Vibration    10          0.624              1.885              2.489
 Vibration    11          0.628              1.870              2.352
 Vibration    12          0.637              1.841              2.141
 Vibration    13          0.642              1.828              2.058
 Vibration    14          0.651              1.800              1.902
 Vibration    15          0.655              1.785              1.829
 Vibration    16          0.659              1.774              1.781
 Vibration    17          0.669              1.742              1.649
 Vibration    18          0.677              1.721              1.569
 Vibration    19          0.683              1.703              1.507
 Vibration    20          0.687              1.689              1.465
 Vibration    21          0.693              1.673              1.416
 Vibration    22          0.707              1.631              1.298
 Vibration    23          0.727              1.574              1.164
 Vibration    24          0.747              1.520              1.054
 Vibration    25          0.789              1.411              0.868
 Vibration    26          0.809              1.360              0.795
 Vibration    27          0.816              1.344              0.773
 Vibration    28          0.832              1.306              0.724
 Vibration    29          0.841              1.283              0.697
 Vibration    30          0.859              1.242              0.649
 Vibration    31          0.865              1.229              0.635
 Vibration    32          0.961              1.025              0.445

                           ! Non-Optimized Parameters !
 Normal termination of Gaussian 16 at Fri Dec 11 20:00:43 2020.

 ----------------------------------------------------------------------
 # B3LYP/6-311++G(d,p) empiricaldispersion=gd3bj scf=xqc pop=npa geom=c
 heck
 ----------------------------------------------------------------------

 ---------------------------------------
 CID_116935064_JID_8178_Energie_neutraal
 ---------------------------------------
 Structure from the checkpoint file:  "JID_8178.chk"
 Charge =  0 Multiplicity = 1

 SCF Done:  E(RB3LYP) =  -808.172049397     A.U. after   15 cycles
 Normal termination of Gaussian 16 at Fri Dec 11 20:09:00 2020.

 ----------------------------------------------------------------------
 # B3LYP/6-311++G(d,p) empiricaldispersion=gd3bj scf=xqc pop=npa geom=c
 heck
 ----------------------------------------------------------------------

 -------------------------------------
 CID_116935064_JID_8178_Energie_kation
 -------------------------------------
 Structure from the checkpoint file:  "JID_8178.chk"
 Charge =  1 Multiplicity = 2

 SCF Done:  E(UB3LYP) =  -807.908902452     A.U. after   25 cycles
 Normal termination of Gaussian 16 at Fri Dec 11 20:27:53 2020.
 Gaussian 16:  ES64L-G16RevA.03 25-Dec-2016

 ----------------------------------------------------------------------
 # B3LYP/6-311++G(d,p) empiricaldispersion=gd3bj scf=xqc pop=npa geom=c
 heck
 ----------------------------------------------------------------------

 ------------------------------------
 CID_116935064_JID_8178_Energie_anion
 ------------------------------------
 Structure from the checkpoint file:  "JID_8178.chk"
 Charge = -1 Multiplicity = 2

                         Standard orientation:
 ---------------------------------------------------------------------
 Center     Atomic      Atomic             Coordinates (Angstroms)
 Number     Number       Type             X           Y           Z
 ---------------------------------------------------------------------
      1          6           0       -3.865104    1.613716   -1.229972
      2          6           0       -2.689219    0.963955   -0.551004
      3          6           0       -1.527270    1.676055   -0.254126
      4          6           0       -0.433101    1.073456    0.376321
      5          6           0       -0.482654   -0.282059    0.742661
      6          6           0       -1.654225   -0.989188    0.444669
      7          6           0       -2.740376   -0.392294   -0.196074
      8          8           0       -3.906237   -1.042165   -0.511821
      9          6           0       -4.011582   -2.413263   -0.176670
     10          6           0        0.646613   -1.037381    1.455794
     11          6           0        1.753104   -1.507918    0.490244
     12          7           0        2.637123   -0.418131    0.102735
     13          6           0        3.776998   -0.787499   -0.736864
     14          6           0        3.393829   -1.330648   -2.124709
     15          6           0        4.699913    0.427049   -0.859281
     16          7           0        1.267572   -0.372154    2.600114
     17          8           0        0.733464    1.753586    0.653186
     18          6           0        0.805341    3.130791    0.334173
     19          1           0       -3.664643    2.669219   -1.436928
     20          1           0       -4.102105    1.113851   -2.176421
     21          1           0       -4.766866    1.547463   -0.610105
     22          1           0       -1.488349    2.723203   -0.531514
     23          1           0       -1.699567   -2.033128    0.735485
     24          1           0       -3.241759   -3.012696   -0.681165
     25          1           0       -3.933369   -2.571795    0.907383
     26          1           0       -4.998387   -2.732110   -0.517417
     27          1           0        0.179160   -1.959856    1.827661
     28          1           0        2.363233   -2.251206    1.018719
     29          1           0        1.265809   -2.022184   -0.356853
     30          1           0        2.103382    0.327799   -0.338132
     31          1           0        4.316180   -1.578104   -0.195371
     32          1           0        2.849967   -0.566733   -2.695996
     33          1           0        4.284122   -1.610575   -2.700225
     34          1           0        2.752630   -2.214992   -2.050666
     35          1           0        4.985213    0.789700    0.132644
     36          1           0        5.606318    0.183132   -1.424280
     37          1           0        4.189995    1.244673   -1.386716
     38          1           0        1.921920    0.317168    2.235777
     39          1           0        0.560051    0.137369    3.125610
     40          1           0        0.042723    3.709868    0.871457
     41          1           0        1.798024    3.457157    0.649571
     42          1           0        0.692032    3.304769   -0.744343
 ---------------------------------------------------------------------

 SCF Done:  E(UB3LYP) =  -808.160770576     A.U. after   32 cycles

 The electronic state is 2-A.
 Alpha  occ. eigenvalues --  -19.06163 -19.06104 -14.19822 -14.19013 -10.13842
 Alpha  occ. eigenvalues --  -10.13530 -10.13201 -10.12948 -10.11242 -10.11087
 Alpha  occ. eigenvalues --  -10.09917 -10.09019 -10.08706 -10.08181 -10.08072
 Alpha  occ. eigenvalues --  -10.07561 -10.06993 -10.06963  -0.97713  -0.97603
 Alpha  occ. eigenvalues --   -0.82342  -0.78720  -0.76298  -0.69501  -0.67890
 Alpha  occ. eigenvalues --   -0.66343  -0.62997  -0.62150  -0.60465  -0.59797
 Alpha  occ. eigenvalues --   -0.57267  -0.51949  -0.51113  -0.49719  -0.48019
 Alpha  occ. eigenvalues --   -0.43162  -0.42771  -0.42090  -0.39767  -0.39060
 Alpha  occ. eigenvalues --   -0.38061  -0.37699  -0.37432  -0.36224  -0.35380
 Alpha  occ. eigenvalues --   -0.35243  -0.33960  -0.32820  -0.32721  -0.32101
 Alpha  occ. eigenvalues --   -0.31775  -0.30138  -0.30031  -0.29455  -0.28874
 Alpha  occ. eigenvalues --   -0.28131  -0.27677  -0.26693  -0.26314  -0.25619
 Alpha  occ. eigenvalues --   -0.25475  -0.24570  -0.24321  -0.23724  -0.20258
 Alpha  occ. eigenvalues --   -0.16282  -0.14498  -0.13241  -0.11321   0.03825
 Alpha virt. eigenvalues --    0.05302   0.05990   0.07070   0.07317   0.07496
 Alpha virt. eigenvalues --    0.08082   0.08627   0.08720   0.08929   0.09589
 Alpha virt. eigenvalues --    0.09838   0.10135   0.10578   0.10756   0.11029

  Beta  occ. eigenvalues --  -19.06157 -19.06099 -14.19818 -14.19009 -10.13842
  Beta  occ. eigenvalues --  -10.13530 -10.13160 -10.12900 -10.11239 -10.11083
  Beta  occ. eigenvalues --  -10.09911 -10.09019 -10.08706 -10.08174 -10.08059
  Beta  occ. eigenvalues --  -10.07545 -10.06975 -10.06945  -0.97701  -0.97591
  Beta  occ. eigenvalues --   -0.82334  -0.78711  -0.76290  -0.69488  -0.67873
  Beta  occ. eigenvalues --   -0.66320  -0.62944  -0.62128  -0.60428  -0.59760
  Beta  occ. eigenvalues --   -0.57228  -0.51925  -0.51080  -0.49689  -0.47992
  Beta  occ. eigenvalues --   -0.43139  -0.42734  -0.42072  -0.39749  -0.39040
  Beta  occ. eigenvalues --   -0.38036  -0.37674  -0.37414  -0.36198  -0.35339
  Beta  occ. eigenvalues --   -0.35225  -0.33938  -0.32800  -0.32701  -0.32076
  Beta  occ. eigenvalues --   -0.31747  -0.30115  -0.30009  -0.29435  -0.28856
  Beta  occ. eigenvalues --   -0.28114  -0.27659  -0.26675  -0.26294  -0.25595
  Beta  occ. eigenvalues --   -0.25451  -0.24545  -0.24302  -0.23701  -0.20241
  Beta  occ. eigenvalues --   -0.16274  -0.14491  -0.13234  -0.11314
  Beta virt. eigenvalues --    0.05719   0.06248   0.06535   0.07300   0.07537
  Beta virt. eigenvalues --    0.07851   0.08223   0.08756   0.09086   0.09267
  Beta virt. eigenvalues --    0.09925   0.10103   0.10340   0.10731   0.10895

 Mulliken charges and spin densities:
               1          2
     1  C    0.421166  -0.916479
     2  C   -1.053588   1.180830
     3  C   -0.607742   0.108745
     4  C    0.100848  -0.814991
     5  C    1.870244  -0.769988
     6  C    0.560855  -0.520964
     7  C   -1.447528   0.921454
     8  O   -0.205571   0.056096
     9  C    0.711958  -1.040684
    10  C   -0.043833   0.048354
    11  C   -0.911632   0.062835
    12  N    0.039125  -0.036941
    13  C   -0.632498   0.673685
    14  C    0.140450  -0.636449
    15  C    0.012890  -0.571962
    16  N   -0.210625   0.013613
    17  O   -0.165182   0.024320
    18  C    0.928005  -1.203948
    19  H   -0.243268   0.393102
    20  H    0.054283   0.115386
    21  H    0.033218   0.132964
    22  H   -0.040949   0.189976
    23  H    0.311446  -0.190087
    24  H   -0.226251   0.382767
    25  H   -0.184129   0.341492
    26  H   -0.538766   0.718830
    27  H   -0.021590   0.242005
    28  H    0.109687   0.060244
    29  H    0.085200   0.022124
    30  H    0.889491  -0.662783
    31  H    0.045156   0.071833
    32  H   -0.094424   0.241956
    33  H   -0.060384   0.198724
    34  H   -0.009162   0.148641
    35  H    0.091169   0.063792
    36  H   -0.087556   0.218347
    37  H   -0.073997   0.218504
    38  H    0.224733   0.030391
    39  H    0.186826   0.041924
    40  H   -0.387376   0.524961
    41  H   -0.204072   0.387876
    42  H   -0.366627   0.529506
 Sum of Mulliken charges =  -1.00000   1.00000

 Dipole moment (field-independent basis, Debye):
    X=              1.9153    Y=             -1.5323    Z=              1.4494  Tot=              2.8490
 Quadrupole moment (field-independent basis, Debye-Ang):
   XX=           -196.8850   YY=           -172.4317   ZZ=           -153.3070
   XY=            -12.6315   XZ=             -1.4330   YZ=              2.3362

 Summary of Natural Population Analysis:

                                       Natural Population
                Natural  -----------------------------------------------
    Atom  No    Charge         Core      Valence    Rydberg      Total
 -----------------------------------------------------------------------
      C    1   -0.29042      0.99964     2.28562    0.00516     3.29042
      C    2   -0.02548      0.99949     2.01702    0.00896     3.02548
      C    3   -0.13043      0.99949     2.12239    0.00856     3.13043
      C    4    0.14882      0.99932     1.83795    0.01390     2.85118
      C    5   -0.03983      0.99946     2.02878    0.01159     3.03983
      C    6   -0.13128      0.99949     2.12323    0.00857     3.13128
      C    7    0.15306      0.99932     1.83572    0.01190     2.84694
      O    8   -0.27576      0.99986     3.26569    0.01021     4.27576
      C    9   -0.10045      0.99960     2.09147    0.00937     3.10045
      C   10   -0.01729      0.99957     2.00462    0.01310     3.01729
      C   11   -0.08125      0.99960     2.07213    0.00953     3.08125
      N   12   -0.35109      0.99973     2.84038    0.01099     3.85109
      C   13   -0.00962      0.99963     1.99906    0.01093     3.00962
      C   14   -0.29451      0.99965     2.29035    0.00452     3.29451
      C   15   -0.28650      0.99965     2.28063    0.00622     3.28650
      N   16   -0.42036      0.99977     2.91237    0.00821     3.92036
      O   17   -0.28443      0.99986     3.27365    0.01092     4.28443
      C   18   -0.10072      0.99960     2.09157    0.00955     3.10072
      H   19    0.10052      0.00000     0.39844    0.00103     0.39948
      H   20    0.10650      0.00000     0.39191    0.00159     0.39350
      H   21    0.10579      0.00000     0.39264    0.00157     0.39421
      H   22    0.10647      0.00000     0.39204    0.00150     0.39353
      H   23    0.10367      0.00000     0.39453    0.00179     0.39633
      H   24    0.08472      0.00000     0.41348    0.00180     0.41528
      H   25    0.08346      0.00000     0.41493    0.00161     0.41654
      H   26    0.09466      0.00000     0.40405    0.00128     0.40534
      H   27    0.09179      0.00000     0.40630    0.00191     0.40821
      H   28    0.09299      0.00000     0.40564    0.00136     0.40701
      H   29    0.08347      0.00000     0.41490    0.00163     0.41653
      H   30    0.17997      0.00000     0.31625    0.00378     0.32003
      H   31    0.08496      0.00000     0.41299    0.00205     0.41504
      H   32    0.09819      0.00000     0.40056    0.00124     0.40181
      H   33    0.09731      0.00000     0.40178    0.00091     0.40269
      H   34    0.09963      0.00000     0.39938    0.00099     0.40037
      H   35    0.10319      0.00000     0.39578    0.00103     0.39681
      H   36    0.09646      0.00000     0.40283    0.00072     0.40354
      H   37    0.09776      0.00000     0.40117    0.00107     0.40224
      H   38    0.18663      0.00000     0.31077    0.00259     0.31337
      H   39    0.17264      0.00000     0.32565    0.00171     0.32736
      H   40    0.08535      0.00000     0.41285    0.00180     0.41465
      H   41    0.09501      0.00000     0.40381    0.00119     0.40499
      H   42    0.08640      0.00000     0.41148    0.00211     0.41360
 =======================================================================
   * Total *   -0.00000     17.99271    50.79681    0.21047    69.00000

 Normal termination of Gaussian 16 at Fri Dec 11 20:51:32 2020.
