 Gaussian 16, Revision A.03,

 -----------------------------------------------------------
 # opt freq B3LYP/6-31G(d) empiricaldispersion=gd3bj scf=xqc
 -----------------------------------------------------------

 -------------------------------
 CID_115267407_JID_5570_neutraal
 -------------------------------
 Symbolic Z-matrix:
 Charge =  0 Multiplicity = 1

 SCF Done:  E(RB3LYP) =  -692.410981169     A.U. after   14 cycles
 SCF Done:  E(RB3LYP) =  -692.417844881     A.U. after   12 cycles
 SCF Done:  E(RB3LYP) =  -692.419312904     A.U. after   11 cycles
 SCF Done:  E(RB3LYP) =  -692.419871701     A.U. after   12 cycles
 SCF Done:  E(RB3LYP) =  -692.420310325     A.U. after   12 cycles
 SCF Done:  E(RB3LYP) =  -692.420663712     A.U. after   11 cycles
 SCF Done:  E(RB3LYP) =  -692.420815135     A.U. after   10 cycles
 SCF Done:  E(RB3LYP) =  -692.420939389     A.U. after   10 cycles
 SCF Done:  E(RB3LYP) =  -692.421123088     A.U. after   11 cycles
 SCF Done:  E(RB3LYP) =  -692.421183092     A.U. after   12 cycles
 SCF Done:  E(RB3LYP) =  -692.423327858     A.U. after    9 cycles
 SCF Done:  E(RB3LYP) =  -692.423339005     A.U. after   10 cycles
 SCF Done:  E(RB3LYP) =  -692.423342910     A.U. after    9 cycles
 SCF Done:  E(RB3LYP) =  -692.423343659     A.U. after    8 cycles
 SCF Done:  E(RB3LYP) =  -692.423343724     A.U. after    6 cycles
 Optimization completed.
    -- Stationary point found.
 Normal termination of Gaussian 16 at Thu Dec 10 16:33:19 2020.

 --------------------------------------------------------------------
 #N Geom=AllCheck Guess=TCheck SCRF=Check GenChk RB3LYP/6-31G(d) Freq
 --------------------------------------------------------------------

 Structure from the checkpoint file:  "JID_5570.chk"
 -------------------------------
 CID_115267407_JID_5570_neutraal
 -------------------------------
 Charge =  0 Multiplicity = 1

 SCF Done:  E(RB3LYP) =  -692.423343724     A.U. after    1 cycles

  Exact polarizability: 162.969   0.078 123.407  -3.987   0.406 114.999
 Approx polarizability: 196.922   2.659 184.335  -5.589   1.770 163.577

                      1                      2                      3
                      A                      A                      A
 Frequencies --     23.7537                29.3985                44.1847
 Red. masses --      3.8099                 3.2383                 3.4527
 Frc consts  --      0.0013                 0.0016                 0.0040
 IR Inten    --      0.1581                 0.4159                 0.0841

                      4                      5                      6
                      A                      A                      A
 Frequencies --     74.5086                93.3140               115.9313
 Red. masses --      3.8985                 4.4401                 1.8874
 Frc consts  --      0.0128                 0.0228                 0.0149
 IR Inten    --      1.3081                 1.2617                 1.2697

                      7                      8                      9
                      A                      A                      A
 Frequencies --    124.0319               145.2508               175.5090
 Red. masses --      3.5184                 3.2324                 3.1492
 Frc consts  --      0.0319                 0.0402                 0.0572
 IR Inten    --      0.6107                 0.3847                 3.3462

                     10                     11                     12
                      A                      A                      A
 Frequencies --    210.7317               234.9496               251.1349
 Red. masses --      1.0745                 2.0662                 4.0986
 Frc consts  --      0.0281                 0.0672                 0.1523
 IR Inten    --      0.0278                 1.8728                 3.0337

                     13                     14                     15
                      A                      A                      A
 Frequencies --    256.5351               262.7647               274.0610
 Red. masses --      1.1083                 1.3645                 1.0712
 Frc consts  --      0.0430                 0.0555                 0.0474
 IR Inten    --      0.0213                 0.3618                 0.0130

                     16                     17                     18
                      A                      A                      A
 Frequencies --    322.0925               323.3101               336.5274
 Red. masses --      3.6889                 2.6611                 2.1441
 Frc consts  --      0.2255                 0.1639                 0.1431
 IR Inten    --      6.6532                 4.1008                 1.6436

                     19                     20                     21
                      A                      A                      A
 Frequencies --    347.3070               351.8305               409.1022
 Red. masses --      2.3816                 2.4955                 2.3005
 Frc consts  --      0.1693                 0.1820                 0.2269
 IR Inten    --      2.2703                 1.6878                 1.7779

                     22                     23                     24
                      A                      A                      A
 Frequencies --    432.0182               440.4689               462.0215
 Red. masses --      2.9118                 2.8094                 2.9337
 Frc consts  --      0.3202                 0.3211                 0.3690
 IR Inten    --      4.0315                 6.3024                 2.4696

                     25                     26                     27
                      A                      A                      A
 Frequencies --    502.4981               524.0385               596.7868
 Red. masses --      1.0622                 3.5611                 3.0676
 Frc consts  --      0.1580                 0.5762                 0.6437
 IR Inten    --     91.0817                 3.7855                 8.6530

                     28                     29                     30
                      A                      A                      A
 Frequencies --    665.6619               728.3537               762.8216
 Red. masses --      4.3574                 3.3593                11.4547
 Frc consts  --      1.1376                 1.0500                 3.9272
 IR Inten    --      6.9594                 5.3340                29.8486

                     31                     32                     33
                      A                      A                      A
 Frequencies --    782.9838               798.2221               817.5210
 Red. masses --      3.8087                 1.0550                 1.2825
 Frc consts  --      1.3757                 0.3961                 0.5050
 IR Inten    --      0.5519                 2.5969                87.7748

                     34                     35                     36
                      A                      A                      A
 Frequencies --    863.3252               871.6915               925.3946
 Red. masses --      2.5801                 3.6475                 1.3853
 Frc consts  --      1.1330                 1.6329                 0.6990
 IR Inten    --      4.2854                 0.4686                 0.3008

                     37                     38                     39
                      A                      A                      A
 Frequencies --    937.1079               937.6533               952.6280
 Red. masses --      1.6387                 1.6374                 1.8462
 Frc consts  --      0.8479                 0.8482                 0.9871
 IR Inten    --      0.0974                 0.4092                 7.9483

                     40                     41                     42
                      A                      A                      A
 Frequencies --    969.1773               982.7381               993.3340
 Red. masses --      2.0495                 1.1983                 2.9362
 Frc consts  --      1.1342                 0.6818                 1.7070
 IR Inten    --      6.2651                 0.3284                15.7225

                     43                     44                     45
                      A                      A                      A
 Frequencies --   1009.8678              1036.4135              1064.9480
 Red. masses --      1.6572                 1.6124                 1.7273
 Frc consts  --      0.9958                 1.0204                 1.1542
 IR Inten    --     12.5511                15.8445                 4.3292

                     46                     47                     48
                      A                      A                      A
 Frequencies --   1067.5740              1072.0828              1081.8563
 Red. masses --      1.4018                 1.4639                 1.6254
 Frc consts  --      0.9413                 0.9913                 1.1209
 IR Inten    --      0.2683                 3.0005                18.5650

                     49                     50                     51
                      A                      A                      A
 Frequencies --   1095.1700              1145.6838              1154.3782
 Red. masses --      2.0283                 1.8762                 2.4089
 Frc consts  --      1.4333                 1.4510                 1.8914
 IR Inten    --     80.4218                16.0106                73.4494

                     52                     53                     54
                      A                      A                      A
 Frequencies --   1176.5209              1197.9476              1209.8724
 Red. masses --      2.2612                 1.4214                 1.6480
 Frc consts  --      1.8441                 1.2018                 1.4213
 IR Inten    --     49.4219                 1.0474                 4.9611

                     55                     56                     57
                      A                      A                      A
 Frequencies --   1225.7340              1276.5908              1286.4218
 Red. masses --      2.2378                 1.6374                 2.6839
 Frc consts  --      1.9809                 1.5722                 2.6169
 IR Inten    --    242.6937                 1.3926                15.1839

                     58                     59                     60
                      A                      A                      A
 Frequencies --   1292.3647              1299.5948              1317.2346
 Red. masses --      1.9415                 2.3501                 1.3648
 Frc consts  --      1.9106                 2.3386                 1.3953
 IR Inten    --     45.4641                19.2232                 5.7075

                     61                     62                     63
                      A                      A                      A
 Frequencies --   1372.1959              1384.8408              1411.9322
 Red. masses --      1.8834                 2.3841                 1.5332
 Frc consts  --      2.0894                 2.6939                 1.8009
 IR Inten    --      5.6531               260.1141                55.0072

                     64                     65                     66
                      A                      A                      A
 Frequencies --   1423.0462              1425.8046              1438.8515
 Red. masses --      1.2872                 1.3000                 1.6327
 Frc consts  --      1.5358                 1.5570                 1.9915
 IR Inten    --     18.2495                24.9027                71.0218

                     67                     68                     69
                      A                      A                      A
 Frequencies --   1451.5017              1483.7448              1487.0298
 Red. masses --      1.2409                 1.1837                 1.2570
 Frc consts  --      1.5403                 1.5353                 1.6376
 IR Inten    --     29.7743                 3.4112                19.7115

                     70                     71                     72
                      A                      A                      A
 Frequencies --   1492.5987              1499.7512              1503.3836
 Red. masses --      1.3611                 1.0470                 1.2531
 Frc consts  --      1.7866                 1.3876                 1.6687
 IR Inten    --     33.4188                 0.6906                18.3308

                     73                     74                     75
                      A                      A                      A
 Frequencies --   1519.2911              1519.7293              1520.2343
 Red. masses --      1.0614                 1.0607                 1.0516
 Frc consts  --      1.4434                 1.4434                 1.4320
 IR Inten    --     10.3073                 5.3316                 0.7760

                     76                     77                     78
                      A                      A                      A
 Frequencies --   1522.5736              1525.3664              1534.8506
 Red. masses --      1.1375                 1.0794                 1.1333
 Frc consts  --      1.5536                 1.4797                 1.5730
 IR Inten    --     18.8893                34.2111                 2.9596

                     79                     80                     81
                      A                      A                      A
 Frequencies --   1535.8358              1541.1376              1547.5661
 Red. masses --      1.1216                 1.1919                 1.0776
 Frc consts  --      1.5588                 1.6679                 1.5206
 IR Inten    --      3.1994                11.4408                 3.3071

                     82                     83                     84
                      A                      A                      A
 Frequencies --   1557.8059              1808.7576              2927.8215
 Red. masses --      1.0582                 8.3588                 1.0733
 Frc consts  --      1.5130                16.1122                 5.4206
 IR Inten    --     18.9015               476.6757                58.8898

                     85                     86                     87
                      A                      A                      A
 Frequencies --   2951.6379              3034.7595              3056.9596
 Red. masses --      1.0614                 1.0866                 1.0361
 Frc consts  --      5.4480                 5.8961                 5.7048
 IR Inten    --    126.3615                33.8371                 9.8944

                     88                     89                     90
                      A                      A                      A
 Frequencies --   3058.0402              3065.5140              3073.8718
 Red. masses --      1.0380                 1.0384                 1.0728
 Frc consts  --      5.7193                 5.7491                 5.9725
 IR Inten    --     24.4260                18.9693                42.0490

                     91                     92                     93
                      A                      A                      A
 Frequencies --   3082.0210              3119.0727              3121.3943
 Red. masses --      1.0592                 1.1025                 1.1024
 Frc consts  --      5.9279                 6.3193                 6.3281
 IR Inten    --     25.3369                11.4865                33.6917

                     94                     95                     96
                      A                      A                      A
 Frequencies --   3122.0595              3128.1341              3133.6621
 Red. masses --      1.1023                 1.1059                 1.1032
 Frc consts  --      6.3302                 6.3757                 6.3825
 IR Inten    --     20.4220                11.8405                30.1031

                     97                     98                     99
                      A                      A                      A
 Frequencies --   3136.6156              3141.8318              3153.9871
 Red. masses --      1.1025                 1.0543                 1.0582
 Frc consts  --      6.3906                 6.1314                 6.2023
 IR Inten    --     53.0432                16.6457                13.2462

                    100                    101                    102
                      A                      A                      A
 Frequencies --   3174.9315              3177.8784              3222.3295
 Red. masses --      1.0994                 1.0988                 1.1164
 Frc consts  --      6.5293                 6.5380                 6.8300
 IR Inten    --      0.6100                 8.7438                 7.2749

                    103                    104                    105
                      A                      A                      A
 Frequencies --   3244.3903              3485.1789              3649.9438
 Red. masses --      1.1135                 1.0736                 1.0769
 Frc consts  --      6.9059                 7.6834                 8.4529
 IR Inten    --     12.4611                 0.5756                36.1954

 - Thermochemistry -
 -------------------
 Temperature   298.150 Kelvin.  Pressure   1.00000 Atm.
 Atom     1 has atomic number  6 and mass  12.00000

 Molecular mass:   214.16813 amu.
 Principal axes and moments of inertia in atomic units:
                           1         2         3
     Eigenvalues --  1579.806566647.484466895.83330
           X            0.99997  -0.00649  -0.00319
           Y            0.00633   0.99884  -0.04774
           Z            0.00350   0.04772   0.99885
 This molecule is an asymmetric top.
 Rotational symmetry number  1.
 Warning -- assumption of classical behavior for rotation
           may cause significant error
 Rotational temperatures (Kelvin)      0.05483     0.01303     0.01256
 Rotational constants (GHZ):           1.14238     0.27149     0.26171
 Zero-point vibrational energy     868086.9 (Joules/Mol)
                                  207.47775 (Kcal/Mol)
 Warning -- explicit consideration of  27 degrees of freedom as
           vibrations may cause significant error
 Vibrational temperatures:     34.18    42.30    63.57   107.20   134.26
          (Kelvin)            166.80   178.45   208.98   252.52   303.20
                              338.04   361.33   369.10   378.06   394.31
                              463.42   465.17   484.19   499.70   506.21
                              588.61   621.58   633.74   664.75   722.98
                              753.97   858.64   957.74  1047.94  1097.53
                             1126.54  1148.46  1176.23  1242.13  1254.17
                             1331.44  1348.29  1349.07  1370.62  1394.43
                             1413.94  1429.19  1452.97  1491.17  1532.22
                             1536.00  1542.49  1556.55  1575.71  1648.38
                             1660.89  1692.75  1723.58  1740.74  1763.56
                             1836.73  1850.87  1859.42  1869.83  1895.21
                             1974.28  1992.48  2031.46  2047.45  2051.41
                             2070.19  2088.39  2134.78  2139.50  2147.52
                             2157.81  2163.03  2185.92  2186.55  2187.28
                             2190.64  2194.66  2208.31  2209.73  2217.35
                             2226.60  2241.34  2602.40  4212.48  4246.75
                             4366.34  4398.28  4399.84  4410.59  4422.62
                             4434.34  4487.65  4490.99  4491.95  4500.69
                             4508.64  4512.89  4520.40  4537.88  4568.02
                             4572.26  4636.21  4667.95  5014.40  5251.46

 Zero-point correction=                           0.330637 (Hartree/Particle)
 Thermal correction to Energy=                    0.348253
 Thermal correction to Enthalpy=                  0.349198
 Thermal correction to Gibbs Free Energy=         0.284428
 Sum of electronic and zero-point Energies=           -692.092707
 Sum of electronic and thermal Energies=              -692.075090
 Sum of electronic and thermal Enthalpies=            -692.074146
 Sum of electronic and thermal Free Energies=         -692.138916

                     E (Thermal)             CV                S
                      KCal/Mol        Cal/Mol-Kelvin    Cal/Mol-Kelvin
 Total                  218.532             65.595            136.319
 Electronic               0.000              0.000              0.000
 Translational            0.889              2.981             41.988
 Rotational               0.889              2.981             32.649
 Vibrational            216.755             59.633             61.682
 Vibration     1          0.593              1.985              6.293
 Vibration     2          0.593              1.984              5.870
 Vibration     3          0.595              1.980              5.062
 Vibration     4          0.599              1.966              4.031
 Vibration     5          0.602              1.954              3.589
 Vibration     6          0.608              1.936              3.167
 Vibration     7          0.610              1.929              3.037
 Vibration     8          0.617              1.908              2.734
 Vibration     9          0.627              1.873              2.376
 Vibration    10          0.643              1.824              2.037
 Vibration    11          0.655              1.787              1.841
 Vibration    12          0.663              1.761              1.723
 Vibration    13          0.666              1.752              1.685
 Vibration    14          0.670              1.741              1.643
 Vibration    15          0.676              1.721              1.570
 Vibration    16          0.707              1.631              1.299
 Vibration    17          0.708              1.629              1.293
 Vibration    18          0.717              1.603              1.229
 Vibration    19          0.725              1.581              1.178
 Vibration    20          0.728              1.572              1.158
 Vibration    21          0.773              1.450              0.930
 Vibration    22          0.793              1.400              0.852
 Vibration    23          0.800              1.382              0.825
 Vibration    24          0.820              1.334              0.760
 Vibration    25          0.858              1.244              0.652
 Vibration    26          0.879              1.197              0.601
 Vibration    27          0.955              1.039              0.455

 Optimization completed.
    -- Stationary point found.
 Normal termination of Gaussian 16 at Thu Dec 10 16:45:34 2020.

 ----------------------------------------------------------------------
 # B3LYP/6-311++G(d,p) empiricaldispersion=gd3bj scf=xqc pop=npa geom=c
 heck
 ----------------------------------------------------------------------

 ---------------------------------------
 CID_115267407_JID_5570_Energie_neutraal
 ---------------------------------------
 Structure from the checkpoint file:  "JID_5570.chk"
 Charge =  0 Multiplicity = 1

 SCF Done:  E(RB3LYP) =  -692.628594831     A.U. after   14 cycles
 Normal termination of Gaussian 16 at Thu Dec 10 16:51:38 2020.

 ----------------------------------------------------------------------
 # B3LYP/6-311++G(d,p) empiricaldispersion=gd3bj scf=xqc pop=npa geom=c
 heck
 ----------------------------------------------------------------------

 -------------------------------------
 CID_115267407_JID_5570_Energie_kation
 -------------------------------------
 Structure from the checkpoint file:  "JID_5570.chk"
 Charge =  1 Multiplicity = 2

 SCF Done:  E(UB3LYP) =  -692.325011942     A.U. after   29 cycles
 Normal termination of Gaussian 16 at Thu Dec 10 17:12:18 2020.
 Gaussian 16:  ES64L-G16RevA.03 25-Dec-2016

 ----------------------------------------------------------------------
 # B3LYP/6-311++G(d,p) empiricaldispersion=gd3bj scf=xqc pop=npa geom=c
 heck
 ----------------------------------------------------------------------

 ------------------------------------
 CID_115267407_JID_5570_Energie_anion
 ------------------------------------
 Structure from the checkpoint file:  "JID_5570.chk"
 Charge = -1 Multiplicity = 2

                         Standard orientation:
 ---------------------------------------------------------------------
 Center     Atomic      Atomic             Coordinates (Angstroms)
 Number     Number       Type             X           Y           Z
 ---------------------------------------------------------------------
      1          6           0       -2.690144    2.218303    0.170975
      2          6           0       -2.927282    0.718609   -0.004807
      3          6           0       -3.461026    0.098187    1.288097
      4          6           0       -3.844004    0.448392   -1.199555
      5          8           0       -1.577738    0.215789   -0.282032
      6          6           0       -1.364096   -1.103951   -0.502477
      7          8           0       -2.211481   -1.983332   -0.494151
      8          7           0       -0.040279   -1.344399   -0.740964
      9          6           0        1.034494   -0.369240   -0.824784
     10          6           0        1.807664   -0.131579    0.472162
     11          6           0        1.066782   -0.026927    1.776498
     12          6           0        1.920157   -1.240970    1.493976
     13          6           0        3.020877    0.756026    0.273897
     14          7           0        3.989601    0.127434   -0.620219
     15          6           0        5.181103    0.938798   -0.829757
     16          1           0       -3.634752    2.724926    0.393402
     17          1           0       -2.269285    2.650846   -0.742272
     18          1           0       -1.992554    2.402547    0.994149
     19          1           0       -4.422136    0.556478    1.545878
     20          1           0       -3.599459   -0.977349    1.174021
     21          1           0       -2.763865    0.283267    2.112799
     22          1           0       -3.405245    0.864070   -2.113072
     23          1           0       -3.999087   -0.622330   -1.335780
     24          1           0       -4.813282    0.931890   -1.035301
     25          1           0        0.160601   -2.316071   -0.923681
     26          1           0        1.742384   -0.704567   -1.588498
     27          1           0        0.608277    0.577669   -1.166915
     28          1           0        1.422546    0.692765    2.509314
     29          1           0       -0.010538   -0.149346    1.754545
     30          1           0        1.405139   -2.176403    1.296751
     31          1           0        2.857252   -1.348584    2.035237
     32          1           0        2.713145    1.707279   -0.184500
     33          1           0        3.452910    1.012925    1.260981
     34          1           0        4.255146   -0.771237   -0.220247
     35          1           0        5.694697    1.239675    0.103015
     36          1           0        5.894326    0.390930   -1.453857
     37          1           0        4.905121    1.855823   -1.363586
 ---------------------------------------------------------------------

 SCF Done:  E(UB3LYP) =  -692.615204465     A.U. after   33 cycles
 SCF Done:  E(UB3LYP) =  -692.615204465     a.u. after    1 cycles

 The electronic state is 2-A.
 Alpha  occ. eigenvalues --  -19.06607 -19.00103 -14.24658 -14.20307 -10.22817
 Alpha  occ. eigenvalues --  -10.15523 -10.11297 -10.09957 -10.09246 -10.09010
 Alpha  occ. eigenvalues --  -10.07722 -10.07534 -10.07253 -10.07084 -10.07021
 Alpha  occ. eigenvalues --   -1.01216  -0.92355  -0.84110  -0.81367  -0.76541
 Alpha  occ. eigenvalues --   -0.72140  -0.63588  -0.60786  -0.60722  -0.60585
 Alpha  occ. eigenvalues --   -0.55423  -0.54197  -0.50923  -0.46960  -0.45131
 Alpha  occ. eigenvalues --   -0.42241  -0.41856  -0.41127  -0.38864  -0.37601
 Alpha  occ. eigenvalues --   -0.36969  -0.36074  -0.35418  -0.34941  -0.34294
 Alpha  occ. eigenvalues --   -0.32446  -0.32144  -0.31309  -0.30235  -0.29900
 Alpha  occ. eigenvalues --   -0.29335  -0.28193  -0.27749  -0.27097  -0.27076
 Alpha  occ. eigenvalues --   -0.26774  -0.26015  -0.24986  -0.21084  -0.20339
 Alpha  occ. eigenvalues --   -0.19008  -0.18353  -0.16858  -0.13489   0.04091
 Alpha virt. eigenvalues --    0.05487   0.06934   0.07240   0.07654   0.08205
 Alpha virt. eigenvalues --    0.08573   0.09335   0.09613   0.10005   0.10293
 Alpha virt. eigenvalues --    0.10663   0.11489   0.11724   0.12407   0.12708

  Beta  occ. eigenvalues --  -19.06601 -19.00100 -14.24650 -14.20287 -10.22817
  Beta  occ. eigenvalues --  -10.15521 -10.11289 -10.09940 -10.09244 -10.08972
  Beta  occ. eigenvalues --  -10.07698 -10.07523 -10.07224 -10.07065 -10.07001
  Beta  occ. eigenvalues --   -1.01207  -0.92348  -0.84098  -0.81339  -0.76526
  Beta  occ. eigenvalues --   -0.72123  -0.63562  -0.60745  -0.60685  -0.60543
  Beta  occ. eigenvalues --   -0.55385  -0.54121  -0.50868  -0.46928  -0.45098
  Beta  occ. eigenvalues --   -0.42218  -0.41834  -0.41097  -0.38833  -0.37582
  Beta  occ. eigenvalues --   -0.36936  -0.36047  -0.35368  -0.34917  -0.34269
  Beta  occ. eigenvalues --   -0.32424  -0.32109  -0.31284  -0.30198  -0.29874
  Beta  occ. eigenvalues --   -0.29308  -0.28168  -0.27710  -0.27070  -0.27047
  Beta  occ. eigenvalues --   -0.26750  -0.25991  -0.24967  -0.21071  -0.20313
  Beta  occ. eigenvalues --   -0.18993  -0.18343  -0.16849  -0.13445
  Beta virt. eigenvalues --    0.06072   0.06602   0.07331   0.07775   0.08174
  Beta virt. eigenvalues --    0.08661   0.08935   0.09758   0.09931   0.10150
  Beta virt. eigenvalues --    0.10707   0.10894   0.11782   0.11874   0.12592

 Mulliken charges and spin densities:
               1          2
     1  C    0.457508  -0.880874
     2  C   -1.154499   1.033435
     3  C    0.495038  -0.915481
     4  C    0.138512  -0.546424
     5  O    0.080894  -0.020888
     6  C    0.129092  -0.086497
     7  O   -0.280739   0.002415
     8  N   -0.342106   0.085371
     9  C    0.059060  -0.744798
    10  C   -0.849537   1.614129
    11  C   -0.234960  -0.123693
    12  C    0.344206  -0.805093
    13  C    0.408700  -1.168614
    14  N   -0.234719   0.210832
    15  C    0.957548  -1.292252
    16  H   -0.211903   0.357463
    17  H   -0.086913   0.238477
    18  H   -0.097226   0.252581
    19  H   -0.160179   0.319264
    20  H    0.166086   0.020944
    21  H   -0.127471   0.262070
    22  H    0.001906   0.137918
    23  H    0.100792   0.080043
    24  H   -0.077418   0.234227
    25  H    0.213175   0.113569
    26  H    0.090980   0.100607
    27  H    0.217949   0.014442
    28  H   -0.234549   0.402945
    29  H    0.545610  -0.442920
    30  H    0.006811   0.148680
    31  H   -0.452307   0.626427
    32  H   -0.036066   0.191552
    33  H    0.081942   0.049358
    34  H   -0.015941   0.236826
    35  H   -0.392942   0.517201
    36  H   -0.321515   0.454290
    37  H   -0.184817   0.322467
 Sum of Mulliken charges =  -1.00000   1.00000

 Dipole moment (field-independent basis, Debye):
    X=             -3.8704    Y=             -1.7541    Z=             -1.1909  Tot=              4.4131
 Quadrupole moment (field-independent basis, Debye-Ang):
   XX=           -209.8914   YY=           -135.6368   ZZ=           -131.2745
   XY=              1.0481   XZ=             -0.5670   YZ=              0.2043

 Summary of Natural Population Analysis:

                                       Natural Population
                Natural  -----------------------------------------------
    Atom  No    Charge         Core      Valence    Rydberg      Total
 -----------------------------------------------------------------------
      C    1   -0.28903      0.99960     2.28217    0.00726     3.28903
      C    2    0.13546      0.99954     1.85124    0.01376     2.86454
      C    3   -0.30234      0.99960     2.29616    0.00658     3.30234
      C    4   -0.30210      0.99960     2.29613    0.00637     3.30210
      O    5   -0.30287      0.99985     3.29321    0.00981     4.30287
      C    6    0.46535      0.99968     1.51038    0.02458     2.53465
      O    7   -0.34050      0.99987     3.33563    0.00501     4.34050
      N    8   -0.32443      0.99967     2.81563    0.00913     3.82443
      C    9   -0.08466      0.99955     2.07480    0.01031     3.08466
      C   10   -0.05336      0.99955     2.04062    0.01319     3.05336
      C   11   -0.19364      0.99958     2.18491    0.00915     3.19364
      C   12   -0.20003      0.99959     2.19100    0.00944     3.20003
      C   13   -0.08093      0.99957     2.06859    0.01277     3.08093
      N   14   -0.33869      0.99975     2.82797    0.01098     3.83869
      C   15   -0.17471      0.99967     2.16806    0.00698     3.17471
      H   16    0.10303      0.00000     0.39568    0.00129     0.39697
      H   17    0.10352      0.00000     0.39541    0.00107     0.39648
      H   18    0.10434      0.00000     0.39438    0.00127     0.39566
      H   19    0.10317      0.00000     0.39590    0.00093     0.39683
      H   20    0.11470      0.00000     0.38444    0.00086     0.38530
      H   21    0.10163      0.00000     0.39733    0.00104     0.39837
      H   22    0.10163      0.00000     0.39751    0.00085     0.39837
      H   23    0.11442      0.00000     0.38474    0.00084     0.38558
      H   24    0.10289      0.00000     0.39621    0.00090     0.39711
      H   25    0.19648      0.00000     0.30164    0.00189     0.30352
      H   26    0.10662      0.00000     0.39167    0.00171     0.39338
      H   27    0.10596      0.00000     0.39259    0.00145     0.39404
      H   28    0.10263      0.00000     0.39629    0.00108     0.39737
      H   29    0.10644      0.00000     0.39199    0.00156     0.39356
      H   30    0.10263      0.00000     0.39623    0.00114     0.39737
      H   31    0.10425      0.00000     0.39445    0.00131     0.39575
      H   32    0.09283      0.00000     0.40571    0.00146     0.40717
      H   33    0.08393      0.00000     0.41403    0.00204     0.41607
      H   34    0.17133      0.00000     0.32433    0.00434     0.32867
      H   35    0.07940      0.00000     0.41793    0.00268     0.42060
      H   36    0.09500      0.00000     0.40367    0.00134     0.40500
      H   37    0.08964      0.00000     0.40878    0.00158     0.41036
 =======================================================================
   * Total *   -0.00000     14.99466    43.81741    0.18793    59.00000

 Normal termination of Gaussian 16 at Thu Dec 10 17:37:32 2020.
