 Gaussian 16, Revision A.03,

 -----------------------------------------------------------
 # opt freq B3LYP/6-31G(d) empiricaldispersion=gd3bj scf=xqc
 -----------------------------------------------------------

 ------------------------------
 CID_61282718_JID_7965_neutraal
 ------------------------------
 Symbolic Z-matrix:
 Charge =  0 Multiplicity = 1

 SCF Done:  E(RB3LYP) =  -1087.98240752     A.U. after   15 cycles
 SCF Done:  E(RB3LYP) =  -1087.98700777     A.U. after   12 cycles
 SCF Done:  E(RB3LYP) =  -1087.98782204     A.U. after   12 cycles
 SCF Done:  E(RB3LYP) =  -1087.98835250     A.U. after   12 cycles
 SCF Done:  E(RB3LYP) =  -1087.98865061     A.U. after   11 cycles
 SCF Done:  E(RB3LYP) =  -1087.98910668     A.U. after   12 cycles
 SCF Done:  E(RB3LYP) =  -1087.98920596     A.U. after   10 cycles
 SCF Done:  E(RB3LYP) =  -1087.98922002     A.U. after   10 cycles
 SCF Done:  E(RB3LYP) =  -1087.98922641     A.U. after   10 cycles
 SCF Done:  E(RB3LYP) =  -1087.98922830     A.U. after    9 cycles
 SCF Done:  E(RB3LYP) =  -1087.98922924     A.U. after   10 cycles
 SCF Done:  E(RB3LYP) =  -1087.98922988     A.U. after    9 cycles
 SCF Done:  E(RB3LYP) =  -1087.98923015     A.U. after    9 cycles
 SCF Done:  E(RB3LYP) =  -1087.98923018     A.U. after    7 cycles
 Optimization completed.
    -- Stationary point found.
 Normal termination of Gaussian 16 at Fri Dec 11 13:25:29 2020.

 --------------------------------------------------------------------
 #N Geom=AllCheck Guess=TCheck SCRF=Check GenChk RB3LYP/6-31G(d) Freq
 --------------------------------------------------------------------

 Structure from the checkpoint file:  "JID_7965.chk"
 ------------------------------
 CID_61282718_JID_7965_neutraal
 ------------------------------
 Charge =  0 Multiplicity = 1

 SCF Done:  E(RB3LYP) =  -1087.98923018     A.U. after    1 cycles

  Exact polarizability: 269.239 -13.298 171.594   9.723  10.200  93.201
 Approx polarizability: 364.410 -15.447 301.777  28.325  30.405 151.461

                      1                      2                      3
                      A                      A                      A
 Frequencies --     18.7279                21.3450                56.4651
 Red. masses --      4.8121                 3.4115                 3.3798
 Frc consts  --      0.0010                 0.0009                 0.0063
 IR Inten    --      0.2915                 0.2852                 2.4321

                      4                      5                      6
                      A                      A                      A
 Frequencies --     62.2838                81.2969               100.4582
 Red. masses --      5.6399                 3.4527                 3.9439
 Frc consts  --      0.0129                 0.0134                 0.0235
 IR Inten    --      2.2194                 4.4830                 1.0748

                      7                      8                      9
                      A                      A                      A
 Frequencies --    116.8410               160.7335               202.5779
 Red. masses --      4.1676                 4.2461                 3.8284
 Frc consts  --      0.0335                 0.0646                 0.0926
 IR Inten    --      0.2294                 0.8021                 3.2097

                     10                     11                     12
                      A                      A                      A
 Frequencies --    250.7059               255.9060               274.7408
 Red. masses --      1.1458                 3.2005                 1.7167
 Frc consts  --      0.0424                 0.1235                 0.0763
 IR Inten    --      0.2620                 0.4694                37.9632

                     13                     14                     15
                      A                      A                      A
 Frequencies --    280.4362               289.7194               329.5642
 Red. masses --      1.4979                 1.9495                 4.2333
 Frc consts  --      0.0694                 0.0964                 0.2709
 IR Inten    --      0.7957                 1.4899                 4.8588

                     16                     17                     18
                      A                      A                      A
 Frequencies --    344.8600               371.8208               388.4754
 Red. masses --      2.0462                 2.2620                 4.5530
 Frc consts  --      0.1434                 0.1843                 0.4048
 IR Inten    --     30.0613                 1.1750                 3.0393

                     19                     20                     21
                      A                      A                      A
 Frequencies --    438.9661               466.2565               486.4233
 Red. masses --      3.9661                 3.3690                 4.1201
 Frc consts  --      0.4503                 0.4315                 0.5744
 IR Inten    --      7.1925                 2.6891                 5.4678

                     22                     23                     24
                      A                      A                      A
 Frequencies --    501.9455               519.4305               564.4360
 Red. masses --      4.1961                 4.9868                 4.2756
 Frc consts  --      0.6229                 0.7927                 0.8026
 IR Inten    --      1.5319                 0.2832                 4.5816

                     25                     26                     27
                      A                      A                      A
 Frequencies --    612.4603               628.2554               673.8209
 Red. masses --      4.9226                 4.7956                 7.0686
 Frc consts  --      1.0879                 1.1152                 1.8909
 IR Inten    --      3.0463                 4.9900                 0.5993

                     28                     29                     30
                      A                      A                      A
 Frequencies --    684.7594               696.0864               710.8950
 Red. masses --      5.9537                 5.5274                 2.1503
 Frc consts  --      1.6448                 1.5780                 0.6403
 IR Inten    --      4.9825                 9.0136                13.2877

                     31                     32                     33
                      A                      A                      A
 Frequencies --    754.7818               792.8748               812.0159
 Red. masses --      5.6851                 3.0014                 1.9459
 Frc consts  --      1.9082                 1.1117                 0.7559
 IR Inten    --      7.7314                 3.2469                22.9771

                     34                     35                     36
                      A                      A                      A
 Frequencies --    859.3357               872.0726               881.3282
 Red. masses --      1.2894                 3.4914                 1.3537
 Frc consts  --      0.5610                 1.5644                 0.6195
 IR Inten    --     71.7588                67.0672                38.0157

                     37                     38                     39
                      A                      A                      A
 Frequencies --    906.7033               930.2668               936.3184
 Red. masses --      1.4622                 1.5296                 1.3434
 Frc consts  --      0.7082                 0.7799                 0.6939
 IR Inten    --      5.8047                13.6456                 0.2194

                     40                     41                     42
                      A                      A                      A
 Frequencies --    950.0658               967.1692               971.7761
 Red. masses --      1.2745                 2.0054                 1.5495
 Frc consts  --      0.6778                 1.1053                 0.8621
 IR Inten    --      0.3914                60.5835                32.7456

                     43                     44                     45
                      A                      A                      A
 Frequencies --    994.7241              1022.2945              1052.8304
 Red. masses --      1.6555                 6.1366                 2.4247
 Frc consts  --      0.9651                 3.7786                 1.5835
 IR Inten    --     13.8171                 0.1771                 2.7649

                     46                     47                     48
                      A                      A                      A
 Frequencies --   1060.3455              1117.6529              1157.5907
 Red. masses --      3.3234                 1.6351                 2.1039
 Frc consts  --      2.2016                 1.2034                 1.6610
 IR Inten    --      7.3866                 8.7568                15.2685

                     49                     50                     51
                      A                      A                      A
 Frequencies --   1164.2678              1179.0056              1184.5424
 Red. masses --      1.8540                 2.2871                 1.3133
 Frc consts  --      1.4807                 1.8731                 1.0857
 IR Inten    --     72.4102                38.7799                13.5495

                     52                     53                     54
                      A                      A                      A
 Frequencies --   1200.7634              1210.6705              1212.8417
 Red. masses --      1.1837                 2.8068                 1.9910
 Frc consts  --      1.0056                 2.4239                 1.7256
 IR Inten    --     16.1557                 2.8236                11.5759

                     55                     56                     57
                      A                      A                      A
 Frequencies --   1228.4329              1291.8390              1304.0581
 Red. masses --      2.4252                 1.5092                 2.7050
 Frc consts  --      2.1562                 1.4840                 2.7103
 IR Inten    --    122.3887                15.3918               128.2702

                     58                     59                     60
                      A                      A                      A
 Frequencies --   1322.3836              1352.5360              1365.5651
 Red. masses --      2.1642                 1.6187                 3.5251
 Frc consts  --      2.2298                 1.7447                 3.8730
 IR Inten    --      7.4494                 5.5437                 1.4362

                     61                     62                     63
                      A                      A                      A
 Frequencies --   1381.2529              1411.4509              1428.8060
 Red. masses --      1.3328                 1.2631                 1.3282
 Frc consts  --      1.4982                 1.4826                 1.5975
 IR Inten    --      2.8048                 4.1794                16.0992

                     64                     65                     66
                      A                      A                      A
 Frequencies --   1436.3961              1443.2672              1478.1427
 Red. masses --      1.4508                 1.2472                 3.5360
 Frc consts  --      1.7636                 1.5307                 4.5519
 IR Inten    --     58.2904                16.6319                53.8079

                     67                     68                     69
                      A                      A                      A
 Frequencies --   1499.8173              1513.6479              1519.0825
 Red. masses --      4.4262                 1.0479                 1.0560
 Frc consts  --      5.8663                 1.4146                 1.4358
 IR Inten    --     36.5427                 0.8563                 2.9299

                     70                     71                     72
                      A                      A                      A
 Frequencies --   1526.0901              1530.6757              1539.9783
 Red. masses --      1.0659                 1.0811                 1.1365
 Frc consts  --      1.4626                 1.4924                 1.5880
 IR Inten    --      6.1899                 0.6273                 2.0607

                     73                     74                     75
                      A                      A                      A
 Frequencies --   1544.7135              1591.6629              1639.4797
 Red. masses --      2.6113                 6.0261                 5.7515
 Frc consts  --      3.6712                 8.9947                 9.1084
 IR Inten    --     43.4343                21.1013                28.3287

                     76                     77                     78
                      A                      A                      A
 Frequencies --   1655.5681              1692.4523              2966.8700
 Red. masses --      5.9795                 1.0923                 1.0722
 Frc consts  --      9.6563                 1.8434                 5.5605
 IR Inten    --     41.6148                34.2619                74.3689

                     79                     80                     81
                      A                      A                      A
 Frequencies --   3047.1165              3054.5944              3059.6804
 Red. masses --      1.0886                 1.0351                 1.0356
 Frc consts  --      5.9554                 5.6901                 5.7121
 IR Inten    --     31.5945                14.0341                 8.6742

                     82                     83                     84
                      A                      A                      A
 Frequencies --   3079.0712              3122.3466              3129.1611
 Red. masses --      1.0870                 1.1018                 1.1016
 Frc consts  --      6.0720                 6.3286                 6.3555
 IR Inten    --     26.9907                 0.8632                69.8027

                     85                     86                     87
                      A                      A                      A
 Frequencies --   3134.0256              3139.4725              3189.4435
 Red. masses --      1.1033                 1.1028                 1.0865
 Frc consts  --      6.3850                 6.4039                 6.5121
 IR Inten    --     25.9894                38.1357                 9.5693

                     88                     89                     90
                      A                      A                      A
 Frequencies --   3204.6219              3218.8577              3222.5734
 Red. masses --      1.0926                 1.0933                 1.0943
 Frc consts  --      6.6112                 6.6739                 6.6959
 IR Inten    --     13.7332                21.0891                10.9301

                     91                     92                     93
                      A                      A                      A
 Frequencies --   3248.3414              3472.9134              3563.2773
 Red. masses --      1.0909                 1.0494                 1.0935
 Frc consts  --      6.7817                 7.4575                 8.1802
 IR Inten    --      2.3513                 2.0723                 0.7143

 - Thermochemistry -
 -------------------
 Temperature   298.150 Kelvin.  Pressure   1.00000 Atm.
 Atom     1 has atomic number  6 and mass  12.00000

 Molecular mass:   248.09834 amu.
 Principal axes and moments of inertia in atomic units:
                           1         2         3
     Eigenvalues --  1638.225159703.30453**********
           X            0.99997   0.00189  -0.00794
           Y           -0.00192   0.99999  -0.00414
           Z            0.00793   0.00416   0.99996
 This molecule is an asymmetric top.
 Rotational symmetry number  1.
 Warning -- assumption of classical behavior for rotation
           may cause significant error
 Rotational temperatures (Kelvin)      0.05287     0.00893     0.00795
 Rotational constants (GHZ):           1.10164     0.18599     0.16566
 Zero-point vibrational energy     713767.4 (Joules/Mol)
                                  170.59451 (Kcal/Mol)
 Warning -- explicit consideration of  25 degrees of freedom as
           vibrations may cause significant error
 Vibrational temperatures:     26.95    30.71    81.24    89.61   116.97
          (Kelvin)            144.54   168.11   231.26   291.46   360.71
                              368.19   395.29   403.49   416.84   474.17
                              496.18   534.97   558.93   631.57   670.84
                              699.85   722.19   747.34   812.10   881.19
                              903.92   969.48   985.22  1001.51  1022.82
                             1085.96  1140.77  1168.31  1236.39  1254.72
                             1268.03  1304.54  1338.45  1347.15  1366.93
                             1391.54  1398.17  1431.19  1470.85  1514.79
                             1525.60  1608.05  1665.51  1675.12  1696.33
                             1704.29  1727.63  1741.88  1745.01  1767.44
                             1858.67  1876.25  1902.62  1946.00  1964.74
                             1987.31  2030.76  2055.73  2066.65  2076.54
                             2126.72  2157.90  2177.80  2185.62  2195.70
                             2202.30  2215.69  2222.50  2290.05  2358.85
                             2381.99  2435.06  4268.66  4384.12  4394.88
                             4402.20  4430.10  4492.36  4502.16  4509.16
                             4517.00  4588.90  4610.74  4631.22  4636.56
                             4673.64  4996.75  5126.76

 Zero-point correction=                           0.271860 (Hartree/Particle)
 Thermal correction to Energy=                    0.288479
 Thermal correction to Enthalpy=                  0.289423
 Thermal correction to Gibbs Free Energy=         0.225360
 Sum of electronic and zero-point Energies=          -1087.717371
 Sum of electronic and thermal Energies=             -1087.700751
 Sum of electronic and thermal Enthalpies=           -1087.699807
 Sum of electronic and thermal Free Energies=        -1087.763870

                     E (Thermal)             CV                S
                      KCal/Mol        Cal/Mol-Kelvin    Cal/Mol-Kelvin
 Total                  181.024             62.780            134.832
 Electronic               0.000              0.000              0.000
 Translational            0.889              2.981             42.427
 Rotational               0.889              2.981             33.515
 Vibrational            179.246             56.818             58.891
 Vibration     1          0.593              1.986              6.765
 Vibration     2          0.593              1.985              6.505
 Vibration     3          0.596              1.975              4.577
 Vibration     4          0.597              1.972              4.383
 Vibration     5          0.600              1.962              3.859
 Vibration     6          0.604              1.949              3.445
 Vibration     7          0.608              1.935              3.152
 Vibration     8          0.622              1.891              2.541
 Vibration     9          0.639              1.836              2.110
 Vibration    10          0.663              1.762              1.726
 Vibration    11          0.666              1.753              1.690
 Vibration    12          0.677              1.720              1.566
 Vibration    13          0.680              1.710              1.531
 Vibration    14          0.686              1.693              1.476
 Vibration    15          0.712              1.616              1.262
 Vibration    16          0.723              1.586              1.190
 Vibration    17          0.744              1.530              1.072
 Vibration    18          0.757              1.495              1.006
 Vibration    19          0.799              1.385              0.830
 Vibration    20          0.824              1.325              0.748
 Vibration    21          0.842              1.280              0.693
 Vibration    22          0.857              1.246              0.653
 Vibration    23          0.874              1.207              0.611
 Vibration    24          0.920              1.108              0.515
 Vibration    25          0.972              1.005              0.429

 Optimization completed.
    -- Stationary point found.
 Normal termination of Gaussian 16 at Fri Dec 11 13:35:42 2020.

 ----------------------------------------------------------------------
 # B3LYP/6-311++G(d,p) empiricaldispersion=gd3bj scf=xqc pop=npa geom=c
 heck
 ----------------------------------------------------------------------

 --------------------------------------
 CID_61282718_JID_7965_Energie_neutraal
 --------------------------------------
 Structure from the checkpoint file:  "JID_7965.chk"
 Charge =  0 Multiplicity = 1

 SCF Done:  E(RB3LYP) =  -1088.20588993     A.U. after   15 cycles
 Normal termination of Gaussian 16 at Fri Dec 11 13:41:12 2020.

 ----------------------------------------------------------------------
 # B3LYP/6-311++G(d,p) empiricaldispersion=gd3bj scf=xqc pop=npa geom=c
 heck
 ----------------------------------------------------------------------

 ------------------------------------
 CID_61282718_JID_7965_Energie_kation
 ------------------------------------
 Structure from the checkpoint file:  "JID_7965.chk"
 Charge =  1 Multiplicity = 2

 SCF Done:  E(UB3LYP) =  -1087.92313032     A.U. after   25 cycles
 Normal termination of Gaussian 16 at Fri Dec 11 13:53:47 2020.
 Gaussian 16:  ES64L-G16RevA.03 25-Dec-2016

 ----------------------------------------------------------------------
 # B3LYP/6-311++G(d,p) empiricaldispersion=gd3bj scf=xqc pop=npa geom=c
 heck
 ----------------------------------------------------------------------

 -----------------------------------
 CID_61282718_JID_7965_Energie_anion
 -----------------------------------
 Structure from the checkpoint file:  "JID_7965.chk"
 Charge = -1 Multiplicity = 2

                         Standard orientation:
 ---------------------------------------------------------------------
 Center     Atomic      Atomic             Coordinates (Angstroms)
 Number     Number       Type             X           Y           Z
 ---------------------------------------------------------------------
      1          6           0       -3.522195   -2.202402    0.483942
      2          6           0       -4.343638   -1.059212   -0.107231
      3          6           0       -4.977527   -0.181126    0.968935
      4          8           0       -3.585210   -0.276637   -1.063969
      5          6           0       -2.504185    0.437829   -0.597938
      6          6           0       -2.660111    1.789192   -0.267621
      7          6           0       -1.553653    2.531022    0.144140
      8          6           0       -0.296399    1.938333    0.228493
      9          6           0       -0.130820    0.588416   -0.116225
     10          6           0       -1.244963   -0.155579   -0.534813
     11          6           0        1.174735   -0.077183   -0.054268
     12          7           0        1.351733   -1.356022   -0.275437
     13          6           0        2.673928   -1.701757   -0.166080
     14          6           0        3.548487   -0.698136    0.148849
     15         16           0        2.667277    0.799730    0.300801
     16          6           0        5.026976   -0.770197    0.369373
     17          7           0        5.702907    0.364729   -0.266654
     18          1           0       -2.721225   -1.826953    1.128783
     19          1           0       -3.072949   -2.806591   -0.310098
     20          1           0       -4.167809   -2.849692    1.088029
     21          1           0       -5.135552   -1.479902   -0.735168
     22          1           0       -4.214693    0.267637    1.613713
     23          1           0       -5.565686    0.623104    0.515811
     24          1           0       -5.642356   -0.782599    1.598623
     25          1           0       -3.642898    2.241054   -0.348241
     26          1           0       -1.672899    3.579294    0.402281
     27          1           0        0.553971    2.526702    0.560457
     28          1           0       -1.114312   -1.191786   -0.819700
     29          1           0        2.964076   -2.734757   -0.327357
     30          1           0        5.246799   -0.714745    1.444107
     31          1           0        5.365805   -1.765403    0.030925
     32          1           0        6.700893    0.331616   -0.067845
     33          1           0        5.597790    0.304288   -1.278085
 ---------------------------------------------------------------------

 SCF Done:  E(UB3LYP) =  -1088.21412748     A.U. after   29 cycles

 The electronic state is 2-A.
 Alpha  occ. eigenvalues --  -88.72364 -19.02003 -14.18849 -14.15449 -10.13327
 Alpha  occ. eigenvalues --  -10.09536 -10.09106 -10.07353 -10.07217 -10.06668
 Alpha  occ. eigenvalues --  -10.05890 -10.05503 -10.04834 -10.04365 -10.03727
 Alpha  occ. eigenvalues --  -10.03443 -10.03147  -7.81041  -5.77319  -5.76977
 Alpha  occ. eigenvalues --   -5.76656  -0.93534  -0.81346  -0.77789  -0.72556
 Alpha  occ. eigenvalues --   -0.68884  -0.65683  -0.63794  -0.61225  -0.60175
 Alpha  occ. eigenvalues --   -0.59123  -0.54474  -0.51703  -0.49039  -0.46078
 Alpha  occ. eigenvalues --   -0.42318  -0.41465  -0.39096  -0.38791  -0.37771
 Alpha  occ. eigenvalues --   -0.36883  -0.35072  -0.34285  -0.33201  -0.32122
 Alpha  occ. eigenvalues --   -0.31667  -0.30704  -0.29742  -0.29159  -0.28197
 Alpha  occ. eigenvalues --   -0.28012  -0.26865  -0.26667  -0.25690  -0.24812
 Alpha  occ. eigenvalues --   -0.23382  -0.22585  -0.21671  -0.21094  -0.16316
 Alpha  occ. eigenvalues --   -0.15391  -0.14369  -0.13589  -0.12523  -0.11979
 Alpha  occ. eigenvalues --   -0.08613   0.03987
 Alpha virt. eigenvalues --    0.06606   0.06756   0.08572   0.09231   0.09352
 Alpha virt. eigenvalues --    0.09657   0.09908   0.10925   0.11264   0.11631
 Alpha virt. eigenvalues --    0.12115   0.12628   0.13026   0.13170   0.13541

  Beta  occ. eigenvalues --  -88.72314 -19.02006 -14.18803 -14.15274 -10.13328
  Beta  occ. eigenvalues --  -10.09577 -10.09115 -10.07215 -10.07085 -10.06663
  Beta  occ. eigenvalues --  -10.05949 -10.05269 -10.04885 -10.04250 -10.03613
  Beta  occ. eigenvalues --  -10.03205 -10.03027  -7.80996  -5.77298  -5.76957
  Beta  occ. eigenvalues --   -5.76488  -0.93538  -0.80999  -0.77668  -0.72329
  Beta  occ. eigenvalues --   -0.68849  -0.65321  -0.63380  -0.61024  -0.60151
  Beta  occ. eigenvalues --   -0.58889  -0.54303  -0.51616  -0.48691  -0.45932
  Beta  occ. eigenvalues --   -0.42083  -0.41313  -0.39000  -0.38727  -0.37681
  Beta  occ. eigenvalues --   -0.36743  -0.34993  -0.34173  -0.33080  -0.32017
  Beta  occ. eigenvalues --   -0.31611  -0.30646  -0.29709  -0.28942  -0.27994
  Beta  occ. eigenvalues --   -0.27917  -0.26674  -0.26045  -0.25518  -0.24577
  Beta  occ. eigenvalues --   -0.23112  -0.22439  -0.21370  -0.20857  -0.16264
  Beta  occ. eigenvalues --   -0.14730  -0.13628  -0.12807  -0.12252  -0.11362
  Beta  occ. eigenvalues --   -0.07418
  Beta virt. eigenvalues --    0.06569   0.06930   0.08516   0.08880   0.09248
  Beta virt. eigenvalues --    0.09332   0.09656   0.10186   0.10898   0.11286
  Beta virt. eigenvalues --    0.11785   0.12179   0.12608   0.13003   0.13232

 Mulliken charges and spin densities:
               1          2
     1  C   -0.526597  -0.032243
     2  C    0.120127   0.012786
     3  C   -0.601665  -0.001955
     4  O   -0.105822  -0.000452
     5  C   -0.662593  -0.027248
     6  C    0.348584   0.204795
     7  C   -0.524640  -0.026954
     8  C   -0.716653   0.086054
     9  C    1.097009   0.018346
    10  C   -0.377815   0.127500
    11  C    0.201694   0.121795
    12  N    0.078605   0.098105
    13  C    0.192311   0.038793
    14  C   -0.091136   0.422888
    15  S   -0.601175   0.062590
    16  C   -0.180728  -0.737435
    17  N   -0.341036  -0.024892
    18  H    0.160792   0.018569
    19  H    0.146333   0.002367
    20  H    0.104279   0.003198
    21  H    0.153537   0.007185
    22  H    0.173320  -0.001529
    23  H    0.143208   0.000216
    24  H    0.104899   0.000059
    25  H    0.108402  -0.014157
    26  H    0.137675   0.003500
    27  H    0.064301  -0.001855
    28  H    0.202943  -0.009435
    29  H    0.110379   0.012842
    30  H   -0.115161   0.281017
    31  H    0.049557   0.083119
    32  H   -0.008855   0.226499
    33  H    0.155922   0.045934
 Sum of Mulliken charges =  -1.00000   1.00000

 Dipole moment (field-independent basis, Debye):
    X=             -5.7823    Y=             -1.5773    Z=              0.7505  Tot=              6.0404
 Quadrupole moment (field-independent basis, Debye-Ang):
   XX=           -170.0637   YY=           -124.6132   ZZ=           -124.2751
   XY=             -0.8149   XZ=            -11.0016   YZ=              0.0110

 Summary of Natural Population Analysis:

                                       Natural Population
                Natural  -----------------------------------------------
    Atom  No    Charge         Core      Valence    Rydberg      Total
 -----------------------------------------------------------------------
      C    1   -0.30196      0.99965     2.29753    0.00478     3.30196
      C    2    0.07025      0.99956     1.91906    0.01113     2.92975
      C    3   -0.30189      0.99965     2.29746    0.00478     3.30189
      O    4   -0.30272      0.99986     3.29213    0.01073     4.30272
      C    5    0.13183      0.99936     1.85545    0.01336     2.86817
      C    6   -0.09019      0.99954     2.08055    0.01011     3.09019
      C    7   -0.10810      0.99945     2.09916    0.00948     3.10810
      C    8   -0.08139      0.99956     2.07316    0.00866     3.08139
      C    9   -0.02695      0.99948     2.01830    0.00918     3.02695
      C   10   -0.08136      0.99948     2.07390    0.00798     3.08136
      C   11    0.07895      0.99955     1.90457    0.01693     2.92105
      N   12   -0.23222      0.99965     2.72002    0.01254     3.73222
      C   13   -0.03724      0.99947     2.02378    0.01400     3.03724
      C   14   -0.08595      0.99950     2.07249    0.01396     3.08595
      S   15    0.19458      4.99941     2.78624    0.01977     7.80542
      C   16   -0.10347      0.99957     2.09056    0.01334     3.10347
      N   17   -0.41739      0.99978     2.90631    0.01131     3.91739
      H   18    0.10880      0.00000     0.39030    0.00090     0.39120
      H   19    0.10405      0.00000     0.39504    0.00091     0.39595
      H   20    0.09429      0.00000     0.40486    0.00085     0.40571
      H   21    0.08223      0.00000     0.41642    0.00135     0.41777
      H   22    0.10697      0.00000     0.39213    0.00090     0.39303
      H   23    0.10037      0.00000     0.39862    0.00101     0.39963
      H   24    0.09515      0.00000     0.40400    0.00086     0.40485
      H   25    0.09261      0.00000     0.40585    0.00153     0.40739
      H   26    0.09186      0.00000     0.40695    0.00119     0.40814
      H   27    0.09828      0.00000     0.40074    0.00097     0.40172
      H   28    0.11037      0.00000     0.38825    0.00138     0.38963
      H   29    0.08935      0.00000     0.40917    0.00149     0.41065
      H   30    0.09606      0.00000     0.40215    0.00179     0.40394
      H   31    0.08187      0.00000     0.41652    0.00161     0.41813
      H   32    0.17085      0.00000     0.32658    0.00258     0.32915
      H   33    0.17214      0.00000     0.32621    0.00165     0.32786
 =======================================================================
   * Total *    0.00002     20.99252    44.79446    0.21301    65.99998

 Normal termination of Gaussian 16 at Fri Dec 11 14:08:07 2020.
