 Gaussian 16, Revision A.03,

 -----------------------------------------------------------
 # opt freq B3LYP/6-31G(d) empiricaldispersion=gd3bj scf=xqc
 -----------------------------------------------------------

 -------------------------------
 CID_123977789_JID_1727_neutraal
 -------------------------------
 Symbolic Z-matrix:
 Charge =  0 Multiplicity = 1

 SCF Done:  E(RB3LYP) =  -472.081267974     A.U. after   16 cycles
 SCF Done:  E(RB3LYP) =  -472.106646151     A.U. after   14 cycles
 SCF Done:  E(RB3LYP) =  -472.107287794     A.U. after   12 cycles
 SCF Done:  E(RB3LYP) =  -472.107348942     A.U. after   12 cycles
 SCF Done:  E(RB3LYP) =  -472.107352711     A.U. after   10 cycles
 SCF Done:  E(RB3LYP) =  -472.107355519     A.U. after    9 cycles
 Optimization completed.
    -- Stationary point found.
 Normal termination of Gaussian 16 at Tue Dec  8 20:51:03 2020.

 --------------------------------------------------------------------
 #N Geom=AllCheck Guess=TCheck SCRF=Check GenChk RB3LYP/6-31G(d) Freq
 --------------------------------------------------------------------

 Structure from the checkpoint file:  "JID_1727.chk"
 -------------------------------
 CID_123977789_JID_1727_neutraal
 -------------------------------
 Charge =  0 Multiplicity = 1

 SCF Done:  E(RB3LYP) =  -472.107355519     A.U. after    1 cycles

  Exact polarizability: 168.723  -2.287  93.291  -0.000   0.000  34.841
 Approx polarizability: 292.302 -10.921 170.625  -0.001  -0.000  54.333

                      1                      2                      3
                      A                      A                      A
 Frequencies --    103.9462               141.5189               226.5029
 Red. masses --      6.7785                 8.7495                 4.5526
 Frc consts  --      0.0432                 0.1032                 0.1376
 IR Inten    --      1.3201                 5.2473                 0.4021

                      4                      5                      6
                      A                      A                      A
 Frequencies --    258.0288               401.7123               423.1901
 Red. masses --      6.3661                 5.6670                 2.9749
 Frc consts  --      0.2497                 0.5388                 0.3139
 IR Inten    --      5.3820                 3.6629                 8.8045

                      7                      8                      9
                      A                      A                      A
 Frequencies --    444.5992               494.6361               553.7247
 Red. masses --      9.1871                 7.2557                 7.8284
 Frc consts  --      1.0700                 1.0459                 1.4142
 IR Inten    --      2.4768                 1.1877                 1.4459

                     10                     11                     12
                      A                      A                      A
 Frequencies --    618.2799               622.5399               650.7596
 Red. masses --      3.5631                 5.8388                 5.4320
 Frc consts  --      0.8025                 1.3332                 1.3554
 IR Inten    --      5.7065                 0.4106                 8.1739

                     13                     14                     15
                      A                      A                      A
 Frequencies --    733.6281               739.7778               768.8969
 Red. masses --      3.0015                 7.1197                 1.4036
 Frc consts  --      0.9518                 2.2957                 0.4889
 IR Inten    --      4.5442                 2.2924                12.3791

                     16                     17                     18
                      A                      A                      A
 Frequencies --    827.9502               845.5061               898.3223
 Red. masses --      1.5694                 5.0127                 1.3887
 Frc consts  --      0.6339                 2.1113                 0.6603
 IR Inten    --     45.3476                 1.4868                11.1464

                     19                     20                     21
                      A                      A                      A
 Frequencies --    913.6660               925.4802               969.2737
 Red. masses --      1.3267                 4.5696                 4.2772
 Frc consts  --      0.6525                 2.3060                 2.3675
 IR Inten    --      4.0326                 7.7429                 7.8426

                     22                     23                     24
                      A                      A                      A
 Frequencies --    971.1649              1078.6761              1133.4894
 Red. masses --      1.2707                 1.4091                 2.7351
 Frc consts  --      0.7061                 0.9660                 2.0704
 IR Inten    --      0.0062                 0.5627                 3.7406

                     25                     26                     27
                      A                      A                      A
 Frequencies --   1172.4464              1230.0583              1274.4434
 Red. masses --      1.4125                 1.6169                 2.1694
 Frc consts  --      1.1440                 1.4414                 2.0760
 IR Inten    --     11.1489                11.3235                11.9972

                     28                     29                     30
                      A                      A                      A
 Frequencies --   1296.7143              1339.0577              1350.0137
 Red. masses --      3.7099                 2.8719                 2.8448
 Frc consts  --      3.6753                 3.0340                 3.0548
 IR Inten    --     17.4110                10.9957                29.9114

                     31                     32                     33
                      A                      A                      A
 Frequencies --   1421.5308              1486.8624              1489.8456
 Red. masses --      3.0466                 5.1892                 3.3710
 Frc consts  --      3.6272                 6.7592                 4.4085
 IR Inten    --     13.8642                85.8344                 7.3536

                     34                     35                     36
                      A                      A                      A
 Frequencies --   1563.9083              1596.8194              1689.1944
 Red. masses --      5.3992                 4.9590                 6.6785
 Frc consts  --      7.7804                 7.4499                11.2277
 IR Inten    --      8.0399                 3.6071                63.0324

                     37                     38                     39
                      A                      A                      A
 Frequencies --   2353.9534              3222.6071              3238.3254
 Red. masses --     12.6731                 1.0883                 1.0964
 Frc consts  --     41.3740                 6.6591                 6.7741
 IR Inten    --     52.2282                 0.5680                 2.8472

                     40                     41                     42
                      A                      A                      A
 Frequencies --   3262.9214              3270.6124              3291.1537
 Red. masses --      1.0941                 1.0944                 1.1001
 Frc consts  --      6.8632                 6.8971                 7.0204
 IR Inten    --      5.7827                 3.5652                 0.4548

 - Thermochemistry -
 -------------------
 Temperature   298.150 Kelvin.  Pressure   1.00000 Atm.
 Atom     1 has atomic number  6 and mass  12.00000

 Molecular mass:   143.04835 amu.
 Principal axes and moments of inertia in atomic units:
                           1         2         3
     Eigenvalues --   544.003942329.428692873.43263
           X            1.00000  -0.00127   0.00000
           Y            0.00127   1.00000   0.00000
           Z           -0.00000  -0.00000   1.00000
 This molecule is an asymmetric top.
 Rotational symmetry number  1.
 Warning -- assumption of classical behavior for rotation
           may cause significant error
 Rotational temperatures (Kelvin)      0.15922     0.03718     0.03014
 Rotational constants (GHZ):           3.31751     0.77476     0.62808
 Zero-point vibrational energy     306816.7 (Joules/Mol)
                                   73.33094 (Kcal/Mol)
 Warning -- explicit consideration of  10 degrees of freedom as
           vibrations may cause significant error
 Vibrational temperatures:    149.56   203.61   325.89   371.25   577.97
          (Kelvin)            608.88   639.68   711.67   796.69   889.57
                              895.70   936.30  1055.53  1064.38  1106.27
                             1191.24  1216.49  1292.49  1314.56  1331.56
                             1394.57  1397.29  1551.97  1630.84  1686.89
                             1769.78  1833.64  1865.68  1926.61  1942.37
                             2045.27  2139.26  2143.56  2250.12  2297.47
                             2430.37  3386.81  4636.61  4659.23  4694.62
                             4705.68  4735.24

 Zero-point correction=                           0.116860 (Hartree/Particle)
 Thermal correction to Energy=                    0.124596
 Thermal correction to Enthalpy=                  0.125540
 Thermal correction to Gibbs Free Energy=         0.084027
 Sum of electronic and zero-point Energies=           -471.990495
 Sum of electronic and thermal Energies=              -471.982759
 Sum of electronic and thermal Enthalpies=            -471.981815
 Sum of electronic and thermal Free Energies=         -472.023329

                     E (Thermal)             CV                S
                      KCal/Mol        Cal/Mol-Kelvin    Cal/Mol-Kelvin
 Total                   78.185             30.543             87.373
 Electronic               0.000              0.000              0.000
 Translational            0.889              2.981             40.785
 Rotational               0.889              2.981             29.678
 Vibrational             76.408             24.581             16.910
 Vibration     1          0.605              1.946              3.379
 Vibration     2          0.615              1.912              2.783
 Vibration     3          0.650              1.801              1.906
 Vibration     4          0.667              1.749              1.675
 Vibration     5          0.767              1.466              0.956
 Vibration     6          0.785              1.420              0.881
 Vibration     7          0.804              1.373              0.812
 Vibration     8          0.850              1.262              0.672
 Vibration     9          0.909              1.132              0.537
 Vibration    10          0.978              0.993              0.419

 Optimization completed.
    -- Stationary point found.
 Normal termination of Gaussian 16 at Tue Dec  8 20:54:01 2020.

 ----------------------------------------------------------------------
 # B3LYP/6-311++G(d,p) empiricaldispersion=gd3bj scf=xqc pop=npa geom=c
 heck
 ----------------------------------------------------------------------

 ---------------------------------------
 CID_123977789_JID_1727_Energie_neutraal
 ---------------------------------------
 Structure from the checkpoint file:  "JID_1727.chk"
 Charge =  0 Multiplicity = 1

 SCF Done:  E(RB3LYP) =  -472.228008668     A.U. after   15 cycles
 Normal termination of Gaussian 16 at Tue Dec  8 20:55:58 2020.

 ----------------------------------------------------------------------
 # B3LYP/6-311++G(d,p) empiricaldispersion=gd3bj scf=xqc pop=npa geom=c
 heck
 ----------------------------------------------------------------------

 -------------------------------------
 CID_123977789_JID_1727_Energie_kation
 -------------------------------------
 Structure from the checkpoint file:  "JID_1727.chk"
 Charge =  1 Multiplicity = 2

 SCF Done:  E(UB3LYP) =  -471.916564743     A.U. after   23 cycles
 Normal termination of Gaussian 16 at Tue Dec  8 21:00:23 2020.
 Gaussian 16:  ES64L-G16RevA.03 25-Dec-2016

 ----------------------------------------------------------------------
 # B3LYP/6-311++G(d,p) empiricaldispersion=gd3bj scf=xqc pop=npa geom=c
 heck
 ----------------------------------------------------------------------

 ------------------------------------
 CID_123977789_JID_1727_Energie_anion
 ------------------------------------
 Structure from the checkpoint file:  "JID_1727.chk"
 Charge = -1 Multiplicity = 2

                         Standard orientation:
 ---------------------------------------------------------------------
 Center     Atomic      Atomic             Coordinates (Angstroms)
 Number     Number       Type             X           Y           Z
 ---------------------------------------------------------------------
      1          6           0        0.208485    1.752811    0.000001
      2          6           0       -1.115908    1.409147   -0.000004
      3          6           0       -1.501557    0.026999   -0.000021
      4          6           0       -0.539010   -0.956518   -0.000008
      5          7           0        0.769136   -0.595353    0.000010
      6          6           0        1.201626    0.741274   -0.000004
      7          6           0        2.591690    0.671481    0.000003
      8          6           0        2.885529   -0.702707    0.000002
      9          7           0        1.795300   -1.480085   -0.000001
     10          6           0       -2.881938   -0.340599   -0.000032
     11          7           0       -4.010694   -0.621443    0.000034
     12          1           0        0.518659    2.791775    0.000023
     13          1           0       -1.890469    2.167187    0.000026
     14          1           0       -0.739822   -2.019429    0.000006
     15          1           0        3.282212    1.501061    0.000010
     16          1           0        3.859724   -1.173751    0.000016
 ---------------------------------------------------------------------

 SCF Done:  E(UB3LYP) =  -472.242721440     A.U. after   22 cycles

 The electronic state is 2-A.
 Alpha  occ. eigenvalues --  -14.25488 -14.18839 -14.15326 -10.07271 -10.05777
 Alpha  occ. eigenvalues --  -10.05623 -10.04579 -10.04376 -10.03938 -10.02954
 Alpha  occ. eigenvalues --  -10.02400  -0.91423  -0.75776  -0.73468  -0.67512
 Alpha  occ. eigenvalues --   -0.64315  -0.59376  -0.51803  -0.47963  -0.47038
 Alpha  occ. eigenvalues --   -0.39470  -0.37861  -0.35064  -0.32434  -0.31247
 Alpha  occ. eigenvalues --   -0.30539  -0.28669  -0.25494  -0.23639  -0.23428
 Alpha  occ. eigenvalues --   -0.21904  -0.18596  -0.18470  -0.17197  -0.16101
 Alpha  occ. eigenvalues --   -0.11476  -0.07649   0.04878
 Alpha virt. eigenvalues --    0.08852   0.09924   0.11072   0.11193   0.12404
 Alpha virt. eigenvalues --    0.13182   0.15479   0.15763   0.16345   0.16696
 Alpha virt. eigenvalues --    0.16991   0.17122   0.17661   0.18612   0.19427

  Beta  occ. eigenvalues --  -14.25397 -14.18887 -14.15175 -10.07229 -10.05757
  Beta  occ. eigenvalues --  -10.05494 -10.04501 -10.04389 -10.03187 -10.02969
  Beta  occ. eigenvalues --  -10.02064  -0.91148  -0.75504  -0.73068  -0.67130
  Beta  occ. eigenvalues --   -0.63997  -0.58905  -0.51049  -0.47802  -0.46746
  Beta  occ. eigenvalues --   -0.39064  -0.37588  -0.34833  -0.31518  -0.30990
  Beta  occ. eigenvalues --   -0.30344  -0.28472  -0.25343  -0.23222  -0.22680
  Beta  occ. eigenvalues --   -0.21647  -0.18465  -0.17597  -0.16122  -0.15694
  Beta  occ. eigenvalues --   -0.10667  -0.06166
  Beta virt. eigenvalues --    0.08805   0.09882   0.11131   0.11395   0.11785
  Beta virt. eigenvalues --    0.12375   0.13150   0.15717   0.15725   0.16634
  Beta virt. eigenvalues --    0.16943   0.17153   0.17203   0.17674   0.18961

 Mulliken charges and spin densities:
               1          2
     1  C   -0.334449   0.331355
     2  C   -0.045950  -0.024605
     3  C    1.440207   0.071058
     4  C   -0.227756   0.654584
     5  N    0.359231  -0.018688
     6  C   -0.070707  -0.071357
     7  C   -0.202693   0.005825
     8  C   -0.323768   0.111988
     9  N   -0.157258  -0.027921
    10  C   -1.769401  -0.039373
    11  N   -0.326040   0.081548
    12  H    0.115509  -0.022613
    13  H    0.147939   0.000392
    14  H    0.171309  -0.044688
    15  H    0.121971   0.001465
    16  H    0.101856  -0.008969
 Sum of Mulliken charges =  -1.00000   1.00000

 Dipole moment (field-independent basis, Debye):
    X=              4.8432    Y=              2.7489    Z=             -0.0000  Tot=              5.5689
 Quadrupole moment (field-independent basis, Debye-Ang):
   XX=           -109.1574   YY=            -73.9976   ZZ=            -72.4618
   XY=             -2.0790   XZ=              0.0003   YZ=              0.0001

 Summary of Natural Population Analysis:

                                       Natural Population
                Natural  -----------------------------------------------
    Atom  No    Charge         Core      Valence    Rydberg      Total
 -----------------------------------------------------------------------
      C    1   -0.06921      0.99953     2.06110    0.00858     3.06921
      C    2   -0.08243      0.99955     2.07476    0.00812     3.08243
      C    3   -0.12510      0.99943     2.11443    0.01123     3.12510
      C    4    0.19348      0.99953     1.79522    0.01177     2.80652
      N    5   -0.07930      0.99960     2.56661    0.01308     3.57930
      C    6    0.08460      0.99955     1.90437    0.01147     2.91540
      C    7   -0.18780      0.99952     2.17986    0.00842     3.18780
      C    8    0.01455      0.99965     1.97154    0.01426     2.98545
      N    9   -0.18188      0.99974     2.66893    0.01321     3.68188
      C   10    0.16352      0.99964     1.81895    0.01789     2.83648
      N   11   -0.20119      0.99979     2.68996    0.01145     3.70119
      H   12    0.09288      0.00000     0.40584    0.00128     0.40712
      H   13    0.09673      0.00000     0.40238    0.00089     0.40327
      H   14    0.09380      0.00000     0.40551    0.00069     0.40620
      H   15    0.10053      0.00000     0.39869    0.00078     0.39947
      H   16    0.08682      0.00000     0.41235    0.00083     0.41318
 =======================================================================
   * Total *    0.00000     10.99555    25.87051    0.13394    37.00000

 Normal termination of Gaussian 16 at Tue Dec  8 21:05:09 2020.
