 Gaussian 16, Revision A.03,

 -----------------------------------------------------------
 # opt freq B3LYP/6-31G(d) empiricaldispersion=gd3bj scf=xqc
 -----------------------------------------------------------

 -------------------------------
 CID_61424221_JID_10245_neutraal
 -------------------------------
 Symbolic Z-matrix:
 Charge =  0 Multiplicity = 1

 SCF Done:  E(RB3LYP) =  -957.206704723     A.U. after   14 cycles
 SCF Done:  E(RB3LYP) =  -957.212105013     A.U. after   13 cycles
 SCF Done:  E(RB3LYP) =  -957.204782081     A.U. after   13 cycles
 SCF Done:  E(RB3LYP) =  -957.212492962     A.U. after   13 cycles
 SCF Done:  E(RB3LYP) =  -957.215415417     A.U. after   10 cycles
 SCF Done:  E(RB3LYP) =  -957.216516582     A.U. after   12 cycles
 SCF Done:  E(RB3LYP) =  -957.216174544     A.U. after   12 cycles
 SCF Done:  E(RB3LYP) =  -957.217937659     A.U. after   12 cycles
 SCF Done:  E(RB3LYP) =  -957.218697621     A.U. after   12 cycles
 SCF Done:  E(RB3LYP) =  -957.219472121     A.U. after   12 cycles
 SCF Done:  E(RB3LYP) =  -957.222691163     A.U. after    9 cycles
 SCF Done:  E(RB3LYP) =  -957.222691930     A.U. after    9 cycles
 SCF Done:  E(RB3LYP) =  -957.222692007     A.U. after    8 cycles
 SCF Done:  E(RB3LYP) =  -957.222692126     A.U. after    6 cycles
 Optimization completed.
    -- Stationary point found.
 Normal termination of Gaussian 16 at Sat Dec 12 15:55:52 2020.

 --------------------------------------------------------------------
 #N Geom=AllCheck Guess=TCheck SCRF=Check GenChk RB3LYP/6-31G(d) Freq
 --------------------------------------------------------------------

 Structure from the checkpoint file:  "JID_10245.chk"
 -------------------------------
 CID_61424221_JID_10245_neutraal
 -------------------------------
 Charge =  0 Multiplicity = 1

 SCF Done:  E(RB3LYP) =  -957.222692126     A.U. after    1 cycles

  Exact polarizability: 175.808   9.955 150.412  10.960   0.384 156.345
 Approx polarizability: 235.680  25.952 228.352  20.732  -3.301 256.818

                      1                      2                      3
                      A                      A                      A
 Frequencies --     17.2089                27.6154                41.4432
 Red. masses --      4.6773                 7.3244                 4.7483
 Frc consts  --      0.0008                 0.0033                 0.0048
 IR Inten    --      0.4633                 1.1006                 0.2701

                      4                      5                      6
                      A                      A                      A
 Frequencies --     64.1369                85.3031                97.8214
 Red. masses --      3.8884                 4.6594                 2.9862
 Frc consts  --      0.0094                 0.0200                 0.0168
 IR Inten    --      0.3471                 1.3935                 0.8688

                      7                      8                      9
                      A                      A                      A
 Frequencies --    110.9054               117.5001               128.2126
 Red. masses --      2.7474                 5.0031                 1.2528
 Frc consts  --      0.0199                 0.0407                 0.0121
 IR Inten    --      1.8380                 3.0630                 0.1900

                     10                     11                     12
                      A                      A                      A
 Frequencies --    139.1081               165.0651               199.1121
 Red. masses --      2.7128                 3.1939                 3.3484
 Frc consts  --      0.0309                 0.0513                 0.0782
 IR Inten    --      1.1526                 0.9227                 0.3627

                     13                     14                     15
                      A                      A                      A
 Frequencies --    201.5178               205.0937               227.3331
 Red. masses --      2.1380                 1.5790                 3.2230
 Frc consts  --      0.0512                 0.0391                 0.0981
 IR Inten    --      0.5940                 0.8487                 1.3730

                     16                     17                     18
                      A                      A                      A
 Frequencies --    244.0356               248.6029               254.1145
 Red. masses --      2.4863                 2.2237                 3.3786
 Frc consts  --      0.0872                 0.0810                 0.1285
 IR Inten    --      1.4878                 6.6706                 3.7225

                     19                     20                     21
                      A                      A                      A
 Frequencies --    278.8593               294.7088               317.9207
 Red. masses --      1.3609                 2.5936                 2.8424
 Frc consts  --      0.0623                 0.1327                 0.1693
 IR Inten    --      0.2601                 0.3672                 3.4643

                     22                     23                     24
                      A                      A                      A
 Frequencies --    328.9700               337.2816               376.2351
 Red. masses --      2.3565                 1.9558                 2.5816
 Frc consts  --      0.1503                 0.1311                 0.2153
 IR Inten    --      2.0488                 0.8837                 0.2971

                     25                     26                     27
                      A                      A                      A
 Frequencies --    391.7507               415.6409               425.0850
 Red. masses --      2.6238                 3.4683                 3.0952
 Frc consts  --      0.2372                 0.3530                 0.3295
 IR Inten    --      4.7998                 9.3200                 3.8206

                     28                     29                     30
                      A                      A                      A
 Frequencies --    442.9616               464.5073               553.5369
 Red. masses --      2.8515                 3.2986                 1.9371
 Frc consts  --      0.3297                 0.4193                 0.3497
 IR Inten    --      3.9109                 2.7664                58.2483

                     31                     32                     33
                      A                      A                      A
 Frequencies --    592.4290               621.1388               621.8929
 Red. masses --      2.9755                 3.2637                 2.8650
 Frc consts  --      0.6153                 0.7419                 0.6528
 IR Inten    --     26.4585                17.3708                20.0306

                     34                     35                     36
                      A                      A                      A
 Frequencies --    637.2494               645.3835               676.3745
 Red. masses --      4.1914                 1.4971                 3.8160
 Frc consts  --      1.0028                 0.3674                 1.0286
 IR Inten    --     16.2685                74.0464                15.3696

                     37                     38                     39
                      A                      A                      A
 Frequencies --    688.4238               729.5294               737.1938
 Red. masses --      3.4336                 1.3691                 2.1181
 Frc consts  --      0.9588                 0.4293                 0.6782
 IR Inten    --     23.2676                34.8928                20.5623

                     40                     41                     42
                      A                      A                      A
 Frequencies --    758.6166               787.2443               789.3681
 Red. masses --      3.3670                 3.9366                 4.3426
 Frc consts  --      1.1417                 1.4374                 1.5943
 IR Inten    --      4.0022                40.8081                30.6593

                     43                     44                     45
                      A                      A                      A
 Frequencies --    801.6178               826.5243               836.3319
 Red. masses --      4.4290                 1.6149                 1.3362
 Frc consts  --      1.6768                 0.6500                 0.5507
 IR Inten    --      8.0201                 1.9318                 5.1204

                     46                     47                     48
                      A                      A                      A
 Frequencies --    859.7867               907.9510               913.9477
 Red. masses --      2.9608                 1.5670                 4.8251
 Frc consts  --      1.2896                 0.7611                 2.3746
 IR Inten    --      9.2534                 2.0727                11.4733

                     49                     50                     51
                      A                      A                      A
 Frequencies --    935.0871               942.4988               979.4173
 Red. masses --      2.3720                 2.2069                 1.7334
 Frc consts  --      1.2220                 1.1550                 0.9797
 IR Inten    --      9.3001                 1.6476                 5.8521

                     52                     53                     54
                      A                      A                      A
 Frequencies --   1005.8312              1028.4696              1069.7684
 Red. masses --      1.9044                 2.0326                 1.8306
 Frc consts  --      1.1351                 1.2667                 1.2343
 IR Inten    --      8.3892                 3.4050                24.2919

                     55                     56                     57
                      A                      A                      A
 Frequencies --   1078.3682              1088.2718              1093.2916
 Red. masses --      1.7010                 1.5309                 2.3675
 Frc consts  --      1.1655                 1.0682                 1.6673
 IR Inten    --      2.7220                15.8922                 2.9593

                     58                     59                     60
                      A                      A                      A
 Frequencies --   1097.8722              1134.4841              1145.4354
 Red. masses --      1.5487                 2.0922                 3.1795
 Frc consts  --      1.0998                 1.5866                 2.4579
 IR Inten    --      3.0486                16.7275               250.6651

                     61                     62                     63
                      A                      A                      A
 Frequencies --   1167.0152              1179.0650              1183.4305
 Red. masses --      1.2913                 2.3000                 2.3318
 Frc consts  --      1.0362                 1.8839                 1.9241
 IR Inten    --      1.4035                11.3461                 7.0385

                     64                     65                     66
                      A                      A                      A
 Frequencies --   1196.4663              1222.6655              1240.9763
 Red. masses --      2.0623                 2.0942                 2.9892
 Frc consts  --      1.7394                 1.8445                 2.7123
 IR Inten    --     68.1782                27.9704                51.7588

                     67                     68                     69
                      A                      A                      A
 Frequencies --   1259.9772              1269.1467              1294.7211
 Red. masses --      3.3198                 3.5212                 2.2557
 Frc consts  --      3.1051                 3.3417                 2.2278
 IR Inten    --     14.0439                15.9136                 9.1241

                     70                     71                     72
                      A                      A                      A
 Frequencies --   1308.8142              1345.4400              1354.6962
 Red. masses --      1.2529                 1.2950                 1.8938
 Frc consts  --      1.2645                 1.3812                 2.0478
 IR Inten    --      1.2859                27.3220                90.4592

                     73                     74                     75
                      A                      A                      A
 Frequencies --   1364.0509              1394.9162              1407.0752
 Red. masses --      2.1857                 1.4466                 1.3279
 Frc consts  --      2.3961                 1.6584                 1.5490
 IR Inten    --      6.8188                70.4037                11.6250

                     76                     77                     78
                      A                      A                      A
 Frequencies --   1410.0681              1429.7964              1438.8807
 Red. masses --      1.3322                 1.2542                 1.6219
 Frc consts  --      1.5606                 1.5107                 1.9785
 IR Inten    --      1.2178                 7.4690                39.7489

                     79                     80                     81
                      A                      A                      A
 Frequencies --   1442.3116              1452.7672              1461.0971
 Red. masses --      1.7347                 1.2896                 2.6264
 Frc consts  --      2.1262                 1.6036                 3.3035
 IR Inten    --    101.1875                10.0462                 6.2836

                     82                     83                     84
                      A                      A                      A
 Frequencies --   1492.0832              1500.9323              1510.2700
 Red. masses --      1.2513                 1.1828                 1.1369
 Frc consts  --      1.6413                 1.5700                 1.5279
 IR Inten    --      7.2524                 0.8155                56.0034

                     85                     86                     87
                      A                      A                      A
 Frequencies --   1512.8248              1514.3803              1521.1212
 Red. masses --      1.1579                 1.0770                 1.0779
 Frc consts  --      1.5613                 1.4552                 1.4695
 IR Inten    --     21.8390                 6.4917                 8.4253

                     88                     89                     90
                      A                      A                      A
 Frequencies --   1522.6459              1524.7362              1531.2433
 Red. masses --      1.0849                 1.0556                 1.0508
 Frc consts  --      1.4820                 1.4459                 1.4517
 IR Inten    --      9.5893                10.2319                 3.2687

                     91                     92                     93
                      A                      A                      A
 Frequencies --   1534.8795              1541.1014              1543.8086
 Red. masses --      1.0796                 1.0965                 1.0788
 Frc consts  --      1.4985                 1.5344                 1.5149
 IR Inten    --     18.8280                11.7382                 7.3859

                     94                     95                     96
                      A                      A                      A
 Frequencies --   1562.7453              1564.9672              1677.0527
 Red. masses --      1.4887                 2.0681                 7.0678
 Frc consts  --      2.1420                 2.9842                11.7119
 IR Inten    --     52.7996                34.6583                 8.2900

                     97                     98                     99
                      A                      A                      A
 Frequencies --   1752.6936              1841.4700              3013.2373
 Red. masses --      6.0287                 9.8554                 1.0541
 Frc consts  --     10.9115                19.6903                 5.6391
 IR Inten    --    315.6550               219.0179                47.6109

                    100                    101                    102
                      A                      A                      A
 Frequencies --   3040.2105              3043.9708              3062.9821
 Red. masses --      1.0607                 1.0442                 1.0462
 Frc consts  --      5.7762                 5.7007                 5.7830
 IR Inten    --     30.9189                38.4359                24.6914

                    103                    104                    105
                      A                      A                      A
 Frequencies --   3066.3889              3070.8729              3078.5561
 Red. masses --      1.0800                 1.0495                 1.0652
 Frc consts  --      5.9832                 5.8310                 5.9478
 IR Inten    --      8.2513                32.6779                22.1849

                    106                    107                    108
                      A                      A                      A
 Frequencies --   3100.0425              3102.2740              3107.2173
 Red. masses --      1.0845                 1.0613                 1.0945
 Frc consts  --      6.1406                 6.0179                 6.2263
 IR Inten    --     47.5473                13.1491                12.6052

                    109                    110                    111
                      A                      A                      A
 Frequencies --   3125.5558              3137.3586              3143.4588
 Red. masses --      1.0982                 1.1008                 1.1029
 Frc consts  --      6.3212                 6.3842                 6.4209
 IR Inten    --     39.0873                 6.5444                 7.2340

                    112                    113                    114
                      A                      A                      A
 Frequencies --   3144.8518              3156.4717              3160.1216
 Red. masses --      1.1031                 1.1033                 1.0998
 Frc consts  --      6.4281                 6.4763                 6.4711
 IR Inten    --     12.8919                12.1346                 1.7766

                    115                    116                    117
                      A                      A                      A
 Frequencies --   3163.0898              3183.6939              3255.6956
 Red. masses --      1.0983                 1.0977                 1.0924
 Frc consts  --      6.4742                 6.5553                 6.8221
 IR Inten    --      9.9281                 0.9705                 3.1498

                    118                    119                    120
                      A                      A                      A
 Frequencies --   3299.3078              3595.2853              3676.7367
 Red. masses --      1.1033                 1.0752                 1.0640
 Frc consts  --      7.0760                 8.1889                 8.4746
 IR Inten    --      1.9203                20.9090                51.6927

 - Thermochemistry -
 -------------------
 Temperature   298.150 Kelvin.  Pressure   1.00000 Atm.
 Atom     1 has atomic number  6 and mass  12.00000

 Molecular mass:   282.15796 amu.
 Principal axes and moments of inertia in atomic units:
                           1         2         3
     Eigenvalues --  3140.468217468.363597838.91847
           X            0.99990  -0.01203   0.00724
           Y            0.01112   0.99343   0.11389
           Z           -0.00857  -0.11380   0.99347
 This molecule is an asymmetric top.
 Rotational symmetry number  1.
 Warning -- assumption of classical behavior for rotation
           may cause significant error
 Rotational temperatures (Kelvin)      0.02758     0.01160     0.01105
 Rotational constants (GHZ):           0.57467     0.24165     0.23023
 Zero-point vibrational energy     941647.1 (Joules/Mol)
                                  225.05906 (Kcal/Mol)
 Warning -- explicit consideration of  31 degrees of freedom as
           vibrations may cause significant error
 Vibrational temperatures:     24.76    39.73    59.63    92.28   122.73
          (Kelvin)            140.74   159.57   169.06   184.47   200.15
                              237.49   286.48   289.94   295.08   327.08
                              351.11   357.68   365.61   401.22   424.02
                              457.42   473.31   485.27   541.32   563.64
                              598.01   611.60   637.32   668.32   796.42
                              852.37   893.68   894.77   916.86   928.56
                              973.15   990.49  1049.63  1060.66  1091.48
                             1132.67  1135.72  1153.35  1189.18  1203.30
                             1237.04  1306.34  1314.97  1345.38  1356.05
                             1409.16  1447.17  1479.74  1539.16  1551.53
                             1565.78  1573.00  1579.59  1632.27  1648.03
                             1679.07  1696.41  1702.69  1721.45  1759.14
                             1785.49  1812.83  1826.02  1862.81  1883.09
                             1935.79  1949.11  1962.57  2006.97  2024.47
                             2028.77  2057.16  2070.23  2075.16  2090.21
                             2102.19  2146.77  2159.51  2172.94  2176.62
                             2178.86  2188.55  2190.75  2193.76  2203.12
                             2208.35  2217.30  2221.20  2248.44  2251.64
                             2412.90  2521.74  2649.46  4335.38  4374.18
                             4379.60  4406.95  4411.85  4418.30  4429.36
                             4460.27  4463.48  4470.59  4496.98  4513.96
                             4522.74  4524.74  4541.46  4546.71  4550.98
                             4580.63  4684.22  4746.97  5172.81  5290.00

 Zero-point correction=                           0.358654 (Hartree/Particle)
 Thermal correction to Energy=                    0.379933
 Thermal correction to Enthalpy=                  0.380877
 Thermal correction to Gibbs Free Energy=         0.307913
 Sum of electronic and zero-point Energies=           -956.864038
 Sum of electronic and thermal Energies=              -956.842759
 Sum of electronic and thermal Enthalpies=            -956.841815
 Sum of electronic and thermal Free Energies=         -956.914779

                     E (Thermal)             CV                S
                      KCal/Mol        Cal/Mol-Kelvin    Cal/Mol-Kelvin
 Total                  238.412             79.591            153.567
 Electronic               0.000              0.000              0.000
 Translational            0.889              2.981             42.810
 Rotational               0.889              2.981             33.574
 Vibrational            236.634             73.629             77.182
 Vibration     1          0.593              1.986              6.933
 Vibration     2          0.593              1.984              5.994
 Vibration     3          0.594              1.981              5.189
 Vibration     4          0.597              1.971              4.326
 Vibration     5          0.601              1.959              3.765
 Vibration     6          0.603              1.951              3.497
 Vibration     7          0.607              1.940              3.253
 Vibration     8          0.608              1.935              3.141
 Vibration     9          0.611              1.925              2.973
 Vibration    10          0.615              1.914              2.816
 Vibration    11          0.623              1.885              2.491
 Vibration    12          0.637              1.841              2.141
 Vibration    13          0.638              1.838              2.119
 Vibration    14          0.640              1.833              2.087
 Vibration    15          0.651              1.799              1.900
 Vibration    16          0.659              1.773              1.773
 Vibration    17          0.662              1.765              1.740
 Vibration    18          0.665              1.756              1.702
 Vibration    19          0.679              1.713              1.541
 Vibration    20          0.689              1.684              1.447
 Vibration    21          0.704              1.639              1.321
 Vibration    22          0.712              1.618              1.265
 Vibration    23          0.718              1.601              1.225
 Vibration    24          0.747              1.521              1.054
 Vibration    25          0.759              1.488              0.993
 Vibration    26          0.779              1.436              0.907
 Vibration    27          0.787              1.416              0.875
 Vibration    28          0.803              1.376              0.817
 Vibration    29          0.822              1.329              0.753
 Vibration    30          0.909              1.132              0.537
 Vibration    31          0.950              1.048              0.463

                           ! Non-Optimized Parameters !
 Normal termination of Gaussian 16 at Sat Dec 12 16:24:15 2020.

 ----------------------------------------------------------------------
 # B3LYP/6-311++G(d,p) empiricaldispersion=gd3bj scf=xqc pop=npa geom=c
 heck
 ----------------------------------------------------------------------

 ---------------------------------------
 CID_61424221_JID_10245_Energie_neutraal
 ---------------------------------------
 Structure from the checkpoint file:  "JID_10245.chk"
 Charge =  0 Multiplicity = 1

 SCF Done:  E(RB3LYP) =  -957.504847651     A.U. after   16 cycles
 Normal termination of Gaussian 16 at Sat Dec 12 16:37:19 2020.

 ----------------------------------------------------------------------
 # B3LYP/6-311++G(d,p) empiricaldispersion=gd3bj scf=xqc pop=npa geom=c
 heck
 ----------------------------------------------------------------------

 -------------------------------------
 CID_61424221_JID_10245_Energie_kation
 -------------------------------------
 Structure from the checkpoint file:  "JID_10245.chk"
 Charge =  1 Multiplicity = 2

 SCF Done:  E(UB3LYP) =  -957.214456602     A.U. after   33 cycles
 SCF Done:  E(UB3LYP) =  -957.214456602     a.u. after    1 cycles
 Normal termination of Gaussian 16 at Sat Dec 12 17:16:40 2020.
 Gaussian 16:  ES64L-G16RevA.03 25-Dec-2016

 ----------------------------------------------------------------------
 # B3LYP/6-311++G(d,p) empiricaldispersion=gd3bj scf=xqc pop=npa geom=c
 heck
 ----------------------------------------------------------------------

 ------------------------------------
 CID_61424221_JID_10245_Energie_anion
 ------------------------------------
 Structure from the checkpoint file:  "JID_10245.chk"
 Charge = -1 Multiplicity = 2

                         Standard orientation:
 ---------------------------------------------------------------------
 Center     Atomic      Atomic             Coordinates (Angstroms)
 Number     Number       Type             X           Y           Z
 ---------------------------------------------------------------------
      1          6           0        0.529186    2.317430    0.831203
      2          6           0       -0.410933    2.434837   -0.370886
      3          6           0       -1.149489    1.154825   -0.798336
      4          6           0       -2.140021    0.530728    0.222503
      5          6           0       -2.973890    1.627133    0.928750
      6          6           0       -3.231243   -0.329966   -0.458012
      7          8           0       -3.829394   -1.239874    0.068502
      8          8           0       -3.552430    0.106049   -1.703075
      9          7           0       -1.493754   -0.254944    1.288559
     10          6           0       -0.228259   -0.847124    1.275969
     11          8           0        0.536433   -0.680076    2.228120
     12          7           0        0.105706   -1.635446    0.200929
     13          6           0       -0.866380   -2.259863   -0.679630
     14          6           0        1.528318   -1.978363    0.061708
     15          6           0        2.334495   -0.859173   -0.527389
     16          6           0        3.220800   -0.052102    0.131553
     17          8           0        3.713306    0.892990   -0.733495
     18          6           0        3.121978    0.686419   -1.947547
     19          6           0        2.271130   -0.370655   -1.881619
     20          6           0        3.706873    0.002102    1.536292
     21          1           0        0.005323    2.062542    1.756966
     22          1           0        1.054666    3.265359    0.993917
     23          1           0        1.277376    1.539005    0.668537
     24          1           0       -1.136068    3.241340   -0.202431
     25          1           0        0.181024    2.747768   -1.240621
     26          1           0       -1.715823    1.386985   -1.702867
     27          1           0       -0.408722    0.401410   -1.077654
     28          1           0       -3.510735    2.231891    0.192993
     29          1           0       -3.703047    1.165088    1.601601
     30          1           0       -2.321531    2.283871    1.509199
     31          1           0       -4.304460   -0.448449   -1.985540
     32          1           0       -1.625799    0.149190    2.206801
     33          1           0       -1.049746   -1.684105   -1.599247
     34          1           0       -0.496248   -3.247023   -0.972591
     35          1           0       -1.810386   -2.392650   -0.152797
     36          1           0        1.917570   -2.249047    1.045005
     37          1           0        1.582940   -2.864979   -0.577162
     38          1           0        3.417378    1.363288   -2.734301
     39          1           0        1.668790   -0.767136   -2.687962
     40          1           0        4.685582   -0.480812    1.654720
     41          1           0        3.809047    1.043643    1.858211
     42          1           0        2.980490   -0.484531    2.191050
 ---------------------------------------------------------------------

 SCF Done:  E(UB3LYP) =  -957.495235963     A.U. after   33 cycles
 SCF Done:  E(UB3LYP) =  -957.495235963     a.u. after    1 cycles

 The electronic state is 2-A.
 Alpha  occ. eigenvalues --  -19.10101 -19.07452 -19.02221 -18.99177 -14.25029
 Alpha  occ. eigenvalues --  -14.23740 -10.21296 -10.20356 -10.15205 -10.14090
 Alpha  occ. eigenvalues --  -10.13430 -10.12504 -10.10739 -10.08986 -10.08925
 Alpha  occ. eigenvalues --  -10.08817 -10.08420 -10.07548 -10.07472 -10.06093
 Alpha  occ. eigenvalues --   -1.02440  -1.01769  -0.95894  -0.92769  -0.85005
 Alpha  occ. eigenvalues --   -0.83053  -0.72940  -0.71374  -0.69564  -0.67240
 Alpha  occ. eigenvalues --   -0.64096  -0.61160  -0.60776  -0.59547  -0.57000
 Alpha  occ. eigenvalues --   -0.52149  -0.51352  -0.49506  -0.47243  -0.45683
 Alpha  occ. eigenvalues --   -0.43329  -0.42537  -0.41603  -0.40499  -0.39425
 Alpha  occ. eigenvalues --   -0.39183  -0.37764  -0.37156  -0.36413  -0.35905
 Alpha  occ. eigenvalues --   -0.34353  -0.34083  -0.33729  -0.32556  -0.32223
 Alpha  occ. eigenvalues --   -0.32082  -0.31816  -0.31568  -0.30989  -0.30675
 Alpha  occ. eigenvalues --   -0.30241  -0.29836  -0.29576  -0.29051  -0.27166
 Alpha  occ. eigenvalues --   -0.27006  -0.25063  -0.24589  -0.23787  -0.22995
 Alpha  occ. eigenvalues --   -0.19588  -0.18922  -0.18597  -0.16110  -0.15453
 Alpha  occ. eigenvalues --   -0.13893   0.04015
 Alpha virt. eigenvalues --    0.06221   0.06272   0.06835   0.07366   0.08071
 Alpha virt. eigenvalues --    0.08253   0.08430   0.08990   0.09342   0.09859
 Alpha virt. eigenvalues --    0.10201   0.10910   0.11142   0.11445   0.11734

  Beta  occ. eigenvalues --  -19.10100 -19.07387 -19.02205 -18.99175 -14.25027
  Beta  occ. eigenvalues --  -14.23739 -10.21292 -10.20354 -10.15197 -10.14089
  Beta  occ. eigenvalues --  -10.13421 -10.12495 -10.10711 -10.08961 -10.08921
  Beta  occ. eigenvalues --  -10.08817 -10.08405 -10.07536 -10.07459 -10.06087
  Beta  occ. eigenvalues --   -1.02437  -1.01694  -0.95890  -0.92702  -0.84998
  Beta  occ. eigenvalues --   -0.83043  -0.72930  -0.71349  -0.69553  -0.67216
  Beta  occ. eigenvalues --   -0.64073  -0.61127  -0.60740  -0.59531  -0.56942
  Beta  occ. eigenvalues --   -0.52091  -0.51308  -0.49477  -0.47213  -0.45662
  Beta  occ. eigenvalues --   -0.43296  -0.42505  -0.41573  -0.40473  -0.39397
  Beta  occ. eigenvalues --   -0.39154  -0.37754  -0.37121  -0.36391  -0.35886
  Beta  occ. eigenvalues --   -0.34329  -0.34053  -0.33705  -0.32543  -0.32200
  Beta  occ. eigenvalues --   -0.32067  -0.31795  -0.31547  -0.30966  -0.30660
  Beta  occ. eigenvalues --   -0.30223  -0.29814  -0.29556  -0.29020  -0.27149
  Beta  occ. eigenvalues --   -0.26992  -0.25041  -0.24564  -0.23765  -0.22955
  Beta  occ. eigenvalues --   -0.19579  -0.18888  -0.18574  -0.16103  -0.15444
  Beta  occ. eigenvalues --   -0.13887
  Beta virt. eigenvalues --    0.06076   0.06764   0.07099   0.07282   0.08024
  Beta virt. eigenvalues --    0.08198   0.08525   0.08602   0.09181   0.09825
  Beta virt. eigenvalues --    0.10127   0.10522   0.11054   0.11235   0.11640

 Mulliken charges and spin densities:
               1          2
     1  C   -0.686819   0.145381
     2  C   -0.653632   0.140113
     3  C    0.428795  -0.502957
     4  C   -0.794784   1.228044
     5  C    0.539385  -1.319810
     6  C    0.842495  -1.170770
     7  O   -0.262995   0.049974
     8  O   -0.211440   0.137463
     9  N   -0.164579   0.103625
    10  C   -0.286982   0.074723
    11  O   -0.305644   0.001514
    12  N    0.068280   0.009534
    13  C   -0.012656  -0.435684
    14  C   -0.686860  -0.285197
    15  C    0.617933   0.220524
    16  C   -0.508741   0.139015
    17  O    0.064969   0.005083
    18  C   -0.026265  -0.323790
    19  C    0.650357  -0.378379
    20  C   -0.298573  -0.395341
    21  H    0.082121   0.057909
    22  H   -0.067040   0.220935
    23  H    0.609532  -0.433604
    24  H    0.010346   0.125045
    25  H   -0.164790   0.321220
    26  H   -0.197251   0.465104
    27  H    1.674376  -1.407447
    28  H   -0.210090   0.394109
    29  H    0.124920   0.052981
    30  H    0.084196   0.085980
    31  H   -0.611603   0.911251
    32  H    0.270513   0.039821
    33  H   -0.194178   0.410984
    34  H   -0.618971   0.775171
    35  H    0.300186  -0.106654
    36  H    0.097463   0.089004
    37  H    0.121856   0.063686
    38  H   -0.392751   0.569520
    39  H   -0.630349   0.826040
    40  H    0.092691   0.065229
    41  H    0.121716   0.032593
    42  H    0.184862  -0.001944
 Sum of Mulliken charges =  -1.00000   1.00000

 Dipole moment (field-independent basis, Debye):
    X=              5.8515    Y=              0.9417    Z=              6.1060  Tot=              8.5095
 Quadrupole moment (field-independent basis, Debye-Ang):
   XX=           -198.3752   YY=           -164.4049   ZZ=           -174.8220
   XY=             -6.8095   XZ=            -11.6593   YZ=             -0.9791

 Summary of Natural Population Analysis:

                                       Natural Population
                Natural  -----------------------------------------------
    Atom  No    Charge         Core      Valence    Rydberg      Total
 -----------------------------------------------------------------------
      C    1   -0.28901      0.99965     2.28335    0.00602     3.28901
      C    2   -0.19021      0.99963     2.18243    0.00814     3.19021
      C    3   -0.20141      0.99958     2.19135    0.01048     3.20141
      C    4    0.02171      0.99951     1.96237    0.01640     2.97829
      C    5   -0.28706      0.99962     2.28070    0.00674     3.28706
      C    6    0.41253      0.99964     1.56006    0.02777     2.58747
      O    7   -0.30730      0.99986     3.30109    0.00634     4.30730
      O    8   -0.34557      0.99987     3.33778    0.00791     4.34557
      N    9   -0.33456      0.99965     2.82488    0.01003     3.83456
      C   10    0.41902      0.99964     1.55894    0.02240     2.58098
      O   11   -0.34730      0.99988     3.34272    0.00470     4.34730
      N   12   -0.26510      0.99964     2.75510    0.01036     3.76510
      C   13   -0.18279      0.99962     2.17474    0.00842     3.18279
      C   14   -0.08841      0.99957     2.07721    0.01163     3.08841
      C   15   -0.07314      0.99943     2.06339    0.01032     3.07314
      C   16    0.15696      0.99940     1.82908    0.01456     2.84304
      O   17   -0.23936      0.99986     3.23189    0.00761     4.23936
      C   18    0.06011      0.99951     1.92643    0.01395     2.93989
      C   19   -0.14383      0.99952     2.13465    0.00966     3.14383
      C   20   -0.31255      0.99962     2.30803    0.00490     3.31255
      H   21    0.09553      0.00000     0.40351    0.00096     0.40447
      H   22    0.09565      0.00000     0.40360    0.00075     0.40435
      H   23    0.10228      0.00000     0.39530    0.00243     0.39772
      H   24    0.09229      0.00000     0.40659    0.00112     0.40771
      H   25    0.10093      0.00000     0.39786    0.00121     0.39907
      H   26    0.11568      0.00000     0.38182    0.00250     0.38432
      H   27    0.10539      0.00000     0.39105    0.00356     0.39461
      H   28    0.11282      0.00000     0.38613    0.00105     0.38718
      H   29    0.10662      0.00000     0.39250    0.00087     0.39338
      H   30    0.10463      0.00000     0.39449    0.00088     0.39537
      H   31    0.24831      0.00000     0.22494    0.02675     0.25169
      H   32    0.19187      0.00000     0.30612    0.00200     0.30813
      H   33    0.09443      0.00000     0.40353    0.00203     0.40557
      H   34    0.09877      0.00000     0.40008    0.00114     0.40123
      H   35    0.11452      0.00000     0.38394    0.00153     0.38548
      H   36    0.11132      0.00000     0.38760    0.00108     0.38868
      H   37    0.10184      0.00000     0.39705    0.00111     0.39816
      H   38    0.09640      0.00000     0.40240    0.00120     0.40360
      H   39    0.11336      0.00000     0.38505    0.00159     0.38664
      H   40    0.10129      0.00000     0.39772    0.00098     0.39871
      H   41    0.10841      0.00000     0.39063    0.00097     0.39159
      H   42    0.12492      0.00000     0.37426    0.00082     0.37508
 =======================================================================
   * Total *    0.00000     19.99270    55.73238    0.27492    76.00000

 Normal termination of Gaussian 16 at Sat Dec 12 17:55:33 2020.
