 Gaussian 16, Revision A.03,

 -----------------------------------------------------------
 # opt freq B3LYP/6-31G(d) empiricaldispersion=gd3bj scf=xqc
 -----------------------------------------------------------

 ------------------------------
 CID_63983206_JID_5817_neutraal
 ------------------------------
 Symbolic Z-matrix:
 Charge =  0 Multiplicity = 1

 SCF Done:  E(RB3LYP) =  -1395.29504996     A.U. after   14 cycles
 SCF Done:  E(RB3LYP) =  -1395.29996996     A.U. after   12 cycles
 SCF Done:  E(RB3LYP) =  -1395.30077061     A.U. after   12 cycles
 SCF Done:  E(RB3LYP) =  -1395.29994628     A.U. after   12 cycles
 SCF Done:  E(RB3LYP) =  -1395.30115910     A.U. after   12 cycles
 SCF Done:  E(RB3LYP) =  -1395.30133260     A.U. after   11 cycles
 SCF Done:  E(RB3LYP) =  -1395.30140945     A.U. after   11 cycles
 SCF Done:  E(RB3LYP) =  -1395.30141810     A.U. after   10 cycles
 SCF Done:  E(RB3LYP) =  -1395.30141958     A.U. after    9 cycles
 SCF Done:  E(RB3LYP) =  -1395.30141938     A.U. after    8 cycles
 SCF Done:  E(RB3LYP) =  -1395.30141947     A.U. after    7 cycles
 SCF Done:  E(RB3LYP) =  -1395.30141941     A.U. after    7 cycles
 Optimization completed.
    -- Stationary point found.
 Normal termination of Gaussian 16 at Thu Dec 10 17:10:35 2020.

 --------------------------------------------------------------------
 #N Geom=AllCheck Guess=TCheck SCRF=Check GenChk RB3LYP/6-31G(d) Freq
 --------------------------------------------------------------------

 Structure from the checkpoint file:  "JID_5817.chk"
 ------------------------------
 CID_63983206_JID_5817_neutraal
 ------------------------------
 Charge =  0 Multiplicity = 1

 SCF Done:  E(RB3LYP) =  -1395.30141941     A.U. after    1 cycles

  Exact polarizability: 173.344   3.678 140.729  -1.369  -0.209 128.610
 Approx polarizability: 220.248   5.638 219.171   3.518   7.832 198.296

                      1                      2                      3
                      A                      A                      A
 Frequencies --     17.2903                35.3549                41.1394
 Red. masses --      4.9134                 4.7127                 3.6438
 Frc consts  --      0.0009                 0.0035                 0.0036
 IR Inten    --      1.0134                 2.6338                 1.9628

                      4                      5                      6
                      A                      A                      A
 Frequencies --     74.1064                93.0770               104.3531
 Red. masses --      4.3438                 2.4884                 3.0461
 Frc consts  --      0.0141                 0.0127                 0.0195
 IR Inten    --      0.5328                 1.2649                 1.9625

                      7                      8                      9
                      A                      A                      A
 Frequencies --    128.8172               161.4511               197.5206
 Red. masses --      4.7274                 1.2126                 3.1668
 Frc consts  --      0.0462                 0.0186                 0.0728
 IR Inten    --      4.7534                 0.4827                 0.7472

                     10                     11                     12
                      A                      A                      A
 Frequencies --    206.8547               227.9729               247.8017
 Red. masses --      4.3994                 3.1581                 4.0533
 Frc consts  --      0.1109                 0.0967                 0.1466
 IR Inten    --      0.4866                 2.3084                 1.3754

                     13                     14                     15
                      A                      A                      A
 Frequencies --    261.6583               276.5020               297.8611
 Red. masses --      3.3221                 2.0506                 1.2094
 Frc consts  --      0.1340                 0.0924                 0.0632
 IR Inten    --      3.5074                 2.3439                 0.5901

                     16                     17                     18
                      A                      A                      A
 Frequencies --    335.0403               349.9374               362.1291
 Red. masses --      2.2191                 2.5608                 2.7382
 Frc consts  --      0.1468                 0.1848                 0.2116
 IR Inten    --      3.2612                 0.4446                 0.0412

                     19                     20                     21
                      A                      A                      A
 Frequencies --    388.2477               414.0544               419.4725
 Red. masses --      2.9688                 2.5939                 3.3188
 Frc consts  --      0.2637                 0.2620                 0.3441
 IR Inten    --      2.3247                 3.6543                23.0545

                     22                     23                     24
                      A                      A                      A
 Frequencies --    428.9214               487.8069               514.2619
 Red. masses --      2.6568                 3.1756                 6.3077
 Frc consts  --      0.2880                 0.4452                 0.9829
 IR Inten    --      4.9604                 3.3841                25.7991

                     25                     26                     27
                      A                      A                      A
 Frequencies --    566.3403               633.0252               674.7403
 Red. masses --      3.0098                 4.2856                 1.8349
 Frc consts  --      0.5688                 1.0118                 0.4922
 IR Inten    --      0.6540                 7.8835                27.0156

                     28                     29                     30
                      A                      A                      A
 Frequencies --    695.5280               705.3628               740.3450
 Red. masses --      2.3752                 3.8693                 2.6529
 Frc consts  --      0.6770                 1.1343                 0.8567
 IR Inten    --      3.7811                 7.7273                50.3751

                     31                     32                     33
                      A                      A                      A
 Frequencies --    767.1768               813.3413               834.7641
 Red. masses --      2.2836                 2.6605                 2.2686
 Frc consts  --      0.7919                 1.0370                 0.9314
 IR Inten    --     10.5220                 5.2922                40.4751

                     34                     35                     36
                      A                      A                      A
 Frequencies --    848.1749               864.6573               938.1492
 Red. masses --      2.3316                 1.6390                 1.8800
 Frc consts  --      0.9882                 0.7219                 0.9749
 IR Inten    --     17.6043                 0.3856                 0.4526

                     37                     38                     39
                      A                      A                      A
 Frequencies --    946.6436               952.7080               958.4905
 Red. masses --      1.9935                 1.8203                 1.8978
 Frc consts  --      1.0526                 0.9734                 1.0273
 IR Inten    --      1.0609                11.0957                 7.7973

                     40                     41                     42
                      A                      A                      A
 Frequencies --    971.3006               990.2248               993.4215
 Red. masses --      1.7081                 1.3584                 1.3925
 Frc consts  --      0.9494                 0.7847                 0.8097
 IR Inten    --      6.3365                 3.7008                 2.1773

                     43                     44                     45
                      A                      A                      A
 Frequencies --   1005.6326              1025.1572              1052.5889
 Red. masses --      1.5434                 1.9195                 1.7952
 Frc consts  --      0.9196                 1.1885                 1.1719
 IR Inten    --     19.1026                 2.8629                 3.0357

                     46                     47                     48
                      A                      A                      A
 Frequencies --   1092.9383              1104.7497              1112.4428
 Red. masses --      2.6687                 1.5145                 1.6620
 Frc consts  --      1.8782                 1.0890                 1.2118
 IR Inten    --    139.7553                 3.4881                18.3477

                     49                     50                     51
                      A                      A                      A
 Frequencies --   1118.1633              1148.1734              1156.9102
 Red. masses --      2.9145                 2.0655                 1.5621
 Frc consts  --      2.1469                 1.6043                 1.2318
 IR Inten    --     44.6132                 5.6968                15.9255

                     52                     53                     54
                      A                      A                      A
 Frequencies --   1175.4248              1181.3792              1226.3100
 Red. masses --      1.7904                 1.1353                 1.6698
 Frc consts  --      1.4574                 0.9336                 1.4795
 IR Inten    --     39.3132                11.8939                23.5346

                     55                     56                     57
                      A                      A                      A
 Frequencies --   1242.4118              1275.4926              1283.2140
 Red. masses --      1.3962                 1.2870                 1.6502
 Frc consts  --      1.2698                 1.2336                 1.6010
 IR Inten    --      0.1544                 1.5106                14.5064

                     58                     59                     60
                      A                      A                      A
 Frequencies --   1297.3316              1314.9331              1324.6600
 Red. masses --      1.2504                 2.6300                 1.3797
 Frc consts  --      1.2399                 2.6793                 1.4264
 IR Inten    --     31.1497               112.4046                 4.0584

                     61                     62                     63
                      A                      A                      A
 Frequencies --   1346.0592              1356.1392              1364.9270
 Red. masses --      1.4254                 1.5050                 1.4727
 Frc consts  --      1.5216                 1.6308                 1.6165
 IR Inten    --     24.3778                 3.8517                 4.8734

                     64                     65                     66
                      A                      A                      A
 Frequencies --   1383.3130              1392.0883              1392.7347
 Red. masses --      1.3418                 1.2790                 1.2568
 Frc consts  --      1.5128                 1.4603                 1.4363
 IR Inten    --     17.6939                 0.9556                 0.5035

                     67                     68                     69
                      A                      A                      A
 Frequencies --   1401.1562              1406.5622              1421.7578
 Red. masses --      1.3904                 1.4607                 1.3118
 Frc consts  --      1.6083                 1.7027                 1.5623
 IR Inten    --      6.1942                13.8098                 0.5654

                     70                     71                     72
                      A                      A                      A
 Frequencies --   1440.1684              1483.2582              1489.8358
 Red. masses --      1.3020                 1.0922                 1.1099
 Frc consts  --      1.5910                 1.4158                 1.4514
 IR Inten    --     10.5192                 5.3714                15.7266

                     73                     74                     75
                      A                      A                      A
 Frequencies --   1494.0079              1498.7105              1501.8860
 Red. masses --      1.0873                 1.0553                 1.0902
 Frc consts  --      1.4299                 1.3965                 1.4488
 IR Inten    --      1.3073                 7.5978                12.4048

                     76                     77                     78
                      A                      A                      A
 Frequencies --   1515.8823              1519.0924              1524.0088
 Red. masses --      1.0542                 1.0901                 1.1528
 Frc consts  --      1.4272                 1.4822                 1.5775
 IR Inten    --     17.7394                 4.4041                33.2921

                     79                     80                     81
                      A                      A                      A
 Frequencies --   1529.7743              1539.5492              1551.9239
 Red. masses --      1.0550                 1.0925                 1.0627
 Frc consts  --      1.4547                 1.5257                 1.5080
 IR Inten    --      8.1987                28.2496                 9.8729

                     82                     83                     84
                      A                      A                      A
 Frequencies --   2950.4456              3039.3698              3043.2001
 Red. masses --      1.0722                 1.0664                 1.0560
 Frc consts  --      5.4993                 5.8040                 5.7623
 IR Inten    --     62.8747                11.6362                23.7774

                     85                     86                     87
                      A                      A                      A
 Frequencies --   3051.0937              3058.0517              3062.5399
 Red. masses --      1.0832                 1.0858                 1.0313
 Frc consts  --      5.9413                 5.9828                 5.6988
 IR Inten    --      4.1197                32.0849                21.5981

                     88                     89                     90
                      A                      A                      A
 Frequencies --   3070.2882              3071.4548              3077.5381
 Red. masses --      1.0615                 1.0609                 1.0630
 Frc consts  --      5.8956                 5.8970                 5.9319
 IR Inten    --     26.4790                23.7261                30.0967

                     91                     92                     93
                      A                      A                      A
 Frequencies --   3083.9009              3088.4078              3101.4999
 Red. masses --      1.0611                 1.0602                 1.1018
 Frc consts  --      5.9456                 5.9578                 6.2443
 IR Inten    --      1.1931                 3.9585                39.0277

                     94                     95                     96
                      A                      A                      A
 Frequencies --   3111.5978              3121.1413              3125.2133
 Red. masses --      1.1024                 1.1043                 1.1035
 Frc consts  --      6.2887                 6.3383                 6.3499
 IR Inten    --     13.7201                10.8375                12.9093

                     97                     98                     99
                      A                      A                      A
 Frequencies --   3134.5298              3141.8381              3143.9863
 Red. masses --      1.0986                 1.1055                 1.1061
 Frc consts  --      6.3599                 6.4297                 6.4415
 IR Inten    --     24.0119                 0.5955                14.8637

                    100                    101                    102
                      A                      A                      A
 Frequencies --   3144.0888              3156.1688              3515.7874
 Red. masses --      1.1067                 1.1047                 1.0724
 Frc consts  --      6.4460                 6.4834                 7.8098
 IR Inten    --     11.1995                 8.7281                 0.9014

 - Thermochemistry -
 -------------------
 Temperature   298.150 Kelvin.  Pressure   1.00000 Atm.
 Atom     1 has atomic number  6 and mass  12.00000

 Molecular mass:   251.10137 amu.
 Principal axes and moments of inertia in atomic units:
                           1         2         3
     Eigenvalues --  1683.11514********************
           X            0.99990   0.01333   0.00389
           Y           -0.01301   0.99734  -0.07166
           Z           -0.00483   0.07160   0.99742
 This molecule is an asymmetric top.
 Rotational symmetry number  1.
 Warning -- assumption of classical behavior for rotation
           may cause significant error
 Rotational temperatures (Kelvin)      0.05146     0.00857     0.00835
 Rotational constants (GHZ):           1.07226     0.17863     0.17395
 Zero-point vibrational energy     825117.8 (Joules/Mol)
                                  197.20788 (Kcal/Mol)
 Warning -- explicit consideration of  25 degrees of freedom as
           vibrations may cause significant error
 Vibrational temperatures:     24.88    50.87    59.19   106.62   133.92
          (Kelvin)            150.14   185.34   232.29   284.19   297.62
                              328.00   356.53   376.47   397.82   428.56
                              482.05   503.48   521.02   558.60   595.73
                              603.53   617.12   701.85   739.91   814.84
                              910.78   970.80  1000.71  1014.86  1065.19
                             1103.80  1170.22  1201.04  1220.33  1244.05
                             1349.79  1362.01  1370.73  1379.05  1397.48
                             1424.71  1429.31  1446.88  1474.97  1514.44
                             1572.49  1589.49  1600.56  1608.79  1651.97
                             1664.54  1691.17  1699.74  1764.39  1787.55
                             1835.15  1846.26  1866.57  1891.90  1905.89
                             1936.68  1951.18  1963.83  1990.28  2002.90
                             2003.83  2015.95  2023.73  2045.59  2072.08
                             2134.08  2143.54  2149.54  2156.31  2160.88
                             2181.02  2185.64  2192.71  2201.00  2215.07
                             2232.87  4245.03  4372.98  4378.49  4389.84
                             4399.85  4406.31  4417.46  4419.14  4427.89
                             4437.05  4443.53  4462.37  4476.90  4490.63
                             4496.48  4509.89  4520.40  4523.49  4523.64
                             4541.02  5058.43

 Zero-point correction=                           0.314271 (Hartree/Particle)
 Thermal correction to Energy=                    0.331395
 Thermal correction to Enthalpy=                  0.332339
 Thermal correction to Gibbs Free Energy=         0.267644
 Sum of electronic and zero-point Energies=          -1394.987149
 Sum of electronic and thermal Energies=             -1394.970024
 Sum of electronic and thermal Enthalpies=           -1394.969080
 Sum of electronic and thermal Free Energies=        -1395.033775

                     E (Thermal)             CV                S
                      KCal/Mol        Cal/Mol-Kelvin    Cal/Mol-Kelvin
 Total                  207.953             64.358            136.162
 Electronic               0.000              0.000              0.000
 Translational            0.889              2.981             42.462
 Rotational               0.889              2.981             33.533
 Vibrational            206.176             58.396             60.166
 Vibration     1          0.593              1.986              6.923
 Vibration     2          0.594              1.982              5.504
 Vibration     3          0.594              1.981              5.203
 Vibration     4          0.599              1.966              4.041
 Vibration     5          0.602              1.954              3.594
 Vibration     6          0.605              1.946              3.371
 Vibration     7          0.611              1.924              2.964
 Vibration     8          0.622              1.890              2.533
 Vibration     9          0.637              1.843              2.156
 Vibration    10          0.641              1.830              2.071
 Vibration    11          0.651              1.798              1.895
 Vibration    12          0.661              1.766              1.746
 Vibration    13          0.669              1.743              1.651
 Vibration    14          0.678              1.717              1.555
 Vibration    15          0.691              1.678              1.429
 Vibration    16          0.716              1.606              1.236
 Vibration    17          0.727              1.575              1.166
 Vibration    18          0.736              1.550              1.113
 Vibration    19          0.756              1.495              1.007
 Vibration    20          0.778              1.440              0.912
 Vibration    21          0.782              1.428              0.894
 Vibration    22          0.790              1.407              0.862
 Vibration    23          0.844              1.277              0.689
 Vibration    24          0.869              1.218              0.623
 Vibration    25          0.922              1.104              0.511

 Optimization completed.
    -- Stationary point found.
 Normal termination of Gaussian 16 at Thu Dec 10 17:22:36 2020.

 ----------------------------------------------------------------------
 # B3LYP/6-311++G(d,p) empiricaldispersion=gd3bj scf=xqc pop=npa geom=c
 heck
 ----------------------------------------------------------------------

 --------------------------------------
 CID_63983206_JID_5817_Energie_neutraal
 --------------------------------------
 Structure from the checkpoint file:  "JID_5817.chk"
 Charge =  0 Multiplicity = 1

 SCF Done:  E(RB3LYP) =  -1395.53016242     A.U. after   14 cycles
 Normal termination of Gaussian 16 at Thu Dec 10 17:28:01 2020.

 ----------------------------------------------------------------------
 # B3LYP/6-311++G(d,p) empiricaldispersion=gd3bj scf=xqc pop=npa geom=c
 heck
 ----------------------------------------------------------------------

 ------------------------------------
 CID_63983206_JID_5817_Energie_kation
 ------------------------------------
 Structure from the checkpoint file:  "JID_5817.chk"
 Charge =  1 Multiplicity = 2

 SCF Done:  E(UB3LYP) =  -1395.23308107     A.U. after   20 cycles
 Normal termination of Gaussian 16 at Thu Dec 10 17:38:59 2020.
 Gaussian 16:  ES64L-G16RevA.03 25-Dec-2016

 ----------------------------------------------------------------------
 # B3LYP/6-311++G(d,p) empiricaldispersion=gd3bj scf=xqc pop=npa geom=c
 heck
 ----------------------------------------------------------------------

 -----------------------------------
 CID_63983206_JID_5817_Energie_anion
 -----------------------------------
 Structure from the checkpoint file:  "JID_5817.chk"
 Charge = -1 Multiplicity = 2

                         Standard orientation:
 ---------------------------------------------------------------------
 Center     Atomic      Atomic             Coordinates (Angstroms)
 Number     Number       Type             X           Y           Z
 ---------------------------------------------------------------------
      1          6           0        2.309524    0.329857    1.715329
      2          6           0        2.460816   -0.871479    0.775180
      3          6           0        1.096612   -1.490804    0.423529
      4          7           0        0.247264   -0.545915   -0.299439
      5          6           0       -0.972011   -1.109333   -0.881936
      6          6           0       -1.646745   -0.055300   -1.777382
      7          6           0       -2.208927    1.144205   -1.005779
      8         16           0       -3.451794    0.618965    0.207116
      9          8           0       -3.733780    1.736066    1.121715
     10          8           0       -4.539534   -0.046286   -0.532728
     11          6           0       -2.538076   -0.666404    1.105256
     12          6           0       -1.971375   -1.708519    0.137770
     13          6           0        3.228002   -0.534640   -0.512316
     14         16           0        4.938719    0.092523   -0.277487
     15          6           0        4.663576    1.898219   -0.336679
     16          1           0        1.829671    1.178148    1.211319
     17          1           0        3.287973    0.665597    2.069586
     18          1           0        1.706903    0.067897    2.593407
     19          1           0        3.027147   -1.644668    1.311764
     20          1           0        1.248771   -2.359374   -0.230467
     21          1           0        0.635817   -1.873668    1.352511
     22          1           0        0.019079    0.232252    0.313989
     23          1           0       -0.647186   -1.928376   -1.535693
     24          1           0       -2.465504   -0.522049   -2.334481
     25          1           0       -0.911131    0.312620   -2.499949
     26          1           0       -2.733404    1.844910   -1.662182
     27          1           0       -1.443254    1.701972   -0.458154
     28          1           0       -1.762094   -0.156622    1.685039
     29          1           0       -3.262255   -1.094710    1.804237
     30          1           0       -2.802129   -2.178444   -0.399397
     31          1           0       -1.482199   -2.495196    0.722532
     32          1           0        3.328318   -1.440040   -1.120628
     33          1           0        2.666448    0.188737   -1.110604
     34          1           0        4.172887    2.184112   -1.271814
     35          1           0        4.073014    2.252685    0.511551
     36          1           0        5.649627    2.368753   -0.300286
 ---------------------------------------------------------------------

 SCF Done:  E(UB3LYP) =  -1395.52456324     A.U. after   29 cycles

 The electronic state is 2-A.
 Alpha  occ. eigenvalues --  -88.95035 -88.74877 -19.02322 -19.02157 -14.21277
 Alpha  occ. eigenvalues --  -10.12258 -10.12083 -10.12062 -10.10584 -10.10396
 Alpha  occ. eigenvalues --  -10.10261 -10.09564 -10.09301 -10.09030 -10.07023
 Alpha  occ. eigenvalues --   -8.01575  -7.83476  -5.97838  -5.97722  -5.97668
 Alpha  occ. eigenvalues --   -5.79883  -5.79509  -5.78838  -1.01381  -0.91115
 Alpha  occ. eigenvalues --   -0.83237  -0.74888  -0.72419  -0.69450  -0.68246
 Alpha  occ. eigenvalues --   -0.64751  -0.60966  -0.58528  -0.56204  -0.53243
 Alpha  occ. eigenvalues --   -0.51798  -0.47575  -0.47157  -0.42471  -0.41065
 Alpha  occ. eigenvalues --   -0.40143  -0.39263  -0.37474  -0.37202  -0.36966
 Alpha  occ. eigenvalues --   -0.35792  -0.35160  -0.34104  -0.33479  -0.33213
 Alpha  occ. eigenvalues --   -0.32652  -0.32156  -0.31484  -0.29368  -0.28266
 Alpha  occ. eigenvalues --   -0.27267  -0.27018  -0.26597  -0.25963  -0.24558
 Alpha  occ. eigenvalues --   -0.24252  -0.23954  -0.22976  -0.21729  -0.21234
 Alpha  occ. eigenvalues --   -0.19337  -0.14702  -0.13361   0.03660
 Alpha virt. eigenvalues --    0.05638   0.06395   0.06849   0.07659   0.08597
 Alpha virt. eigenvalues --    0.08662   0.09164   0.09376   0.10061   0.10576
 Alpha virt. eigenvalues --    0.10754   0.11365   0.11867   0.12228   0.12622

  Beta  occ. eigenvalues --  -88.95035 -88.74874 -19.02320 -19.02148 -14.21258
  Beta  occ. eigenvalues --  -10.12233 -10.12071 -10.12031 -10.10555 -10.10365
  Beta  occ. eigenvalues --  -10.10248 -10.09546 -10.09276 -10.09025 -10.06988
  Beta  occ. eigenvalues --   -8.01574  -7.83473  -5.97837  -5.97722  -5.97669
  Beta  occ. eigenvalues --   -5.79881  -5.79498  -5.78836  -1.01371  -0.91104
  Beta  occ. eigenvalues --   -0.83203  -0.74853  -0.72393  -0.69405  -0.68213
  Beta  occ. eigenvalues --   -0.64706  -0.60919  -0.58460  -0.56139  -0.53208
  Beta  occ. eigenvalues --   -0.51745  -0.47529  -0.47099  -0.42423  -0.41038
  Beta  occ. eigenvalues --   -0.40100  -0.39222  -0.37441  -0.37178  -0.36933
  Beta  occ. eigenvalues --   -0.35759  -0.35124  -0.34071  -0.33442  -0.33173
  Beta  occ. eigenvalues --   -0.32609  -0.32113  -0.31449  -0.29333  -0.28234
  Beta  occ. eigenvalues --   -0.27230  -0.26989  -0.26550  -0.25930  -0.24522
  Beta  occ. eigenvalues --   -0.24221  -0.23931  -0.22969  -0.21691  -0.21222
  Beta  occ. eigenvalues --   -0.19313  -0.14673  -0.13340
  Beta virt. eigenvalues --    0.05849   0.06375   0.07156   0.07322   0.08043
  Beta virt. eigenvalues --    0.08885   0.09030   0.09527   0.09812   0.10373
  Beta virt. eigenvalues --    0.10789   0.10945   0.11551   0.12044   0.12318

 Mulliken charges and spin densities:
               1          2
     1  C   -0.270421  -0.603778
     2  C    0.905704  -0.511294
     3  C   -0.579068  -0.145893
     4  N    0.315393  -0.154162
     5  C   -0.511017   0.875021
     6  C    0.485835  -1.204353
     7  C   -1.173620   0.470523
     8  S    1.441211  -0.806371
     9  O   -0.138729   0.026626
    10  O   -0.211899  -0.000446
    11  C   -1.015665   0.198734
    12  C    0.761703  -1.301231
    13  C   -0.204520  -0.061072
    14  S    0.127715   0.070036
    15  C   -0.099995  -0.652734
    16  H   -0.219844   0.397646
    17  H   -0.029613   0.184206
    18  H   -0.080632   0.215777
    19  H    0.009759   0.158033
    20  H   -0.114516   0.285790
    21  H   -0.100705   0.240005
    22  H    0.996293  -0.888991
    23  H   -0.309666   0.537061
    24  H    0.069746   0.128488
    25  H   -0.299612   0.495399
    26  H    0.057548   0.200546
    27  H   -0.246060   0.476390
    28  H   -0.116834   0.363617
    29  H   -0.049416   0.302884
    30  H    0.007506   0.208021
    31  H   -0.524660   0.721314
    32  H   -0.025158   0.235212
    33  H    0.308043  -0.112692
    34  H   -0.166429   0.341018
    35  H   -0.024036   0.189989
    36  H    0.025656   0.120681
 Sum of Mulliken charges =  -1.00000   1.00000

 Dipole moment (field-independent basis, Debye):
    X=              1.8422    Y=              0.1140    Z=             -0.5962  Tot=              1.9396
 Quadrupole moment (field-independent basis, Debye-Ang):
   XX=           -203.0226   YY=           -154.0840   ZZ=           -150.0542
   XY=              1.2711   XZ=              4.7819   YZ=             -0.4692

 Summary of Natural Population Analysis:

                                       Natural Population
                Natural  -----------------------------------------------
    Atom  No    Charge         Core      Valence    Rydberg      Total
 -----------------------------------------------------------------------
      C    1   -0.29330      0.99965     2.28679    0.00686     3.29330
      C    2   -0.12079      0.99959     2.10836    0.01285     3.12079
      C    3   -0.08289      0.99960     2.07188    0.01141     3.08289
      N    4   -0.35136      0.99973     2.84008    0.01156     3.85136
      C    5   -0.00509      0.99958     1.99250    0.01300     3.00509
      C    6   -0.20283      0.99960     2.19220    0.01103     3.20283
      C    7   -0.29203      0.99958     2.28038    0.01207     3.29203
      S    8    1.01973      4.99925     1.88748    0.09355     6.98027
      O    9   -0.46844      0.99991     3.46333    0.00520     4.46844
      O   10   -0.47341      0.99991     3.46831    0.00519     4.47341
      C   11   -0.29273      0.99958     2.28018    0.01297     3.29273
      C   12   -0.21195      0.99960     2.20209    0.01025     3.21195
      C   13   -0.24576      0.99955     2.23688    0.00933     3.24576
      S   14    0.07759      4.99964     2.90440    0.01837     7.92241
      C   15   -0.34968      0.99962     2.34369    0.00637     3.34968
      H   16    0.09627      0.00000     0.40232    0.00141     0.40373
      H   17    0.10489      0.00000     0.39385    0.00126     0.39511
      H   18    0.10253      0.00000     0.39634    0.00113     0.39747
      H   19    0.09723      0.00000     0.40083    0.00194     0.40277
      H   20    0.09537      0.00000     0.40301    0.00162     0.40463
      H   21    0.08495      0.00000     0.41300    0.00205     0.41505
      H   22    0.17272      0.00000     0.32225    0.00503     0.32728
      H   23    0.10165      0.00000     0.39637    0.00198     0.39835
      H   24    0.10825      0.00000     0.39062    0.00114     0.39175
      H   25    0.11358      0.00000     0.38482    0.00160     0.38642
      H   26    0.12022      0.00000     0.37857    0.00122     0.37978
      H   27    0.11321      0.00000     0.38521    0.00158     0.38679
      H   28    0.11303      0.00000     0.38505    0.00192     0.38697
      H   29    0.12165      0.00000     0.37711    0.00124     0.37835
      H   30    0.10997      0.00000     0.38879    0.00124     0.39003
      H   31    0.11194      0.00000     0.38619    0.00187     0.38806
      H   32    0.10556      0.00000     0.39296    0.00149     0.39444
      H   33    0.11097      0.00000     0.38701    0.00202     0.38903
      H   34    0.10244      0.00000     0.39579    0.00177     0.39756
      H   35    0.10231      0.00000     0.39612    0.00157     0.39769
      H   36    0.10427      0.00000     0.39479    0.00094     0.39573
 =======================================================================
   * Total *   -0.00000     22.99439    44.72957    0.27604    68.00000

 Normal termination of Gaussian 16 at Thu Dec 10 17:54:33 2020.
