 Gaussian 16, Revision A.03,

 -----------------------------------------------------------
 # opt freq B3LYP/6-31G(d) empiricaldispersion=gd3bj scf=xqc
 -----------------------------------------------------------

 -----------------------------
 CID_53878547_JID_399_neutraal
 -----------------------------
 Symbolic Z-matrix:
 Charge =  0 Multiplicity = 1

 SCF Done:  E(RB3LYP) =  -800.339463890     A.U. after   14 cycles
 SCF Done:  E(RB3LYP) =  -800.341968490     A.U. after   14 cycles
 SCF Done:  E(RB3LYP) =  -800.341598283     A.U. after   14 cycles
 SCF Done:  E(RB3LYP) =  -800.342331294     A.U. after   12 cycles
 SCF Done:  E(RB3LYP) =  -800.343021065     A.U. after   12 cycles
 SCF Done:  E(RB3LYP) =  -800.343194969     A.U. after   11 cycles
 SCF Done:  E(RB3LYP) =  -800.343283404     A.U. after   11 cycles
 SCF Done:  E(RB3LYP) =  -800.343332062     A.U. after   11 cycles
 SCF Done:  E(RB3LYP) =  -800.343344437     A.U. after   11 cycles
 SCF Done:  E(RB3LYP) =  -800.343350515     A.U. after   10 cycles
 SCF Done:  E(RB3LYP) =  -800.343352421     A.U. after   10 cycles
 SCF Done:  E(RB3LYP) =  -800.343352665     A.U. after    8 cycles
 SCF Done:  E(RB3LYP) =  -800.343352688     A.U. after    8 cycles
 Optimization completed.
    -- Stationary point found.
 Normal termination of Gaussian 16 at Tue Dec  8 10:31:17 2020.

 --------------------------------------------------------------------
 #N Geom=AllCheck Guess=TCheck SCRF=Check GenChk RB3LYP/6-31G(d) Freq
 --------------------------------------------------------------------

 Structure from the checkpoint file:  "JID_399.chk"
 -----------------------------
 CID_53878547_JID_399_neutraal
 -----------------------------
 Charge =  0 Multiplicity = 1

 SCF Done:  E(RB3LYP) =  -800.343352688     A.U. after    1 cycles

  Exact polarizability: 144.146  -1.948 101.546   2.905   4.525  53.693
 Approx polarizability: 209.747  -4.346 169.915   9.609   9.551  84.066

                      1                      2                      3
                      A                      A                      A
 Frequencies --     19.1245                95.3708               121.5207
 Red. masses --      4.0640                 4.5705                 3.1279
 Frc consts  --      0.0009                 0.0245                 0.0272
 IR Inten    --      0.8722                 1.4372                 6.3659

                      4                      5                      6
                      A                      A                      A
 Frequencies --    188.5376               240.4594               267.6651
 Red. masses --      3.1922                 2.9617                 1.5032
 Frc consts  --      0.0669                 0.1009                 0.0635
 IR Inten    --      2.9358                 8.4806                34.4489

                      7                      8                      9
                      A                      A                      A
 Frequencies --    338.8142               363.1901               375.4181
 Red. masses --      5.0602                 1.1372                 7.8787
 Frc consts  --      0.3423                 0.0884                 0.6542
 IR Inten    --      3.1958               118.2431                 2.7738

                     10                     11                     12
                      A                      A                      A
 Frequencies --    410.4435               423.5030               444.1222
 Red. masses --      3.8834                 3.2387                 4.0513
 Frc consts  --      0.3855                 0.3422                 0.4708
 IR Inten    --      6.4240                 2.4730                16.0396

                     13                     14                     15
                      A                      A                      A
 Frequencies --    529.6829               639.9967               652.8539
 Red. masses --      2.5878                 6.1615                 6.9032
 Frc consts  --      0.4278                 1.4869                 1.7335
 IR Inten    --     16.4664                 9.9714                 0.8765

                     16                     17                     18
                      A                      A                      A
 Frequencies --    675.3290               714.6466               814.7451
 Red. masses --      4.8402                 4.1084                 1.3483
 Frc consts  --      1.3006                 1.2362                 0.5273
 IR Inten    --     16.8327                 0.7665                16.7233

                     19                     20                     21
                      A                      A                      A
 Frequencies --    838.4281               844.7617               859.5690
 Red. masses --      1.5222                 5.4661                 1.2760
 Frc consts  --      0.6304                 2.2982                 0.5555
 IR Inten    --     27.2593                12.9072               101.9888

                     22                     23                     24
                      A                      A                      A
 Frequencies --    950.9445               961.2128               964.8972
 Red. masses --      1.3508                 1.3359                 1.5121
 Frc consts  --      0.7197                 0.7272                 0.8294
 IR Inten    --     10.3932                 2.6837                 9.3187

                     25                     26                     27
                      A                      A                      A
 Frequencies --   1034.1722              1071.1699              1115.1660
 Red. masses --      3.2961                 2.7412                 3.0505
 Frc consts  --      2.0770                 1.8531                 2.2351
 IR Inten    --      2.8320                20.6108                 0.1945

                     28                     29                     30
                      A                      A                      A
 Frequencies --   1134.2177              1162.5724              1210.1688
 Red. masses --      1.4073                 1.1230                 1.1577
 Frc consts  --      1.0666                 0.8942                 0.9989
 IR Inten    --     13.6232                 3.4620                53.0143

                     31                     32                     33
                      A                      A                      A
 Frequencies --   1212.2665              1307.0259              1312.5288
 Red. masses --      1.3688                 1.7711                 1.8228
 Frc consts  --      1.1852                 1.7827                 1.8501
 IR Inten    --    148.8163               107.5568                26.8851

                     34                     35                     36
                      A                      A                      A
 Frequencies --   1333.0835              1379.5285              1390.2607
 Red. masses --      1.9680                 2.0609                 1.2998
 Frc consts  --      2.0606                 2.3108                 1.4802
 IR Inten    --      1.8631                35.7411                21.7704

                     37                     38                     39
                      A                      A                      A
 Frequencies --   1473.6333              1514.0724              1546.6209
 Red. masses --      2.7164                 1.0874                 2.4269
 Frc consts  --      3.4755                 1.4686                 3.4204
 IR Inten    --     34.1813                 3.6307               107.0756

                     40                     41                     42
                      A                      A                      A
 Frequencies --   1642.6157              1664.0930              1678.3953
 Red. masses --      5.8921                 5.7523                 1.0923
 Frc consts  --      9.3668                 9.3853                 1.8130
 IR Inten    --     23.8425                44.7438                31.2412

                     43                     44                     45
                      A                      A                      A
 Frequencies --   2993.7128              3113.7974              3165.4664
 Red. masses --      1.0704                 1.0935                 1.0898
 Frc consts  --      5.6522                 6.2469                 6.4337
 IR Inten    --     71.0767                13.6086                24.6171

                     46                     47                     48
                      A                      A                      A
 Frequencies --   3202.2557              3219.8429              3232.5340
 Red. masses --      1.0881                 1.0944                 1.0927
 Frc consts  --      6.5743                 6.6846                 6.7274
 IR Inten    --      3.7428                 9.0245                 4.0697

                     49                     50                     51
                      A                      A                      A
 Frequencies --   3456.2502              3551.1124              3751.2687
 Red. masses --      1.0495                 1.0928                 1.0659
 Frc consts  --      7.3869                 8.1192                 8.8373
 IR Inten    --      2.4557                 1.3128                44.7585

 - Thermochemistry -
 -------------------
 Temperature   298.150 Kelvin.  Pressure   1.00000 Atm.
 Atom     1 has atomic number  6 and mass  12.00000

 Molecular mass:   155.04049 amu.
 Principal axes and moments of inertia in atomic units:
                           1         2         3
     Eigenvalues --   658.326852924.403933427.00830
           X            0.99987   0.01404  -0.00738
           Y           -0.01389   0.99971   0.01972
           Z            0.00765  -0.01961   0.99978
 This molecule is an asymmetric top.
 Rotational symmetry number  1.
 Warning -- assumption of classical behavior for rotation
           may cause significant error
 Rotational temperatures (Kelvin)      0.13157     0.02962     0.02527
 Rotational constants (GHZ):           2.74141     0.61713     0.52662
 Zero-point vibrational energy     398374.8 (Joules/Mol)
                                   95.21387 (Kcal/Mol)
 Warning -- explicit consideration of  13 degrees of freedom as
           vibrations may cause significant error
 Vibrational temperatures:     27.52   137.22   174.84   271.26   345.97
          (Kelvin)            385.11   487.48   522.55   540.14   590.54
                              609.33   638.99   762.10   920.81   939.31
                              971.65  1028.22  1172.24  1206.31  1215.42
                             1236.73  1368.20  1382.97  1388.27  1487.94
                             1541.17  1604.48  1631.89  1672.68  1741.16
                             1744.18  1880.52  1888.44  1918.01  1984.83
                             2000.28  2120.23  2178.41  2225.24  2363.36
                             2394.26  2414.84  4307.29  4480.06  4554.40
                             4607.33  4632.64  4650.90  4972.77  5109.26
                             5397.24

 Zero-point correction=                           0.151733 (Hartree/Particle)
 Thermal correction to Energy=                    0.161688
 Thermal correction to Enthalpy=                  0.162632
 Thermal correction to Gibbs Free Energy=         0.115184
 Sum of electronic and zero-point Energies=           -800.191620
 Sum of electronic and thermal Energies=              -800.181665
 Sum of electronic and thermal Enthalpies=            -800.180721
 Sum of electronic and thermal Free Energies=         -800.228168

                     E (Thermal)             CV                S
                      KCal/Mol        Cal/Mol-Kelvin    Cal/Mol-Kelvin
 Total                  101.461             37.245             99.862
 Electronic               0.000              0.000              0.000
 Translational            0.889              2.981             41.025
 Rotational               0.889              2.981             30.268
 Vibrational             99.683             31.283             28.569
 Vibration     1          0.593              1.986              6.723
 Vibration     2          0.603              1.952              3.547
 Vibration     3          0.609              1.931              3.076
 Vibration     4          0.633              1.856              2.242
 Vibration     5          0.658              1.778              1.799
 Vibration     6          0.673              1.733              1.611
 Vibration     7          0.719              1.598              1.218
 Vibration     8          0.737              1.548              1.108
 Vibration     9          0.746              1.522              1.058
 Vibration    10          0.775              1.448              0.925
 Vibration    11          0.786              1.419              0.880
 Vibration    12          0.804              1.374              0.814
 Vibration    13          0.885              1.184              0.588

 Optimization completed.
    -- Stationary point found.
 Normal termination of Gaussian 16 at Tue Dec  8 10:37:06 2020.

 ----------------------------------------------------------------------
 # B3LYP/6-311++G(d,p) empiricaldispersion=gd3bj scf=xqc pop=npa geom=c
 heck
 ----------------------------------------------------------------------

 -------------------------------------
 CID_53878547_JID_399_Energie_neutraal
 -------------------------------------
 Structure from the checkpoint file:  "JID_399.chk"
 Charge =  0 Multiplicity = 1

 SCF Done:  E(RB3LYP) =  -800.497705574     A.U. after   15 cycles
 Normal termination of Gaussian 16 at Tue Dec  8 10:41:01 2020.

 ----------------------------------------------------------------------
 # B3LYP/6-311++G(d,p) empiricaldispersion=gd3bj scf=xqc pop=npa geom=c
 heck
 ----------------------------------------------------------------------

 -----------------------------------
 CID_53878547_JID_399_Energie_kation
 -----------------------------------
 Structure from the checkpoint file:  "JID_399.chk"
 Charge =  1 Multiplicity = 2

 SCF Done:  E(UB3LYP) =  -800.214137450     A.U. after   23 cycles
 Normal termination of Gaussian 16 at Tue Dec  8 10:48:44 2020.
 Gaussian 16:  ES64L-G16RevA.03 25-Dec-2016

 ----------------------------------------------------------------------
 # B3LYP/6-311++G(d,p) empiricaldispersion=gd3bj scf=xqc pop=npa geom=c
 heck
 ----------------------------------------------------------------------

 ----------------------------------
 CID_53878547_JID_399_Energie_anion
 ----------------------------------
 Structure from the checkpoint file:  "JID_399.chk"
 Charge = -1 Multiplicity = 2

                         Standard orientation:
 ---------------------------------------------------------------------
 Center     Atomic      Atomic             Coordinates (Angstroms)
 Number     Number       Type             X           Y           Z
 ---------------------------------------------------------------------
      1          6           0        2.100870    1.092681    0.253047
      2          6           0        0.758501    1.437966    0.134914
      3          6           0       -0.203502    0.475622   -0.201584
      4          6           0        0.200186   -0.848735   -0.412747
      5          6           0        1.539560   -1.203399   -0.267048
      6          6           0        2.494287   -0.234191    0.056990
      7          8           0        3.823195   -0.525546    0.196453
      8         16           0       -1.904438    0.995622   -0.398835
      9          6           0       -2.792965   -0.171744    0.704535
     10          7           0       -2.913242   -1.501681    0.117518
     11          1           0        2.851904    1.832415    0.510184
     12          1           0        0.449595    2.464077    0.309174
     13          1           0       -0.542917   -1.596621   -0.664271
     14          1           0        1.846066   -2.236709   -0.421220
     15          1           0        3.953529   -1.472414    0.033117
     16          1           0       -2.240545   -0.249683    1.645069
     17          1           0       -3.748692    0.336559    0.909814
     18          1           0       -3.379815   -2.126091    0.775546
     19          1           0       -3.492610   -1.454544   -0.718933
 ---------------------------------------------------------------------

 SCF Done:  E(UB3LYP) =  -800.485991850     A.U. after   30 cycles

 The electronic state is 2-A.
 Alpha  occ. eigenvalues --  -88.74105 -19.05142 -14.19464 -10.13705 -10.12128
 Alpha  occ. eigenvalues --  -10.09745 -10.08288 -10.07555 -10.07454 -10.07348
 Alpha  occ. eigenvalues --   -7.82737  -5.79128  -5.78751  -5.78128  -0.96224
 Alpha  occ. eigenvalues --   -0.79035  -0.76009  -0.67919  -0.65413  -0.61472
 Alpha  occ. eigenvalues --   -0.53506  -0.52333  -0.48480  -0.44745  -0.40131
 Alpha  occ. eigenvalues --   -0.38532  -0.36212  -0.35751  -0.33679  -0.32773
 Alpha  occ. eigenvalues --   -0.31854  -0.30984  -0.29132  -0.27258  -0.24674
 Alpha  occ. eigenvalues --   -0.24568  -0.21475  -0.16162  -0.15727  -0.14474
 Alpha  occ. eigenvalues --   -0.11273   0.04432
 Alpha virt. eigenvalues --    0.05941   0.07903   0.08164   0.08610   0.09020
 Alpha virt. eigenvalues --    0.09699   0.10135   0.11414   0.11748   0.13007
 Alpha virt. eigenvalues --    0.13681   0.14436   0.15915   0.15975   0.16180

  Beta  occ. eigenvalues --  -88.74103 -19.05085 -14.19406 -10.13694 -10.12092
  Beta  occ. eigenvalues --  -10.09744 -10.08281 -10.07551 -10.07439 -10.07323
  Beta  occ. eigenvalues --   -7.82735  -5.79127  -5.78745  -5.78126  -0.96114
  Beta  occ. eigenvalues --   -0.78946  -0.75977  -0.67869  -0.65381  -0.61396
  Beta  occ. eigenvalues --   -0.53407  -0.52286  -0.48425  -0.44664  -0.40078
  Beta  occ. eigenvalues --   -0.38483  -0.36119  -0.35689  -0.33637  -0.32732
  Beta  occ. eigenvalues --   -0.31798  -0.30919  -0.29086  -0.27215  -0.24633
  Beta  occ. eigenvalues --   -0.24535  -0.21436  -0.16128  -0.15685  -0.14422
  Beta  occ. eigenvalues --   -0.11235
  Beta virt. eigenvalues --    0.07211   0.07760   0.07947   0.08361   0.08949
  Beta virt. eigenvalues --    0.09615   0.10257   0.10496   0.11854   0.12227
  Beta virt. eigenvalues --    0.13145   0.13828   0.14814   0.15894   0.16087

 Mulliken charges and spin densities:
               1          2
     1  C    0.395054  -0.622364
     2  C   -0.701439   0.500089
     3  C    0.824608   0.583087
     4  C   -1.462773   0.656469
     5  C   -0.397506   0.276931
     6  C    1.934553  -2.326011
     7  O   -0.294303   0.055769
     8  S    0.008199  -0.360327
     9  C    0.808157  -1.494704
    10  N   -0.344813   0.070360
    11  H    0.141950   0.023659
    12  H    0.105100   0.065674
    13  H    0.499925  -0.216717
    14  H   -1.206566   1.375361
    15  H   -0.312347   0.598891
    16  H   -0.082281   0.281176
    17  H   -0.424216   0.591563
    18  H   -0.308491   0.549560
    19  H   -0.182812   0.391536
 Sum of Mulliken charges =  -1.00000   1.00000

 Dipole moment (field-independent basis, Debye):
    X=              0.8501    Y=              6.5729    Z=             -0.5433  Tot=              6.6499
 Quadrupole moment (field-independent basis, Debye-Ang):
   XX=           -151.2859   YY=           -105.4755   ZZ=            -89.0676
   XY=              6.6134   XZ=              5.4843   YZ=              1.5465

 Summary of Natural Population Analysis:

                                       Natural Population
                Natural  -----------------------------------------------
    Atom  No    Charge         Core      Valence    Rydberg      Total
 -----------------------------------------------------------------------
      C    1   -0.12904      0.99952     2.12046    0.00906     3.12904
      C    2   -0.09724      0.99951     2.08815    0.00958     3.09724
      C    3   -0.10857      0.99940     2.09610    0.01306     3.10857
      C    4   -0.09206      0.99950     2.08176    0.01080     3.09206
      C    5   -0.13383      0.99952     2.12373    0.01058     3.13383
      C    6    0.16044      0.99939     1.82609    0.01408     2.83956
      O    7   -0.34134      0.99988     3.33409    0.00738     4.34134
      S    8    0.09981      4.99955     2.88099    0.01965     7.90019
      C    9   -0.15056      0.99964     2.13429    0.01663     3.15056
      N   10   -0.42608      0.99976     2.91264    0.01367     3.92608
      H   11    0.10405      0.00000     0.39514    0.00081     0.39595
      H   12    0.10199      0.00000     0.39686    0.00115     0.39801
      H   13    0.11955      0.00000     0.37863    0.00183     0.38045
      H   14    0.10611      0.00000     0.39135    0.00254     0.39389
      H   15    0.24132      0.00000     0.24264    0.01604     0.25868
      H   16    0.09736      0.00000     0.40122    0.00143     0.40264
      H   17    0.08994      0.00000     0.40737    0.00269     0.41006
      H   18    0.18187      0.00000     0.31130    0.00683     0.31813
      H   19    0.17627      0.00000     0.32030    0.00343     0.32373
 =======================================================================
   * Total *    0.00000     13.99565    26.84312    0.16123    41.00000

 Normal termination of Gaussian 16 at Tue Dec  8 10:54:56 2020.
