 Gaussian 16, Revision A.03,

 -----------------------------------------------------------
 # opt freq B3LYP/6-31G(d) empiricaldispersion=gd3bj scf=xqc
 -----------------------------------------------------------

 ------------------------------
 CID_65615658_JID_9293_neutraal
 ------------------------------
 Symbolic Z-matrix:
 Charge =  0 Multiplicity = 1

 SCF Done:  E(RB3LYP) =  -891.758645586     A.U. after   15 cycles
 SCF Done:  E(RB3LYP) =  -891.766028389     A.U. after   12 cycles
 SCF Done:  E(RB3LYP) =  -891.768248473     A.U. after   12 cycles
 SCF Done:  E(RB3LYP) =  -891.770054417     A.U. after   12 cycles
 SCF Done:  E(RB3LYP) =  -891.771981175     A.U. after   13 cycles
 SCF Done:  E(RB3LYP) =  -891.773731237     A.U. after   13 cycles
 SCF Done:  E(RB3LYP) =  -891.775303395     A.U. after   13 cycles
 SCF Done:  E(RB3LYP) =  -891.776589329     A.U. after   13 cycles
 SCF Done:  E(RB3LYP) =  -891.777270570     A.U. after   12 cycles
 SCF Done:  E(RB3LYP) =  -891.777649933     A.U. after   12 cycles
 SCF Done:  E(RB3LYP) =  -891.779568017     A.U. after    9 cycles
 SCF Done:  E(RB3LYP) =  -891.779568181     A.U. after    8 cycles
 SCF Done:  E(RB3LYP) =  -891.779568202     A.U. after    7 cycles
 SCF Done:  E(RB3LYP) =  -891.779568206     A.U. after    6 cycles
 Optimization completed.
    -- Stationary point found.
 Normal termination of Gaussian 16 at Sat Dec 12 10:19:31 2020.

 --------------------------------------------------------------------
 #N Geom=AllCheck Guess=TCheck SCRF=Check GenChk RB3LYP/6-31G(d) Freq
 --------------------------------------------------------------------

 Structure from the checkpoint file:  "JID_9293.chk"
 ------------------------------
 CID_65615658_JID_9293_neutraal
 ------------------------------
 Charge =  0 Multiplicity = 1

 SCF Done:  E(RB3LYP) =  -891.779568206     A.U. after    1 cycles

  Exact polarizability: 166.866  -9.256 164.758  -3.000  -6.946 120.018
 Approx polarizability: 213.082 -11.785 272.855  -6.881 -17.620 189.920

                      1                      2                      3
                      A                      A                      A
 Frequencies --     18.2771                43.4062                46.8791
 Red. masses --      4.6650                 5.6122                 3.5885
 Frc consts  --      0.0009                 0.0062                 0.0046
 IR Inten    --      1.0389                 0.0115                 2.5100

                      4                      5                      6
                      A                      A                      A
 Frequencies --     60.8591                78.7387                90.1610
 Red. masses --      4.7265                 4.5031                 4.8396
 Frc consts  --      0.0103                 0.0164                 0.0232
 IR Inten    --      1.2446                 0.3944                 1.8650

                      7                      8                      9
                      A                      A                      A
 Frequencies --     98.1948               148.3783               172.7118
 Red. masses --      3.0716                 1.2642                 5.0571
 Frc consts  --      0.0175                 0.0164                 0.0889
 IR Inten    --      1.3600                 0.1438                 3.3686

                     10                     11                     12
                      A                      A                      A
 Frequencies --    190.4431               202.3495               232.1545
 Red. masses --      4.3456                 4.0263                 1.5184
 Frc consts  --      0.0929                 0.0971                 0.0482
 IR Inten    --      3.0955                 3.9789                 1.6322

                     13                     14                     15
                      A                      A                      A
 Frequencies --    233.7488               259.5891               279.2936
 Red. masses --      2.2084                 2.9912                 2.5413
 Frc consts  --      0.0711                 0.1188                 0.1168
 IR Inten    --      0.9077                 0.2108                 1.2215

                     16                     17                     18
                      A                      A                      A
 Frequencies --    317.5299               367.5336               374.5269
 Red. masses --      4.9443                 2.5142                 3.8441
 Frc consts  --      0.2937                 0.2001                 0.3177
 IR Inten    --      0.9130                 1.5712                 2.2802

                     19                     20                     21
                      A                      A                      A
 Frequencies --    407.6104               423.5030               430.5786
 Red. masses --      4.8882                 4.3699                 3.1014
 Frc consts  --      0.4785                 0.4618                 0.3388
 IR Inten    --     16.7773                 3.1738                 0.8413

                     22                     23                     24
                      A                      A                      A
 Frequencies --    442.2725               469.5013               538.6420
 Red. masses --      3.7081                 6.3906                 3.4314
 Frc consts  --      0.4273                 0.8300                 0.5866
 IR Inten    --     20.8641                 6.3921                 7.6133

                     25                     26                     27
                      A                      A                      A
 Frequencies --    583.0103               606.9669               664.3759
 Red. masses --      2.3453                 2.2691                 5.3375
 Frc consts  --      0.4697                 0.4925                 1.3881
 IR Inten    --     42.7648                41.0458                18.8860

                     28                     29                     30
                      A                      A                      A
 Frequencies --    689.2566               697.8471               727.0072
 Red. masses --      4.4197                 3.6749                 4.2902
 Frc consts  --      1.2371                 1.0544                 1.3360
 IR Inten    --     12.0189                 8.6900                25.4000

                     31                     32                     33
                      A                      A                      A
 Frequencies --    733.0816               770.8207               791.5653
 Red. masses --      4.5022                 2.6453                 1.6709
 Frc consts  --      1.4255                 0.9261                 0.6168
 IR Inten    --      8.0743                 3.0873                 5.9815

                     34                     35                     36
                      A                      A                      A
 Frequencies --    805.5635               813.0022               825.2639
 Red. masses --      2.7959                 3.7584                 1.9532
 Frc consts  --      1.0690                 1.4636                 0.7838
 IR Inten    --     15.5827                13.6457                 5.8337

                     37                     38                     39
                      A                      A                      A
 Frequencies --    854.2715               861.5519               890.4598
 Red. masses --      1.8391                 2.2959                 1.3762
 Frc consts  --      0.7908                 1.0041                 0.6429
 IR Inten    --     16.6380                 6.3799                 6.4062

                     40                     41                     42
                      A                      A                      A
 Frequencies --    924.8157               957.7968               994.3478
 Red. masses --      2.4404                 3.3896                 4.7087
 Frc consts  --      1.2298                 1.8321                 2.7430
 IR Inten    --      1.5052                 5.4850                 9.1635

                     43                     44                     45
                      A                      A                      A
 Frequencies --   1004.4080              1017.5341              1048.1956
 Red. masses --      3.3640                 2.7481                 2.2452
 Frc consts  --      1.9996                 1.6764                 1.4534
 IR Inten    --      1.4958                 9.0269                10.0453

                     46                     47                     48
                      A                      A                      A
 Frequencies --   1068.1961              1086.4219              1091.1778
 Red. masses --      1.2975                 2.8262                 1.6931
 Frc consts  --      0.8723                 1.9654                 1.1878
 IR Inten    --     11.3368                15.3885                 6.3100

                     49                     50                     51
                      A                      A                      A
 Frequencies --   1097.1692              1109.5739              1126.8529
 Red. masses --      1.4179                 2.0143                 2.1096
 Frc consts  --      1.0056                 1.4611                 1.5783
 IR Inten    --      0.8684                22.6159                13.1054

                     52                     53                     54
                      A                      A                      A
 Frequencies --   1143.4246              1166.6537              1168.3168
 Red. masses --      1.1334                 1.6674                 1.3239
 Frc consts  --      0.8730                 1.3371                 1.0647
 IR Inten    --      3.6603                20.0214                 6.1697

                     55                     56                     57
                      A                      A                      A
 Frequencies --   1170.9536              1215.3588              1219.7399
 Red. masses --      1.9921                 1.3834                 1.8186
 Frc consts  --      1.6093                 1.2040                 1.5942
 IR Inten    --     39.5454                 1.7544                 9.6994

                     58                     59                     60
                      A                      A                      A
 Frequencies --   1239.3676              1250.0369              1297.0772
 Red. masses --      3.2042                 1.9336                 1.8758
 Frc consts  --      2.8998                 1.7801                 1.8593
 IR Inten    --     16.6278                17.6156                41.8246

                     61                     62                     63
                      A                      A                      A
 Frequencies --   1317.8791              1318.7281              1320.9157
 Red. masses --      3.5379                 2.3349                 2.8815
 Frc consts  --      3.6203                 2.3923                 2.9622
 IR Inten    --      6.0703                69.4843                 9.3851

                     64                     65                     66
                      A                      A                      A
 Frequencies --   1343.3010              1352.1866              1374.1329
 Red. masses --      1.6351                 1.5426                 1.3902
 Frc consts  --      1.7384                 1.6618                 1.5466
 IR Inten    --    113.9323                 7.2941                 4.7250

                     67                     68                     69
                      A                      A                      A
 Frequencies --   1391.6160              1409.7335              1418.5716
 Red. masses --      1.3802                 1.6998                 1.6411
 Frc consts  --      1.5748                 1.9904                 1.9458
 IR Inten    --     11.4253                 9.2878                39.8419

                     70                     71                     72
                      A                      A                      A
 Frequencies --   1432.3001              1438.8785              1476.9418
 Red. masses --      1.4136                 3.1651                 1.3549
 Frc consts  --      1.7087                 3.8608                 1.7414
 IR Inten    --     26.6374                14.4862                17.9381

                     73                     74                     75
                      A                      A                      A
 Frequencies --   1490.2751              1495.7402              1500.0863
 Red. masses --      1.7926                 1.1238                 1.3921
 Frc consts  --      2.3456                 1.4813                 1.8457
 IR Inten    --     79.0024                 1.9315                34.8964

                     76                     77                     78
                      A                      A                      A
 Frequencies --   1519.9665              1521.6235              1524.6475
 Red. masses --      1.6213                 1.3830                 1.1809
 Frc consts  --      2.2069                 1.8867                 1.6173
 IR Inten    --     20.4005                15.0631                19.8038

                     79                     80                     81
                      A                      A                      A
 Frequencies --   1531.9018              1534.1950              1540.4483
 Red. masses --      1.1179                 1.1673                 1.5201
 Frc consts  --      1.5457                 1.6187                 2.1252
 IR Inten    --      3.2808                 1.1542                 2.9693

                     82                     83                     84
                      A                      A                      A
 Frequencies --   1546.4197              1567.5167              1737.2244
 Red. masses --      1.9146                 3.2027                 9.6076
 Frc consts  --      2.6976                 4.6365                17.0836
 IR Inten    --     29.3652                15.5454               256.0344

                     85                     86                     87
                      A                      A                      A
 Frequencies --   1804.5419              3072.4756              3072.6517
 Red. masses --      8.7549                 1.0370                 1.0370
 Frc consts  --     16.7972                 5.7680                 5.7683
 IR Inten    --    365.1903                21.0461                35.6360

                     88                     89                     90
                      A                      A                      A
 Frequencies --   3079.9473              3083.7493              3113.5336
 Red. masses --      1.0850                 1.0828                 1.0628
 Frc consts  --      6.0640                 6.0666                 6.0701
 IR Inten    --     13.8727                 8.4826                10.4311

                     91                     92                     93
                      A                      A                      A
 Frequencies --   3144.4489              3148.1818              3153.4547
 Red. masses --      1.1014                 1.0846                 1.0999
 Frc consts  --      6.4164                 6.3332                 6.4441
 IR Inten    --     22.9831                14.1517                 6.6915

                     94                     95                     96
                      A                      A                      A
 Frequencies --   3154.9686              3160.0621              3163.2853
 Red. masses --      1.0546                 1.0611                 1.1023
 Frc consts  --      6.1846                 6.2430                 6.4984
 IR Inten    --     11.5006                13.4034                 7.8248

                     97                     98                     99
                      A                      A                      A
 Frequencies --   3175.5767              3186.5165              3232.0707
 Red. masses --      1.1029                 1.1072                 1.1186
 Frc consts  --      6.5528                 6.6237                 6.8846
 IR Inten    --      0.7155                 7.7984                 5.9746

                    100                    101                    102
                      A                      A                      A
 Frequencies --   3248.9126              3278.3555              3581.0018
 Red. masses --      1.1163                 1.0972                 1.0760
 Frc consts  --      6.9422                 6.9477                 8.1299
 IR Inten    --     10.1989                 8.1694                19.9828

 - Thermochemistry -
 -------------------
 Temperature   298.150 Kelvin.  Pressure   1.00000 Atm.
 Atom     1 has atomic number  6 and mass  12.00000

 Molecular mass:   263.13822 amu.
 Principal axes and moments of inertia in atomic units:
                           1         2         3
     Eigenvalues --  2902.669426395.872887813.36435
           X            0.99997  -0.00221  -0.00678
           Y            0.00202   0.99961  -0.02797
           Z            0.00684   0.02795   0.99959
 This molecule is an asymmetric top.
 Rotational symmetry number  1.
 Warning -- assumption of classical behavior for rotation
           may cause significant error
 Rotational temperatures (Kelvin)      0.02984     0.01354     0.01109
 Rotational constants (GHZ):           0.62175     0.28217     0.23098
 Zero-point vibrational energy     787126.7 (Joules/Mol)
                                  188.12780 (Kcal/Mol)
 Warning -- explicit consideration of  26 degrees of freedom as
           vibrations may cause significant error
 Vibrational temperatures:     26.30    62.45    67.45    87.56   113.29
          (Kelvin)            129.72   141.28   213.48   248.49   274.01
                              291.14   334.02   336.31   373.49   401.84
                              456.85   528.80   538.86   586.46   609.33
                              619.51   636.33   675.51   774.99   838.82
                              873.29   955.89   991.69  1004.05  1046.00
                             1054.74  1109.04  1138.89  1159.03  1169.73
                             1187.37  1229.11  1239.58  1281.17  1330.60
                             1378.06  1430.64  1445.12  1464.00  1508.12
                             1536.90  1563.12  1569.96  1578.58  1596.43
                             1621.29  1645.13  1678.55  1680.95  1684.74
                             1748.63  1754.93  1783.17  1798.52  1866.20
                             1896.13  1897.36  1900.50  1932.71  1945.49
                             1977.07  2002.23  2028.29  2041.01  2060.76
                             2070.23  2124.99  2144.17  2152.04  2158.29
                             2186.89  2189.28  2193.63  2204.06  2207.36
                             2216.36  2224.95  2255.31  2499.48  2596.33
                             4420.61  4420.86  4431.36  4436.83  4479.68
                             4524.16  4529.53  4537.12  4539.30  4546.62
                             4551.26  4568.95  4584.69  4650.23  4674.46
                             4716.82  5152.26

 Zero-point correction=                           0.299801 (Hartree/Particle)
 Thermal correction to Energy=                    0.317435
 Thermal correction to Enthalpy=                  0.318379
 Thermal correction to Gibbs Free Energy=         0.252544
 Sum of electronic and zero-point Energies=           -891.479767
 Sum of electronic and thermal Energies=              -891.462133
 Sum of electronic and thermal Enthalpies=            -891.461189
 Sum of electronic and thermal Free Energies=         -891.527025

                     E (Thermal)             CV                S
                      KCal/Mol        Cal/Mol-Kelvin    Cal/Mol-Kelvin
 Total                  199.194             66.221            138.563
 Electronic               0.000              0.000              0.000
 Translational            0.889              2.981             42.602
 Rotational               0.889              2.981             33.339
 Vibrational            197.416             60.259             62.622
 Vibration     1          0.593              1.986              6.813
 Vibration     2          0.595              1.980              5.097
 Vibration     3          0.595              1.979              4.945
 Vibration     4          0.597              1.973              4.429
 Vibration     5          0.600              1.963              3.922
 Vibration     6          0.602              1.956              3.657
 Vibration     7          0.604              1.950              3.490
 Vibration     8          0.618              1.904              2.693
 Vibration     9          0.626              1.876              2.406
 Vibration    10          0.634              1.853              2.224
 Vibration    11          0.639              1.837              2.112
 Vibration    12          0.653              1.792              1.862
 Vibration    13          0.654              1.789              1.850
 Vibration    14          0.668              1.747              1.665
 Vibration    15          0.680              1.712              1.538
 Vibration    16          0.704              1.640              1.323
 Vibration    17          0.740              1.539              1.090
 Vibration    18          0.746              1.524              1.061
 Vibration    19          0.772              1.454              0.935
 Vibration    20          0.786              1.419              0.880
 Vibration    21          0.792              1.404              0.857
 Vibration    22          0.802              1.378              0.819
 Vibration    23          0.827              1.318              0.739
 Vibration    24          0.894              1.165              0.568
 Vibration    25          0.940              1.068              0.480
 Vibration    26          0.966              1.017              0.438

 Optimization completed.
    -- Stationary point found.
 Normal termination of Gaussian 16 at Sat Dec 12 10:37:42 2020.

 ----------------------------------------------------------------------
 # B3LYP/6-311++G(d,p) empiricaldispersion=gd3bj scf=xqc pop=npa geom=c
 heck
 ----------------------------------------------------------------------

 --------------------------------------
 CID_65615658_JID_9293_Energie_neutraal
 --------------------------------------
 Structure from the checkpoint file:  "JID_9293.chk"
 Charge =  0 Multiplicity = 1

 SCF Done:  E(RB3LYP) =  -892.027484947     A.U. after   15 cycles
 Normal termination of Gaussian 16 at Sat Dec 12 10:45:24 2020.

 ----------------------------------------------------------------------
 # B3LYP/6-311++G(d,p) empiricaldispersion=gd3bj scf=xqc pop=npa geom=c
 heck
 ----------------------------------------------------------------------

 ------------------------------------
 CID_65615658_JID_9293_Energie_kation
 ------------------------------------
 Structure from the checkpoint file:  "JID_9293.chk"
 Charge =  1 Multiplicity = 2

 SCF Done:  E(UB3LYP) =  -891.704025124     A.U. after   33 cycles
 SCF Done:  E(UB3LYP) =  -891.704025124     a.u. after    1 cycles
 Normal termination of Gaussian 16 at Sat Dec 12 11:08:59 2020.
 Gaussian 16:  ES64L-G16RevA.03 25-Dec-2016

 ----------------------------------------------------------------------
 # B3LYP/6-311++G(d,p) empiricaldispersion=gd3bj scf=xqc pop=npa geom=c
 heck
 ----------------------------------------------------------------------

 -----------------------------------
 CID_65615658_JID_9293_Energie_anion
 -----------------------------------
 Structure from the checkpoint file:  "JID_9293.chk"
 Charge = -1 Multiplicity = 2

                         Standard orientation:
 ---------------------------------------------------------------------
 Center     Atomic      Atomic             Coordinates (Angstroms)
 Number     Number       Type             X           Y           Z
 ---------------------------------------------------------------------
      1          6           0       -1.100103   -2.008407    1.686185
      2          6           0       -0.411240   -1.492802    0.413515
      3          6           0       -1.240741   -1.895147   -0.800704
      4          8           0       -1.369774   -3.074826   -1.094467
      5          7           0       -1.802782   -0.884172   -1.516804
      6          6           0       -1.927131    0.501986   -1.080799
      7          6           0       -0.741797    0.920057   -0.218015
      8          8           0       -0.426458    2.110623   -0.155090
      9          7           0       -0.104848   -0.054537    0.480747
     10          6           0        1.060817    0.326508    1.289646
     11          6           0        2.349512    0.027940    0.588751
     12          7           0        2.942387   -1.163691    0.589199
     13          6           0        4.022839   -0.966570   -0.214089
     14          7           0        4.139147    0.258931   -0.706524
     15          7           0        3.050014    0.888572   -0.190512
     16          6           0        2.827942    2.299676   -0.467626
     17          6           0       -3.268909    0.777286   -0.396200
     18          6           0       -3.427247    0.858656    1.102887
     19          6           0       -3.561219    2.101607    0.256714
     20          1           0       -1.242592   -3.087519    1.593867
     21          1           0       -2.075530   -1.532786    1.820611
     22          1           0       -0.488275   -1.814144    2.572128
     23          1           0        0.547167   -2.010440    0.298673
     24          1           0       -2.400059   -1.194884   -2.274721
     25          1           0       -1.860264    1.133854   -1.972273
     26          1           0        0.960754    1.384846    1.527187
     27          1           0        1.042150   -0.248362    2.217639
     28          1           0        4.741431   -1.741454   -0.442678
     29          1           0        3.445738    2.917661    0.191650
     30          1           0        3.114464    2.487391   -1.503268
     31          1           0        1.771100    2.532429   -0.329566
     32          1           0       -4.093878    0.317303   -0.937612
     33          1           0       -4.319142    0.424490    1.545156
     34          1           0       -2.538980    0.773784    1.721365
     35          1           0       -2.749313    2.820271    0.299602
     36          1           0       -4.548679    2.530740    0.114351
 ---------------------------------------------------------------------

 SCF Done:  E(UB3LYP) =  -892.017793252     A.U. after   33 cycles
 SCF Done:  E(UB3LYP) =  -892.017793255     a.u. after    2 cycles

 The electronic state is 2-A.
 Alpha  occ. eigenvalues --  -19.01175 -19.00358 -14.32425 -14.27644 -14.26061
 Alpha  occ. eigenvalues --  -14.25550 -14.22884 -10.19667 -10.19202 -10.16688
 Alpha  occ. eigenvalues --  -10.14595 -10.14386 -10.14201 -10.14158 -10.12938
 Alpha  occ. eigenvalues --  -10.09481 -10.08734 -10.08276 -10.07766  -1.00340
 Alpha  occ. eigenvalues --   -0.96910  -0.95585  -0.87657  -0.84541  -0.82854
 Alpha  occ. eigenvalues --   -0.77123  -0.77082  -0.70223  -0.67532  -0.64767
 Alpha  occ. eigenvalues --   -0.63040  -0.57925  -0.55613  -0.54003  -0.51173
 Alpha  occ. eigenvalues --   -0.50622  -0.49928  -0.46863  -0.45233  -0.43592
 Alpha  occ. eigenvalues --   -0.43178  -0.41452  -0.40295  -0.39452  -0.38411
 Alpha  occ. eigenvalues --   -0.37882  -0.37546  -0.36131  -0.34596  -0.34391
 Alpha  occ. eigenvalues --   -0.33373  -0.33288  -0.33040  -0.32226  -0.30716
 Alpha  occ. eigenvalues --   -0.30168  -0.29545  -0.28904  -0.27601  -0.26934
 Alpha  occ. eigenvalues --   -0.25687  -0.21839  -0.21459  -0.20694  -0.20608
 Alpha  occ. eigenvalues --   -0.19732  -0.18719  -0.18090  -0.17161  -0.16594
 Alpha  occ. eigenvalues --    0.03989
 Alpha virt. eigenvalues --    0.05540   0.06219   0.06490   0.07360   0.07736
 Alpha virt. eigenvalues --    0.08118   0.08549   0.08822   0.09516   0.09620
 Alpha virt. eigenvalues --    0.10299   0.10681   0.10981   0.11229   0.11673

  Beta  occ. eigenvalues --  -19.01149 -19.00349 -14.32416 -14.27641 -14.26053
  Beta  occ. eigenvalues --  -14.25524 -14.22879 -10.19628 -10.19200 -10.16680
  Beta  occ. eigenvalues --  -10.14579 -10.14381 -10.14201 -10.14146 -10.12912
  Beta  occ. eigenvalues --  -10.09456 -10.08720 -10.08255 -10.07751  -1.00326
  Beta  occ. eigenvalues --   -0.96866  -0.95561  -0.87632  -0.84500  -0.82842
  Beta  occ. eigenvalues --   -0.77089  -0.77062  -0.70203  -0.67482  -0.64727
  Beta  occ. eigenvalues --   -0.63006  -0.57886  -0.55593  -0.53962  -0.51112
  Beta  occ. eigenvalues --   -0.50581  -0.49874  -0.46838  -0.45195  -0.43523
  Beta  occ. eigenvalues --   -0.43132  -0.41394  -0.40254  -0.39390  -0.38379
  Beta  occ. eigenvalues --   -0.37837  -0.37512  -0.36097  -0.34569  -0.34360
  Beta  occ. eigenvalues --   -0.33339  -0.33265  -0.33004  -0.32190  -0.30669
  Beta  occ. eigenvalues --   -0.30107  -0.29508  -0.28872  -0.27572  -0.26885
  Beta  occ. eigenvalues --   -0.25661  -0.21805  -0.21428  -0.20677  -0.20572
  Beta  occ. eigenvalues --   -0.19686  -0.18690  -0.18057  -0.17133  -0.16534
  Beta virt. eigenvalues --    0.05984   0.06372   0.06932   0.07227   0.07466
  Beta virt. eigenvalues --    0.08344   0.08466   0.08881   0.09244   0.09687
  Beta virt. eigenvalues --    0.09966   0.10496   0.10776   0.11263   0.11487

 Mulliken charges and spin densities:
               1          2
     1  C    0.127950  -0.691353
     2  C   -0.602837   0.314272
     3  C   -0.127946   0.166471
     4  O   -0.328496   0.010115
     5  N   -0.312595   0.092161
     6  C    1.016337  -1.186094
     7  C   -0.129148  -0.282896
     8  O   -0.284789   0.037462
     9  N    0.349523   0.061948
    10  C    1.144711  -1.884270
    11  C   -0.938496   0.884863
    12  N   -0.128081   0.055071
    13  C   -0.233191   0.360841
    14  N   -0.103130  -0.077419
    15  N    0.023382   0.152370
    16  C    0.432485  -0.729404
    17  C   -0.411971   0.576524
    18  C    0.663779  -0.976857
    19  C    0.379247  -0.912169
    20  H    0.120570   0.058512
    21  H    0.023365   0.145646
    22  H    0.032354   0.103793
    23  H    0.282784  -0.013413
    24  H   -0.018107   0.369293
    25  H   -0.515367   0.787275
    26  H    0.112385   0.127917
    27  H   -0.293418   0.493027
    28  H    0.078569   0.088897
    29  H   -0.172125   0.352313
    30  H   -0.058193   0.227871
    31  H    0.193915   0.015998
    32  H   -0.892838   1.168357
    33  H   -0.266016   0.457752
    34  H    0.068937   0.065647
    35  H    0.122028   0.056619
    36  H   -0.355578   0.522858
 Sum of Mulliken charges =  -1.00000   1.00000

 Dipole moment (field-independent basis, Debye):
    X=              6.4822    Y=             -0.3660    Z=              2.9014  Tot=              7.1114
 Quadrupole moment (field-independent basis, Debye-Ang):
   XX=           -203.4464   YY=           -161.4821   ZZ=           -154.4860
   XY=             -1.0838   XZ=             -9.5283   YZ=             -0.9180

 Summary of Natural Population Analysis:

                                       Natural Population
                Natural  -----------------------------------------------
    Atom  No    Charge         Core      Valence    Rydberg      Total
 -----------------------------------------------------------------------
      C    1   -0.28702      0.99963     2.28162    0.00577     3.28702
      C    2   -0.04637      0.99954     2.03568    0.01115     3.04637
      C    3    0.34487      0.99963     1.63254    0.02297     2.65513
      O    4   -0.32057      0.99988     3.31514    0.00556     4.32057
      N    5   -0.30931      0.99966     2.79907    0.01059     3.80931
      C    6   -0.04403      0.99953     2.02940    0.01510     3.04403
      C    7    0.35635      0.99960     1.62023    0.02382     2.64365
      O    8   -0.33053      0.99988     3.32552    0.00513     4.33053
      N    9   -0.24814      0.99962     2.73700    0.01152     3.74814
      C   10   -0.11312      0.99956     2.10158    0.01197     3.11312
      C   11    0.19183      0.99959     1.79265    0.01594     2.80817
      N   12   -0.26798      0.99970     2.75940    0.00887     3.76798
      C   13    0.08778      0.99970     1.89404    0.01848     2.91222
      N   14   -0.15724      0.99973     2.64666    0.01084     3.65724
      N   15   -0.10682      0.99961     2.59501    0.01221     3.60682
      C   16   -0.18226      0.99963     2.17546    0.00717     3.18226
      C   17   -0.11823      0.99957     2.10440    0.01426     3.11823
      C   18   -0.20176      0.99962     2.19277    0.00936     3.20176
      C   19   -0.19684      0.99961     2.18792    0.00931     3.19684
      H   20    0.11160      0.00000     0.38764    0.00077     0.38840
      H   21    0.10408      0.00000     0.39469    0.00124     0.39592
      H   22    0.10007      0.00000     0.39903    0.00090     0.39993
      H   23    0.12107      0.00000     0.37698    0.00195     0.37893
      H   24    0.20124      0.00000     0.29556    0.00320     0.29876
      H   25    0.11635      0.00000     0.38136    0.00229     0.38365
      H   26    0.12370      0.00000     0.37491    0.00139     0.37630
      H   27    0.11318      0.00000     0.38535    0.00147     0.38682
      H   28    0.09248      0.00000     0.40673    0.00078     0.40752
      H   29    0.09780      0.00000     0.40077    0.00144     0.40220
      H   30    0.10704      0.00000     0.39147    0.00150     0.39296
      H   31    0.12227      0.00000     0.37634    0.00140     0.37773
      H   32    0.11292      0.00000     0.38086    0.00622     0.38708
      H   33    0.10681      0.00000     0.39190    0.00129     0.39319
      H   34    0.10137      0.00000     0.39725    0.00138     0.39863
      H   35    0.11283      0.00000     0.38597    0.00120     0.38717
      H   36    0.10460      0.00000     0.39423    0.00117     0.39540
 =======================================================================
   * Total *    0.00000     18.99328    50.74711    0.25961    70.00000

 Normal termination of Gaussian 16 at Sat Dec 12 11:53:52 2020.
