 Gaussian 16, Revision A.03,

 -----------------------------------------------------------
 # opt freq B3LYP/6-31G(d) empiricaldispersion=gd3bj scf=xqc
 -----------------------------------------------------------

 -------------------------------
 CID_115009037_JID_5425_neutraal
 -------------------------------
 Symbolic Z-matrix:
 Charge =  0 Multiplicity = 1

 SCF Done:  E(RB3LYP) =  -616.994686347     A.U. after   14 cycles
 SCF Done:  E(RB3LYP) =  -616.998193267     A.U. after   12 cycles
 SCF Done:  E(RB3LYP) =  -616.998551469     A.U. after   11 cycles
 SCF Done:  E(RB3LYP) =  -616.998724962     A.U. after   12 cycles
 SCF Done:  E(RB3LYP) =  -616.998792736     A.U. after   11 cycles
 SCF Done:  E(RB3LYP) =  -616.998865316     A.U. after   11 cycles
 SCF Done:  E(RB3LYP) =  -616.998883018     A.U. after   10 cycles
 SCF Done:  E(RB3LYP) =  -616.998887114     A.U. after    9 cycles
 SCF Done:  E(RB3LYP) =  -616.998894297     A.U. after   10 cycles
 SCF Done:  E(RB3LYP) =  -616.998897898     A.U. after    9 cycles
 SCF Done:  E(RB3LYP) =  -616.998899322     A.U. after    9 cycles
 SCF Done:  E(RB3LYP) =  -616.998899634     A.U. after    8 cycles
 Optimization completed.
    -- Stationary point found.
 Normal termination of Gaussian 16 at Thu Dec 10 16:05:56 2020.

 --------------------------------------------------------------------
 #N Geom=AllCheck Guess=TCheck SCRF=Check GenChk RB3LYP/6-31G(d) Freq
 --------------------------------------------------------------------

 Structure from the checkpoint file:  "JID_5425.chk"
 -------------------------------
 CID_115009037_JID_5425_neutraal
 -------------------------------
 Charge =  0 Multiplicity = 1

 SCF Done:  E(RB3LYP) =  -616.998899634     A.U. after    1 cycles

  Exact polarizability: 191.849  -1.981 134.881  -1.648  -3.262 106.720
 Approx polarizability: 245.672   0.406 228.075  -5.087 -13.293 156.227

                      1                      2                      3
                      A                      A                      A
 Frequencies --     22.0322                29.9071                76.1375
 Red. masses --      3.4547                 2.7502                 1.9394
 Frc consts  --      0.0010                 0.0014                 0.0066
 IR Inten    --      0.8989                 0.0441                 0.0847

                      4                      5                      6
                      A                      A                      A
 Frequencies --     97.4642               120.0703               130.1459
 Red. masses --      3.1906                 3.2518                 3.0902
 Frc consts  --      0.0179                 0.0276                 0.0308
 IR Inten    --      0.3962                 0.6222                 0.1018

                      7                      8                      9
                      A                      A                      A
 Frequencies --    206.8943               225.3323               236.4049
 Red. masses --      2.4813                 1.9544                 1.0559
 Frc consts  --      0.0626                 0.0585                 0.0348
 IR Inten    --      1.2260                 3.5092                 0.2573

                     10                     11                     12
                      A                      A                      A
 Frequencies --    247.6865               269.0512               274.8553
 Red. masses --      2.1900                 1.3239                 1.4434
 Frc consts  --      0.0792                 0.0565                 0.0642
 IR Inten    --      2.3059                 6.6362                22.6580

                     13                     14                     15
                      A                      A                      A
 Frequencies --    300.4437               324.0766               353.2380
 Red. masses --      3.2805                 3.1315                 2.9590
 Frc consts  --      0.1745                 0.1938                 0.2175
 IR Inten    --      1.6755                 1.1769                 4.8200

                     16                     17                     18
                      A                      A                      A
 Frequencies --    379.8397               415.6165               450.3653
 Red. masses --      2.4579                 2.3639                 2.9198
 Frc consts  --      0.2089                 0.2406                 0.3489
 IR Inten    --     15.4654                 4.1139                 3.0216

                     19                     20                     21
                      A                      A                      A
 Frequencies --    503.9075               518.3718               582.4025
 Red. masses --      3.5841                 4.6976                 2.9576
 Frc consts  --      0.5362                 0.7437                 0.5911
 IR Inten    --      0.6945                 0.2100                 2.1157

                     22                     23                     24
                      A                      A                      A
 Frequencies --    638.9135               641.7804               669.4578
 Red. masses --      4.5477                 2.4267                 5.5758
 Frc consts  --      1.0938                 0.5889                 1.4723
 IR Inten    --      0.0855                 4.4882                 1.2462

                     25                     26                     27
                      A                      A                      A
 Frequencies --    722.6970               744.8289               792.6804
 Red. masses --      2.2526                 2.1753                 1.8021
 Frc consts  --      0.6932                 0.7110                 0.6672
 IR Inten    --      4.2783                12.5756                 4.7588

                     28                     29                     30
                      A                      A                      A
 Frequencies --    810.8069               838.4839               883.2118
 Red. masses --      2.5689                 2.0348                 2.1724
 Frc consts  --      0.9950                 0.8429                 0.9984
 IR Inten    --      5.9010                 6.1017                72.1722

                     31                     32                     33
                      A                      A                      A
 Frequencies --    897.8670               908.8024               924.3562
 Red. masses --      2.7417                 1.7911                 1.8714
 Frc consts  --      1.3023                 0.8716                 0.9421
 IR Inten    --      2.4948                20.3099                36.2655

                     34                     35                     36
                      A                      A                      A
 Frequencies --    942.2008               948.2506               958.5319
 Red. masses --      1.1799                 1.6288                 1.8451
 Frc consts  --      0.6171                 0.8629                 0.9988
 IR Inten    --      0.3102                 8.8784                 9.4659

                     37                     38                     39
                      A                      A                      A
 Frequencies --    964.1563               973.1841               976.4307
 Red. masses --      1.4423                 1.5656                 1.4989
 Frc consts  --      0.7900                 0.8736                 0.8420
 IR Inten    --      1.8806                 0.8672                 0.1325

                     40                     41                     42
                      A                      A                      A
 Frequencies --    997.6614              1041.3380              1047.3555
 Red. masses --      2.3266                 1.8447                 3.1083
 Frc consts  --      1.3644                 1.1786                 2.0089
 IR Inten    --      0.6438                 2.6811                 5.8910

                     43                     44                     45
                      A                      A                      A
 Frequencies --   1056.7585              1061.2664              1086.7972
 Red. masses --      2.6406                 1.6645                 1.6077
 Frc consts  --      1.7374                 1.1046                 1.1188
 IR Inten    --      1.5491                 0.9560                16.5806

                     46                     47                     48
                      A                      A                      A
 Frequencies --   1125.4801              1136.8888              1176.9826
 Red. masses --      2.2252                 2.3083                 1.7331
 Frc consts  --      1.6607                 1.7578                 1.4145
 IR Inten    --     12.9336                 0.7043                 3.6508

                     49                     50                     51
                      A                      A                      A
 Frequencies --   1197.5069              1214.1451              1223.3855
 Red. masses --      2.1062                 1.4061                 1.8322
 Frc consts  --      1.7796                 1.2213                 1.6157
 IR Inten    --      4.8892                 1.2967                11.3210

                     52                     53                     54
                      A                      A                      A
 Frequencies --   1239.1078              1259.2387              1276.7507
 Red. masses --      1.4324                 1.6050                 1.3251
 Frc consts  --      1.2958                 1.4995                 1.2727
 IR Inten    --      7.2713                 4.1449                 1.4346

                     55                     56                     57
                      A                      A                      A
 Frequencies --   1285.1231              1305.9623              1319.4277
 Red. masses --      1.8639                 4.5267                 1.3380
 Frc consts  --      1.8137                 4.5487                 1.3724
 IR Inten    --      2.9589                 0.9054                 2.7633

                     58                     59                     60
                      A                      A                      A
 Frequencies --   1338.8349              1345.4135              1355.5823
 Red. masses --      1.4920                 1.4497                 1.4047
 Frc consts  --      1.5757                 1.5461                 1.5208
 IR Inten    --      2.7625                 6.2725                 1.4779

                     61                     62                     63
                      A                      A                      A
 Frequencies --   1363.9183              1364.5484              1390.0241
 Red. masses --      1.5944                 1.3536                 1.4040
 Frc consts  --      1.7475                 1.4849                 1.5983
 IR Inten    --      0.7906                 2.7949                 8.6442

                     64                     65                     66
                      A                      A                      A
 Frequencies --   1394.5811              1427.0586              1448.3244
 Red. masses --      1.8022                 1.2278                 1.2287
 Frc consts  --      2.0650                 1.4732                 1.5185
 IR Inten    --     19.5933                 3.2045                 3.5074

                     67                     68                     69
                      A                      A                      A
 Frequencies --   1480.8807              1500.7688              1510.7409
 Red. masses --      2.6064                 2.2616                 1.1059
 Frc consts  --      3.3677                 3.0011                 1.4872
 IR Inten    --     24.9607                18.9470                 1.9566

                     70                     71                     72
                      A                      A                      A
 Frequencies --   1517.5717              1521.8009              1522.6350
 Red. masses --      1.0440                 1.0486                 1.0925
 Frc consts  --      1.4166                 1.4308                 1.4923
 IR Inten    --      0.0141                 2.3905                 1.8927

                     73                     74                     75
                      A                      A                      A
 Frequencies --   1528.5316              1533.6759              1539.6319
 Red. masses --      1.0812                 1.0581                 1.0726
 Frc consts  --      1.4884                 1.4663                 1.4980
 IR Inten    --      3.1733                 6.6870                 7.7061

                     76                     77                     78
                      A                      A                      A
 Frequencies --   1550.9799              1630.0780              1653.2113
 Red. masses --      1.1010                 4.8693                 5.3735
 Frc consts  --      1.5605                 7.6232                 8.6530
 IR Inten    --      1.0776                 5.6516                 1.4036

                     79                     80                     81
                      A                      A                      A
 Frequencies --   1691.7684              3034.2376              3045.6084
 Red. masses --      1.1084                 1.0844                 1.0346
 Frc consts  --      1.8690                 5.8822                 5.6543
 IR Inten    --     29.1728                14.7842                25.6461

                     82                     83                     84
                      A                      A                      A
 Frequencies --   3049.5693              3055.3248              3055.6578
 Red. masses --      1.0353                 1.0616                 1.0671
 Frc consts  --      5.6726                 5.8387                 5.8703
 IR Inten    --     30.9528                27.7933                19.4728

                     85                     86                     87
                      A                      A                      A
 Frequencies --   3068.5019              3076.3496              3094.8796
 Red. masses --      1.0619                 1.0665                 1.0966
 Frc consts  --      5.8907                 5.9467                 6.1888
 IR Inten    --     56.1696                11.6099                32.2698

                     88                     89                     90
                      A                      A                      A
 Frequencies --   3101.3857              3110.8823              3115.5119
 Red. masses --      1.1040                 1.1027                 1.1018
 Frc consts  --      6.2563                 6.2875                 6.3009
 IR Inten    --      9.0651                 0.0074                34.3516

                     91                     92                     93
                      A                      A                      A
 Frequencies --   3116.7530              3121.6712              3123.3072
 Red. masses --      1.1018                 1.1029                 1.1023
 Frc consts  --      6.3060                 6.3323                 6.3355
 IR Inten    --     77.1188                23.2454                28.8600

                     94                     95                     96
                      A                      A                      A
 Frequencies --   3128.2903              3160.8791              3193.8273
 Red. masses --      1.1054                 1.0892                 1.0891
 Frc consts  --      6.3734                 6.4114                 6.5457
 IR Inten    --     45.7331                39.7355                24.2092

                     97                     98                     99
                      A                      A                      A
 Frequencies --   3205.5334              3460.5051              3550.8007
 Red. masses --      1.0901                 1.0495                 1.0920
 Frc consts  --      6.5998                 7.4045                 8.1121
 IR Inten    --      2.7493                 2.1854                 2.2555

 - Thermochemistry -
 -------------------
 Temperature   298.150 Kelvin.  Pressure   1.00000 Atm.
 Atom     1 has atomic number  6 and mass  12.00000

 Molecular mass:   204.16265 amu.
 Principal axes and moments of inertia in atomic units:
                           1         2         3
     Eigenvalues --  1339.339705906.498756337.50439
           X            0.99997  -0.00831   0.00048
           Y            0.00829   0.99973   0.02182
           Z           -0.00066  -0.02182   0.99976
 This molecule is an asymmetric top.
 Rotational symmetry number  1.
 Warning -- assumption of classical behavior for rotation
           may cause significant error
 Rotational temperatures (Kelvin)      0.06467     0.01466     0.01367
 Rotational constants (GHZ):           1.34749     0.30555     0.28477
 Zero-point vibrational energy     822624.6 (Joules/Mol)
                                  196.61200 (Kcal/Mol)
 Warning -- explicit consideration of  21 degrees of freedom as
           vibrations may cause significant error
 Vibrational temperatures:     31.70    43.03   109.54   140.23   172.75
          (Kelvin)            187.25   297.67   324.20   340.13   356.37
                              387.10   395.46   432.27   466.27   508.23
                              546.50   597.98   647.98   725.01   745.82
                              837.95   919.25   923.38   963.20  1039.80
                             1071.64  1140.49  1166.57  1206.39  1270.74
                             1291.83  1307.56  1329.94  1355.62  1364.32
                             1379.11  1387.21  1400.19  1404.87  1435.41
                             1498.25  1506.91  1520.44  1526.93  1563.66
                             1619.31  1635.73  1693.42  1722.95  1746.88
                             1760.18  1782.80  1811.76  1836.96  1849.01
                             1878.99  1898.36  1926.28  1935.75  1950.38
                             1962.37  1963.28  1999.93  2006.49  2053.22
                             2083.82  2130.66  2159.27  2173.62  2183.45
                             2189.53  2190.73  2199.22  2206.62  2215.19
                             2231.51  2345.32  2378.60  2434.08  4365.59
                             4381.95  4387.65  4395.93  4396.41  4414.89
                             4426.18  4452.84  4462.20  4475.87  4482.53
                             4484.31  4491.39  4493.74  4500.91  4547.80
                             4595.21  4612.05  4978.90  5108.81

 Zero-point correction=                           0.313321 (Hartree/Particle)
 Thermal correction to Energy=                    0.328253
 Thermal correction to Enthalpy=                  0.329197
 Thermal correction to Gibbs Free Energy=         0.270430
 Sum of electronic and zero-point Energies=           -616.685578
 Sum of electronic and thermal Energies=              -616.670647
 Sum of electronic and thermal Enthalpies=            -616.669703
 Sum of electronic and thermal Free Energies=         -616.728470

                     E (Thermal)             CV                S
                      KCal/Mol        Cal/Mol-Kelvin    Cal/Mol-Kelvin
 Total                  205.982             57.845            123.686
 Electronic               0.000              0.000              0.000
 Translational            0.889              2.981             41.846
 Rotational               0.889              2.981             32.283
 Vibrational            204.204             51.883             49.557
 Vibration     1          0.593              1.985              6.442
 Vibration     2          0.594              1.984              5.836
 Vibration     3          0.599              1.965              3.988
 Vibration     4          0.603              1.951              3.504
 Vibration     5          0.609              1.933              3.099
 Vibration     6          0.612              1.923              2.944
 Vibration     7          0.641              1.830              2.071
 Vibration     8          0.650              1.802              1.916
 Vibration     9          0.655              1.785              1.830
 Vibration    10          0.661              1.767              1.747
 Vibration    11          0.673              1.730              1.602
 Vibration    12          0.677              1.720              1.565
 Vibration    13          0.693              1.673              1.414
 Vibration    14          0.709              1.627              1.289
 Vibration    15          0.729              1.569              1.152
 Vibration    16          0.750              1.513              1.040
 Vibration    17          0.779              1.436              0.907
 Vibration    18          0.809              1.360              0.795
 Vibration    19          0.859              1.241              0.648
 Vibration    20          0.873              1.209              0.614
 Vibration    21          0.939              1.069              0.481

 Optimization completed.
    -- Stationary point found.
 Normal termination of Gaussian 16 at Thu Dec 10 16:17:21 2020.

 ----------------------------------------------------------------------
 # B3LYP/6-311++G(d,p) empiricaldispersion=gd3bj scf=xqc pop=npa geom=c
 heck
 ----------------------------------------------------------------------

 ---------------------------------------
 CID_115009037_JID_5425_Energie_neutraal
 ---------------------------------------
 Structure from the checkpoint file:  "JID_5425.chk"
 Charge =  0 Multiplicity = 1

 SCF Done:  E(RB3LYP) =  -617.167438032     A.U. after   14 cycles
 Normal termination of Gaussian 16 at Thu Dec 10 16:23:09 2020.

 ----------------------------------------------------------------------
 # B3LYP/6-311++G(d,p) empiricaldispersion=gd3bj scf=xqc pop=npa geom=c
 heck
 ----------------------------------------------------------------------

 -------------------------------------
 CID_115009037_JID_5425_Energie_kation
 -------------------------------------
 Structure from the checkpoint file:  "JID_5425.chk"
 Charge =  1 Multiplicity = 2

 SCF Done:  E(UB3LYP) =  -616.859235024     A.U. after   26 cycles
 Normal termination of Gaussian 16 at Thu Dec 10 16:38:42 2020.
 Gaussian 16:  ES64L-G16RevA.03 25-Dec-2016

 ----------------------------------------------------------------------
 # B3LYP/6-311++G(d,p) empiricaldispersion=gd3bj scf=xqc pop=npa geom=c
 heck
 ----------------------------------------------------------------------

 ------------------------------------
 CID_115009037_JID_5425_Energie_anion
 ------------------------------------
 Structure from the checkpoint file:  "JID_5425.chk"
 Charge = -1 Multiplicity = 2

                         Standard orientation:
 ---------------------------------------------------------------------
 Center     Atomic      Atomic             Coordinates (Angstroms)
 Number     Number       Type             X           Y           Z
 ---------------------------------------------------------------------
      1          6           0        3.970128   -0.922234   -1.297075
      2          6           0        3.214352   -0.900365    0.042419
      3          6           0        4.154911   -0.535910    1.203666
      4          6           0        2.012351    0.024484   -0.011504
      5          6           0        0.715901   -0.453434    0.165252
      6          6           0       -0.380879    0.416357    0.108115
      7          6           0       -0.101795    1.767365   -0.114116
      8          7           0        1.133543    2.260831   -0.283173
      9          6           0        2.153218    1.401752   -0.235689
     10          6           0       -1.787284   -0.141180    0.264091
     11          6           0       -2.247301   -0.920431   -0.995056
     12          6           0       -3.792914   -0.988474   -0.900153
     13          6           0       -4.204077    0.114729    0.119778
     14          6           0       -2.914583    0.912800    0.385324
     15          7           0       -1.761805   -1.090596    1.398009
     16          1           0        4.387934    0.063734   -1.530991
     17          1           0        3.306109   -1.207525   -2.119841
     18          1           0        4.800405   -1.636956   -1.260769
     19          1           0        2.833067   -1.913507    0.227361
     20          1           0        4.579190    0.465651    1.068506
     21          1           0        3.622268   -0.547151    2.160409
     22          1           0        4.987402   -1.246399    1.264501
     23          1           0        0.540148   -1.505920    0.366999
     24          1           0       -0.901314    2.502055   -0.152466
     25          1           0        3.142231    1.835337   -0.378537
     26          1           0       -1.942259   -0.358255   -1.883621
     27          1           0       -1.768927   -1.902757   -1.043423
     28          1           0       -4.129379   -1.975986   -0.566687
     29          1           0       -4.251396   -0.820372   -1.879373
     30          1           0       -4.571612   -0.337385    1.048203
     31          1           0       -5.010136    0.752622   -0.254227
     32          1           0       -2.906803    1.426138    1.353582
     33          1           0       -2.799967    1.675990   -0.392836
     34          1           0       -1.599796   -0.575357    2.263124
     35          1           0       -2.671499   -1.538354    1.495926
 ---------------------------------------------------------------------

 SCF Done:  E(UB3LYP) =  -617.155762515     A.U. after   33 cycles
 SCF Done:  E(UB3LYP) =  -617.155762515     a.u. after    1 cycles

 The electronic state is 2-A.
 Alpha  occ. eigenvalues --  -14.20770 -14.19031 -10.11159 -10.09961 -10.09952
 Alpha  occ. eigenvalues --  -10.09087 -10.08456 -10.08180 -10.07812 -10.07152
 Alpha  occ. eigenvalues --  -10.07117 -10.06630 -10.06531 -10.06514 -10.06498
 Alpha  occ. eigenvalues --   -0.84126  -0.80241  -0.73098  -0.70857  -0.69007
 Alpha  occ. eigenvalues --   -0.65000  -0.61408  -0.59718  -0.59441  -0.54148
 Alpha  occ. eigenvalues --   -0.52487  -0.48947  -0.47027  -0.44753  -0.42148
 Alpha  occ. eigenvalues --   -0.40001  -0.39122  -0.37878  -0.36206  -0.35550
 Alpha  occ. eigenvalues --   -0.34458  -0.33481  -0.32765  -0.31789  -0.30195
 Alpha  occ. eigenvalues --   -0.29621  -0.29430  -0.28738  -0.27062  -0.25808
 Alpha  occ. eigenvalues --   -0.25637  -0.24840  -0.24422  -0.24309  -0.23927
 Alpha  occ. eigenvalues --   -0.23049  -0.22074  -0.17973  -0.15659  -0.15451
 Alpha  occ. eigenvalues --   -0.14194   0.04209
 Alpha virt. eigenvalues --    0.05723   0.06738   0.07424   0.07799   0.08025
 Alpha virt. eigenvalues --    0.08357   0.08439   0.08523   0.09903   0.10093
 Alpha virt. eigenvalues --    0.10675   0.10810   0.11161   0.11580   0.12300

  Beta  occ. eigenvalues --  -14.20759 -14.18982 -10.11159 -10.09958 -10.09902
  Beta  occ. eigenvalues --  -10.09079 -10.08465 -10.08152 -10.07783 -10.07131
  Beta  occ. eigenvalues --  -10.07096 -10.06605 -10.06504 -10.06501 -10.06477
  Beta  occ. eigenvalues --   -0.84083  -0.80174  -0.73072  -0.70792  -0.68945
  Beta  occ. eigenvalues --   -0.64949  -0.61363  -0.59674  -0.59374  -0.54102
  Beta  occ. eigenvalues --   -0.52421  -0.48894  -0.46951  -0.44706  -0.42109
  Beta  occ. eigenvalues --   -0.39953  -0.39081  -0.37824  -0.36176  -0.35504
  Beta  occ. eigenvalues --   -0.34426  -0.33424  -0.32718  -0.31759  -0.30155
  Beta  occ. eigenvalues --   -0.29591  -0.29396  -0.28658  -0.27024  -0.25780
  Beta  occ. eigenvalues --   -0.25610  -0.24807  -0.24380  -0.24259  -0.23871
  Beta  occ. eigenvalues --   -0.23015  -0.22033  -0.17838  -0.15633  -0.15328
  Beta  occ. eigenvalues --   -0.14116
  Beta virt. eigenvalues --    0.06201   0.06704   0.07003   0.07991   0.08167
  Beta virt. eigenvalues --    0.08319   0.08657   0.08788   0.08893   0.10213
  Beta virt. eigenvalues --    0.10375   0.10940   0.11117   0.11391   0.11729

 Mulliken charges and spin densities:
               1          2
     1  C    0.014857  -0.701060
     2  C   -1.458268   1.656735
     3  C    0.286045  -0.988183
     4  C    0.589092   0.056306
     5  C   -0.217498  -0.296670
     6  C    1.322076  -1.041168
     7  C   -0.837005   0.434433
     8  N   -0.005605   0.018501
     9  C   -0.448502   0.072363
    10  C   -0.085799   0.196676
    11  C   -0.777469   0.274620
    12  C    0.662756  -1.169142
    13  C    0.587960  -1.018938
    14  C    0.721242  -0.986437
    15  N   -0.293487   0.035162
    16  H    0.055045   0.089849
    17  H   -0.001989   0.141916
    18  H   -0.258519   0.408091
    19  H   -0.091663   0.269260
    20  H    0.001261   0.141914
    21  H    0.041626   0.100141
    22  H   -0.247443   0.394025
    23  H    0.083216   0.173940
    24  H   -0.029531   0.235332
    25  H    0.183789  -0.007464
    26  H   -0.120345   0.296980
    27  H    0.122147   0.027464
    28  H   -0.212567   0.379552
    29  H   -0.115486   0.253276
    30  H   -0.274321   0.435025
    31  H   -0.225056   0.392986
    32  H   -0.051229   0.236125
    33  H    0.191078  -0.109102
    34  H   -0.132128   0.359465
    35  H    0.021719   0.238028
 Sum of Mulliken charges =  -1.00000   1.00000

 Dipole moment (field-independent basis, Debye):
    X=              1.9813    Y=              1.7500    Z=             -1.3031  Tot=              2.9472
 Quadrupole moment (field-independent basis, Debye-Ang):
   XX=           -185.4684   YY=           -133.9720   ZZ=           -127.1676
   XY=              0.9376   XZ=              3.6991   YZ=              2.2922

 Summary of Natural Population Analysis:

                                       Natural Population
                Natural  -----------------------------------------------
    Atom  No    Charge         Core      Valence    Rydberg      Total
 -----------------------------------------------------------------------
      C    1   -0.28076      0.99965     2.27489    0.00621     3.28076
      C    2   -0.11983      0.99959     2.10971    0.01053     3.11983
      C    3   -0.28053      0.99965     2.27471    0.00616     3.28053
      C    4   -0.03025      0.99949     2.02024    0.01052     3.03025
      C    5   -0.07122      0.99946     2.06232    0.00944     3.07122
      C    6   -0.02442      0.99947     2.01379    0.01116     3.02442
      C    7    0.02207      0.99952     1.96587    0.01254     2.97793
      N    8   -0.23270      0.99972     2.72162    0.01136     3.73270
      C    9    0.03133      0.99952     1.95644    0.01271     2.96867
      C   10    0.04927      0.99953     1.93520    0.01600     2.95073
      C   11   -0.18822      0.99959     2.17935    0.00928     3.18822
      C   12   -0.19744      0.99965     2.18981    0.00798     3.19744
      C   13   -0.19467      0.99965     2.18652    0.00850     3.19467
      C   14   -0.19648      0.99960     2.18664    0.01024     3.19648
      N   15   -0.42445      0.99976     2.91380    0.01089     3.92445
      H   16    0.09559      0.00000     0.40349    0.00092     0.40441
      H   17    0.10204      0.00000     0.39715    0.00082     0.39796
      H   18    0.09906      0.00000     0.40000    0.00094     0.40094
      H   19    0.09768      0.00000     0.40028    0.00204     0.40232
      H   20    0.09610      0.00000     0.40300    0.00091     0.40390
      H   21    0.10182      0.00000     0.39735    0.00082     0.39818
      H   22    0.09878      0.00000     0.40028    0.00094     0.40122
      H   23    0.11137      0.00000     0.38676    0.00187     0.38863
      H   24    0.09093      0.00000     0.40721    0.00185     0.40907
      H   25    0.08651      0.00000     0.41193    0.00157     0.41349
      H   26    0.10027      0.00000     0.39855    0.00118     0.39973
      H   27    0.10588      0.00000     0.39291    0.00121     0.39412
      H   28    0.09923      0.00000     0.39939    0.00137     0.40077
      H   29    0.09938      0.00000     0.39956    0.00106     0.40062
      H   30    0.09787      0.00000     0.39995    0.00218     0.40213
      H   31    0.10031      0.00000     0.39860    0.00108     0.39969
      H   32    0.10295      0.00000     0.39583    0.00122     0.39705
      H   33    0.09707      0.00000     0.40143    0.00150     0.40293
      H   34    0.17634      0.00000     0.32154    0.00212     0.32366
      H   35    0.17910      0.00000     0.31796    0.00294     0.32090
 =======================================================================
   * Total *    0.00000     14.99383    40.82409    0.18208    56.00000

 Normal termination of Gaussian 16 at Thu Dec 10 16:59:45 2020.
