 Gaussian 16, Revision A.03,

 -----------------------------------------------------------
 # opt freq B3LYP/6-31G(d) empiricaldispersion=gd3bj scf=xqc
 -----------------------------------------------------------

 ------------------------------
 CID_78952827_JID_4309_neutraal
 ------------------------------
 Symbolic Z-matrix:
 Charge =  0 Multiplicity = 1

 SCF Done:  E(RB3LYP) =  -649.431151126     A.U. after   15 cycles
 SCF Done:  E(RB3LYP) =  -649.434234081     A.U. after   12 cycles
 SCF Done:  E(RB3LYP) =  -649.434438768     A.U. after   12 cycles
 SCF Done:  E(RB3LYP) =  -649.434976426     A.U. after   12 cycles
 SCF Done:  E(RB3LYP) =  -649.435153727     A.U. after   12 cycles
 SCF Done:  E(RB3LYP) =  -649.435279669     A.U. after   11 cycles
 SCF Done:  E(RB3LYP) =  -649.435379109     A.U. after   11 cycles
 SCF Done:  E(RB3LYP) =  -649.435446582     A.U. after   11 cycles
 SCF Done:  E(RB3LYP) =  -649.435466070     A.U. after   10 cycles
 SCF Done:  E(RB3LYP) =  -649.435484216     A.U. after   10 cycles
 SCF Done:  E(RB3LYP) =  -649.435489945     A.U. after   10 cycles
 SCF Done:  E(RB3LYP) =  -649.435491311     A.U. after    8 cycles
 SCF Done:  E(RB3LYP) =  -649.435492002     A.U. after    8 cycles
 SCF Done:  E(RB3LYP) =  -649.435492468     A.U. after    8 cycles
 SCF Done:  E(RB3LYP) =  -649.435492536     A.U. after    8 cycles
 Optimization completed.
    -- Stationary point found.
 Normal termination of Gaussian 16 at Thu Dec 10 09:24:02 2020.

 --------------------------------------------------------------------
 #N Geom=AllCheck Guess=TCheck SCRF=Check GenChk RB3LYP/6-31G(d) Freq
 --------------------------------------------------------------------

 Structure from the checkpoint file:  "JID_4309.chk"
 ------------------------------
 CID_78952827_JID_4309_neutraal
 ------------------------------
 Charge =  0 Multiplicity = 1

 SCF Done:  E(RB3LYP) =  -649.435492536     A.U. after    1 cycles

  Exact polarizability: 186.016   0.897 119.564   7.069   7.736  74.867
 Approx polarizability: 233.695  -6.266 205.955  14.926  18.856 115.584

                      1                      2                      3
                      A                      A                      A
 Frequencies --     23.9124                55.0248                60.4780
 Red. masses --      3.4083                 3.6315                 3.7109
 Frc consts  --      0.0011                 0.0065                 0.0080
 IR Inten    --      0.9752                 1.1981                 1.1911

                      4                      5                      6
                      A                      A                      A
 Frequencies --     62.5684                74.8842               110.6011
 Red. masses --      3.8852                 2.8920                 1.9928
 Frc consts  --      0.0090                 0.0096                 0.0144
 IR Inten    --      2.1852                 2.3263                 1.8321

                      7                      8                      9
                      A                      A                      A
 Frequencies --    130.5717               141.7957               187.4731
 Red. masses --      3.8125                 1.8428                 2.5174
 Frc consts  --      0.0383                 0.0218                 0.0521
 IR Inten    --      2.5308                 0.6851                 3.3336

                     10                     11                     12
                      A                      A                      A
 Frequencies --    201.1085               271.3772               274.4853
 Red. masses --      1.2985                 4.8350                 4.0473
 Frc consts  --      0.0309                 0.2098                 0.1797
 IR Inten    --      0.5561                 1.6362                 1.7889

                     13                     14                     15
                      A                      A                      A
 Frequencies --    333.8263               360.4876               421.3803
 Red. masses --      2.9426                 3.9176                 3.3417
 Frc consts  --      0.1932                 0.2999                 0.3496
 IR Inten    --      2.2804                14.5655                 1.9369

                     16                     17                     18
                      A                      A                      A
 Frequencies --    428.5476               469.4334               506.3034
 Red. masses --      4.4613                 3.3293                 3.6505
 Frc consts  --      0.4827                 0.4323                 0.5514
 IR Inten    --      3.1704                 6.2766                19.5127

                     19                     20                     21
                      A                      A                      A
 Frequencies --    560.1437               597.6053               635.8830
 Red. masses --      2.4252                 2.6757                 2.2123
 Frc consts  --      0.4483                 0.5630                 0.5270
 IR Inten    --     33.5842                29.4447                16.0017

                     22                     23                     24
                      A                      A                      A
 Frequencies --    653.5623               716.6866               729.1461
 Red. masses --      6.6918                 4.3701                 3.6866
 Frc consts  --      1.6841                 1.3225                 1.1548
 IR Inten    --      1.5614                 6.0474                30.6667

                     25                     26                     27
                      A                      A                      A
 Frequencies --    774.3960               846.2235               854.5807
 Red. masses --      3.6466                 3.2198                 2.0721
 Frc consts  --      1.2884                 1.3585                 0.8916
 IR Inten    --     38.3067                 5.0092                38.1290

                     28                     29                     30
                      A                      A                      A
 Frequencies --    869.9045               893.3632               959.8054
 Red. masses --      1.3551                 2.1641                 1.8077
 Frc consts  --      0.6042                 1.0176                 0.9812
 IR Inten    --      6.1182                13.7585                19.6810

                     31                     32                     33
                      A                      A                      A
 Frequencies --    971.1848               989.3343              1025.3361
 Red. masses --      1.3327                 1.3328                 2.8730
 Frc consts  --      0.7406                 0.7686                 1.7796
 IR Inten    --      7.3889                 0.5633                72.5562

                     34                     35                     36
                      A                      A                      A
 Frequencies --   1034.7437              1051.4289              1100.7351
 Red. masses --      2.7198                 2.2712                 6.6093
 Frc consts  --      1.7157                 1.4793                 4.7182
 IR Inten    --     35.7562                 8.2753                30.7573

                     37                     38                     39
                      A                      A                      A
 Frequencies --   1134.1169              1149.3186              1156.1775
 Red. masses --      1.6474                 1.3578                 1.3614
 Frc consts  --      1.2484                 1.0567                 1.0722
 IR Inten    --     27.7000                14.0574                 4.5179

                     40                     41                     42
                      A                      A                      A
 Frequencies --   1179.8856              1190.3725              1196.4382
 Red. masses --      2.0431                 1.2725                 2.5324
 Frc consts  --      1.6758                 1.0624                 2.1358
 IR Inten    --     13.2477                 1.5316                26.8930

                     43                     44                     45
                      A                      A                      A
 Frequencies --   1217.2653              1220.1636              1238.0510
 Red. masses --      1.1694                 1.4602                 2.5749
 Frc consts  --      1.0209                 1.2809                 2.3254
 IR Inten    --      0.6958                 2.4828                 0.1882

                     46                     47                     48
                      A                      A                      A
 Frequencies --   1288.5477              1345.3153              1352.4922
 Red. masses --      1.3778                 1.3001                 4.1449
 Frc consts  --      1.3478                 1.3863                 4.4672
 IR Inten    --      9.3904                 4.4749                14.4928

                     49                     50                     51
                      A                      A                      A
 Frequencies --   1389.1405              1392.4272              1456.6823
 Red. masses --      2.7218                 1.7381                 2.4607
 Frc consts  --      3.0946                 1.9855                 3.0763
 IR Inten    --    259.5902                 6.5467                 9.9141

                     52                     53                     54
                      A                      A                      A
 Frequencies --   1478.9505              1484.3591              1491.8365
 Red. masses --      1.1380                 1.7014                 1.1465
 Frc consts  --      1.4665                 2.2087                 1.5034
 IR Inten    --      0.9404                54.6280                24.6703

                     55                     56                     57
                      A                      A                      A
 Frequencies --   1496.6293              1505.3996              1523.5665
 Red. masses --      1.2260                 1.0593                 1.0616
 Frc consts  --      1.6179                 1.4143                 1.4519
 IR Inten    --     25.1641                 3.0830                 5.6969

                     58                     59                     60
                      A                      A                      A
 Frequencies --   1537.3562              1542.4042              1551.8804
 Red. masses --      1.0640                 1.0878                 1.1491
 Frc consts  --      1.4817                 1.5248                 1.6305
 IR Inten    --     16.9212                 0.9419                24.2379

                     61                     62                     63
                      A                      A                      A
 Frequencies --   1563.5014              1627.4443              1674.8149
 Red. masses --      2.2576                 6.5066                 5.7993
 Frc consts  --      3.2516                10.1535                 9.5843
 IR Inten    --      9.3338                 4.1700                18.1264

                     64                     65                     66
                      A                      A                      A
 Frequencies --   1766.8288              3017.5169              3024.1004
 Red. masses --      7.9692                 1.0645                 1.0321
 Frc consts  --     14.6573                 5.7106                 5.5613
 IR Inten    --    301.5296                46.7245                55.1889

                     67                     68                     69
                      A                      A                      A
 Frequencies --   3039.9950              3070.5848              3083.1884
 Red. masses --      1.0427                 1.0978                 1.1067
 Frc consts  --      5.6776                 6.0984                 6.1983
 IR Inten    --     59.2132                19.8452                59.6634

                     70                     71                     72
                      A                      A                      A
 Frequencies --   3097.5572              3133.1008              3162.5808
 Red. masses --      1.0991                 1.1020                 1.0989
 Frc consts  --      6.2134                 6.3737                 6.4760
 IR Inten    --     33.8696                34.8217                13.9371

                     73                     74                     75
                      A                      A                      A
 Frequencies --   3184.4319              3208.4833              3210.3896
 Red. masses --      1.0884                 1.0887                 1.0923
 Frc consts  --      6.5027                 6.6031                 6.6332
 IR Inten    --     11.6700                 7.4401                 9.5796

                     76                     77                     78
                      A                      A                      A
 Frequencies --   3225.7861              3445.8260              3594.0890
 Red. masses --      1.0940                 1.0759                 1.0755
 Frc consts  --      6.7071                 7.5271                 8.1856
 IR Inten    --      3.9151                 0.6930                27.2509

 - Thermochemistry -
 -------------------
 Temperature   298.150 Kelvin.  Pressure   1.00000 Atm.
 Atom     1 has atomic number  6 and mass  12.00000

 Molecular mass:   194.10553 amu.
 Principal axes and moments of inertia in atomic units:
                           1         2         3
     Eigenvalues --   852.140167120.370557677.50152
           X            0.99987   0.01606   0.00005
           Y           -0.01606   0.99977   0.01407
           Z            0.00018  -0.01407   0.99990
 This molecule is an asymmetric top.
 Rotational symmetry number  1.
 Warning -- assumption of classical behavior for rotation
           may cause significant error
 Rotational temperatures (Kelvin)      0.10164     0.01216     0.01128
 Rotational constants (GHZ):           2.11789     0.25346     0.23507
 Zero-point vibrational energy     616240.2 (Joules/Mol)
                                  147.28495 (Kcal/Mol)
 Warning -- explicit consideration of  20 degrees of freedom as
           vibrations may cause significant error
 Vibrational temperatures:     34.40    79.17    87.01    90.02   107.74
          (Kelvin)            159.13   187.86   204.01   269.73   289.35
                              390.45   394.92   480.30   518.66   606.27
                              616.58   675.41   728.46   805.92   859.82
                              914.89   940.33  1031.15  1049.08  1114.18
                             1217.53  1229.55  1251.60  1285.35  1380.95
                             1397.32  1423.43  1475.23  1488.77  1512.77
                             1583.71  1631.74  1653.61  1663.48  1697.59
                             1712.68  1721.41  1751.37  1755.54  1781.28
                             1853.93  1935.61  1945.93  1998.66  2003.39
                             2095.84  2127.88  2135.66  2146.42  2153.32
                             2165.93  2192.07  2211.91  2219.18  2232.81
                             2249.53  2341.53  2409.69  2542.07  4341.53
                             4351.01  4373.87  4417.89  4436.02  4456.69
                             4507.83  4550.25  4581.69  4616.29  4619.03
                             4641.19  4957.77  5171.09

 Zero-point correction=                           0.234714 (Hartree/Particle)
 Thermal correction to Energy=                    0.249201
 Thermal correction to Enthalpy=                  0.250145
 Thermal correction to Gibbs Free Energy=         0.191191
 Sum of electronic and zero-point Energies=           -649.200779
 Sum of electronic and thermal Energies=              -649.186291
 Sum of electronic and thermal Enthalpies=            -649.185347
 Sum of electronic and thermal Free Energies=         -649.244301

                     E (Thermal)             CV                S
                      KCal/Mol        Cal/Mol-Kelvin    Cal/Mol-Kelvin
 Total                  156.376             51.774            124.079
 Electronic               0.000              0.000              0.000
 Translational            0.889              2.981             41.695
 Rotational               0.889              2.981             32.210
 Vibrational            154.599             45.813             50.174
 Vibration     1          0.593              1.985              6.279
 Vibration     2          0.596              1.976              4.628
 Vibration     3          0.597              1.973              4.442
 Vibration     4          0.597              1.972              4.374
 Vibration     5          0.599              1.966              4.021
 Vibration     6          0.606              1.941              3.258
 Vibration     7          0.612              1.923              2.938
 Vibration     8          0.615              1.911              2.780
 Vibration     9          0.632              1.857              2.253
 Vibration    10          0.638              1.838              2.123
 Vibration    11          0.675              1.726              1.587
 Vibration    12          0.677              1.720              1.568
 Vibration    13          0.715              1.608              1.242
 Vibration    14          0.735              1.554              1.120
 Vibration    15          0.784              1.424              0.887
 Vibration    16          0.790              1.408              0.863
 Vibration    17          0.827              1.318              0.739
 Vibration    18          0.862              1.236              0.643
 Vibration    19          0.916              1.118              0.524
 Vibration    20          0.956              1.037              0.454

                           ! Non-Optimized Parameters !
 Normal termination of Gaussian 16 at Thu Dec 10 09:31:10 2020.

 ----------------------------------------------------------------------
 # B3LYP/6-311++G(d,p) empiricaldispersion=gd3bj scf=xqc pop=npa geom=c
 heck
 ----------------------------------------------------------------------

 --------------------------------------
 CID_78952827_JID_4309_Energie_neutraal
 --------------------------------------
 Structure from the checkpoint file:  "JID_4309.chk"
 Charge =  0 Multiplicity = 1

 SCF Done:  E(RB3LYP) =  -649.625123686     A.U. after   15 cycles
 Normal termination of Gaussian 16 at Thu Dec 10 09:34:40 2020.

 ----------------------------------------------------------------------
 # B3LYP/6-311++G(d,p) empiricaldispersion=gd3bj scf=xqc pop=npa geom=c
 heck
 ----------------------------------------------------------------------

 ------------------------------------
 CID_78952827_JID_4309_Energie_kation
 ------------------------------------
 Structure from the checkpoint file:  "JID_4309.chk"
 Charge =  1 Multiplicity = 2

 SCF Done:  E(UB3LYP) =  -649.313437892     A.U. after   31 cycles
 Normal termination of Gaussian 16 at Thu Dec 10 09:44:36 2020.
 Gaussian 16:  ES64L-G16RevA.03 25-Dec-2016

 ----------------------------------------------------------------------
 # B3LYP/6-311++G(d,p) empiricaldispersion=gd3bj scf=xqc pop=npa geom=c
 heck
 ----------------------------------------------------------------------

 -----------------------------------
 CID_78952827_JID_4309_Energie_anion
 -----------------------------------
 Structure from the checkpoint file:  "JID_4309.chk"
 Charge = -1 Multiplicity = 2

                         Standard orientation:
 ---------------------------------------------------------------------
 Center     Atomic      Atomic             Coordinates (Angstroms)
 Number     Number       Type             X           Y           Z
 ---------------------------------------------------------------------
      1          6           0       -4.134586   -1.391912    0.698586
      2          7           0       -4.161560   -0.141830   -0.046728
      3          6           0       -3.144502    0.764714   -0.224753
      4          8           0       -3.387024    1.932159   -0.517283
      5          6           0       -1.731410    0.281478   -0.087164
      6          6           0       -0.784148    1.177767    0.426179
      7          6           0        0.550931    0.808310    0.533462
      8          6           0        0.978153   -0.456245    0.101921
      9          6           0        0.038542   -1.333163   -0.446654
     10          6           0       -1.306499   -0.974910   -0.532371
     11          6           0        2.432045   -0.849397    0.215311
     12          7           0        3.272691    0.197614   -0.381554
     13          8           0        4.625638   -0.297490   -0.376331
     14          6           0        5.424185    0.599333    0.379039
     15          1           0       -3.197966   -1.479991    1.250944
     16          1           0       -4.233376   -2.267350    0.043856
     17          1           0       -4.958349   -1.409328    1.420209
     18          1           0       -5.067532    0.289182   -0.184804
     19          1           0       -1.116556    2.164608    0.730493
     20          1           0        1.282409    1.503174    0.933865
     21          1           0        0.361813   -2.304532   -0.812241
     22          1           0       -2.017839   -1.663600   -0.977087
     23          1           0        2.728804   -0.930550    1.268154
     24          1           0        2.603661   -1.832632   -0.247219
     25          1           0        3.047561    0.250802   -1.377044
     26          1           0        5.447094    1.599131   -0.073435
     27          1           0        5.066207    0.686839    1.413650
     28          1           0        6.430970    0.170548    0.376209
 ---------------------------------------------------------------------

 SCF Done:  E(UB3LYP) =  -649.620426888     A.U. after   32 cycles

 The electronic state is 2-A.
 Alpha  occ. eigenvalues --  -19.05037 -18.95258 -14.24816 -14.21319 -10.13586
 Alpha  occ. eigenvalues --  -10.11416 -10.09769 -10.09001 -10.05424 -10.05118
 Alpha  occ. eigenvalues --  -10.05037 -10.04781 -10.04656 -10.04562  -0.96808
 Alpha  occ. eigenvalues --   -0.90657  -0.79795  -0.76136  -0.72817  -0.64650
 Alpha  occ. eigenvalues --   -0.62533  -0.59658  -0.58037  -0.54533  -0.49691
 Alpha  occ. eigenvalues --   -0.48851  -0.44918  -0.41583  -0.39429  -0.38381
 Alpha  occ. eigenvalues --   -0.37608  -0.36262  -0.34728  -0.33722  -0.33664
 Alpha  occ. eigenvalues --   -0.31782  -0.31460  -0.30460  -0.29814  -0.28931
 Alpha  occ. eigenvalues --   -0.28022  -0.27154  -0.26121  -0.23570  -0.23169
 Alpha  occ. eigenvalues --   -0.22096  -0.17403  -0.15095  -0.14299  -0.13810
 Alpha  occ. eigenvalues --   -0.13479  -0.12235   0.04503
 Alpha virt. eigenvalues --    0.06051   0.06723   0.08499   0.09159   0.09344
 Alpha virt. eigenvalues --    0.09519   0.09636   0.10316   0.11242   0.11359
 Alpha virt. eigenvalues --    0.12034   0.12728   0.13388   0.14253   0.14664

  Beta  occ. eigenvalues --  -19.05022 -18.95094 -14.24780 -14.21290 -10.13473
  Beta  occ. eigenvalues --  -10.11383 -10.09741 -10.09018 -10.05458 -10.04925
  Beta  occ. eigenvalues --  -10.04852 -10.04737 -10.04639 -10.04391  -0.96764
  Beta  occ. eigenvalues --   -0.90366  -0.79655  -0.75983  -0.72597  -0.64270
  Beta  occ. eigenvalues --   -0.62320  -0.59544  -0.57916  -0.54385  -0.49466
  Beta  occ. eigenvalues --   -0.48678  -0.44717  -0.41512  -0.39320  -0.38305
  Beta  occ. eigenvalues --   -0.37510  -0.36148  -0.34579  -0.33621  -0.33493
  Beta  occ. eigenvalues --   -0.31672  -0.31311  -0.30345  -0.29703  -0.28849
  Beta  occ. eigenvalues --   -0.27851  -0.26612  -0.25907  -0.23083  -0.22913
  Beta  occ. eigenvalues --   -0.21994  -0.17353  -0.15001  -0.13910  -0.13310
  Beta  occ. eigenvalues --   -0.12799  -0.11397
  Beta virt. eigenvalues --    0.06711   0.06923   0.08519   0.08886   0.09456
  Beta virt. eigenvalues --    0.09588   0.09684   0.09967   0.10441   0.11247
  Beta virt. eigenvalues --    0.11450   0.12155   0.12624   0.13475   0.14221

 Mulliken charges and spin densities:
               1          2
     1  C    0.188795  -0.618286
     2  N   -0.315642   0.070663
     3  C   -0.267211   0.219598
     4  O   -0.392009   0.060210
     5  C    0.607692  -0.154538
     6  C   -0.340405  -0.018967
     7  C   -0.471016   0.013168
     8  C    1.032325   0.355993
     9  C   -0.390741  -0.019284
    10  C   -0.413350   0.125781
    11  C   -0.645509  -0.291122
    12  N   -0.419329   0.074045
    13  O   -0.036060   0.025471
    14  C    0.490732  -0.736004
    15  H    0.128041   0.034325
    16  H   -0.001982   0.154674
    17  H   -0.331976   0.459003
    18  H    0.104699   0.201519
    19  H    0.180511  -0.002193
    20  H    0.145426  -0.005999
    21  H    0.115431   0.003316
    22  H    0.086041   0.052299
    23  H    0.024719   0.137774
    24  H    0.158796  -0.008851
    25  H    0.208507   0.027262
    26  H   -0.054764   0.181146
    27  H   -0.183473   0.319651
    28  H   -0.208250   0.339342
 Sum of Mulliken charges =  -1.00000   1.00000

 Dipole moment (field-independent basis, Debye):
    X=              1.4293    Y=             -2.6595    Z=             -0.4804  Tot=              3.0572
 Quadrupole moment (field-independent basis, Debye-Ang):
   XX=           -183.9332   YY=           -107.0521   ZZ=           -101.1171
   XY=              5.2889   XZ=             -4.8811   YZ=              3.7988

 Summary of Natural Population Analysis:

                                       Natural Population
                Natural  -----------------------------------------------
    Atom  No    Charge         Core      Valence    Rydberg      Total
 -----------------------------------------------------------------------
      C    1   -0.18053      0.99965     2.17272    0.00816     3.18053
      N    2   -0.32220      0.99968     2.81237    0.01015     3.82220
      C    3    0.35193      0.99961     1.62515    0.02330     2.64807
      O    4   -0.31594      0.99988     3.31069    0.00536     4.31594
      C    5   -0.04414      0.99946     2.03463    0.01005     3.04414
      C    6   -0.07141      0.99954     2.06256    0.00931     3.07141
      C    7   -0.10381      0.99952     2.09439    0.00990     3.10381
      C    8    0.01523      0.99950     1.97566    0.00962     2.98477
      C    9   -0.11394      0.99952     2.10510    0.00932     3.11394
      C   10   -0.07578      0.99954     2.06699    0.00926     3.07578
      C   11   -0.09991      0.99960     2.08736    0.01295     3.09991
      N   12   -0.17274      0.99974     2.66098    0.01202     3.67274
      O   13   -0.23766      0.99990     3.22652    0.01124     4.23766
      C   14   -0.09548      0.99963     2.08488    0.01097     3.09548
      H   15    0.10577      0.00000     0.39341    0.00082     0.39423
      H   16    0.08593      0.00000     0.41301    0.00106     0.41407
      H   17    0.09300      0.00000     0.40546    0.00154     0.40700
      H   18    0.18780      0.00000     0.30930    0.00290     0.31220
      H   19    0.10439      0.00000     0.39471    0.00089     0.39561
      H   20    0.10145      0.00000     0.39751    0.00104     0.39855
      H   21    0.09325      0.00000     0.40585    0.00089     0.40675
      H   22    0.09562      0.00000     0.40301    0.00138     0.40438
      H   23    0.09854      0.00000     0.40014    0.00133     0.40146
      H   24    0.08565      0.00000     0.41297    0.00137     0.41435
      H   25    0.16743      0.00000     0.33079    0.00178     0.33257
      H   26    0.07946      0.00000     0.41899    0.00155     0.42054
      H   27    0.08177      0.00000     0.41650    0.00173     0.41823
      H   28    0.08633      0.00000     0.41205    0.00162     0.41367
 =======================================================================
   * Total *    0.00000     13.99477    37.83371    0.17151    52.00000

 Normal termination of Gaussian 16 at Thu Dec 10 09:55:10 2020.
