 Gaussian 16, Revision A.03,

 -----------------------------------------------------------
 # opt freq B3LYP/6-31G(d) empiricaldispersion=gd3bj scf=xqc
 -----------------------------------------------------------

 -----------------------------
 CID_83006263_JID_990_neutraal
 -----------------------------
 Symbolic Z-matrix:
 Charge =  0 Multiplicity = 1

 SCF Done:  E(RB3LYP) =  -461.078972393     A.U. after   13 cycles
 SCF Done:  E(RB3LYP) =  -461.083359156     A.U. after   11 cycles
 SCF Done:  E(RB3LYP) =  -461.083997002     A.U. after   11 cycles
 SCF Done:  E(RB3LYP) =  -461.084745095     A.U. after   11 cycles
 SCF Done:  E(RB3LYP) =  -461.047963117     A.U. after   12 cycles
 SCF Done:  E(RB3LYP) =  -461.086914135     A.U. after   12 cycles
 SCF Done:  E(RB3LYP) =  -461.087106560     A.U. after   11 cycles
 SCF Done:  E(RB3LYP) =  -461.087914198     A.U. after   11 cycles
 SCF Done:  E(RB3LYP) =  -461.087745140     A.U. after   10 cycles
 SCF Done:  E(RB3LYP) =  -461.088084617     A.U. after   10 cycles
 SCF Done:  E(RB3LYP) =  -461.088116106     A.U. after    8 cycles
 SCF Done:  E(RB3LYP) =  -461.088116690     A.U. after    8 cycles
 SCF Done:  E(RB3LYP) =  -461.088117578     A.U. after    9 cycles
 SCF Done:  E(RB3LYP) =  -461.088118197     A.U. after    8 cycles
 SCF Done:  E(RB3LYP) =  -461.088118665     A.U. after    7 cycles
 SCF Done:  E(RB3LYP) =  -461.088118712     A.U. after    7 cycles
 Optimization completed.
    -- Stationary point found.
 Normal termination of Gaussian 16 at Tue Dec  8 13:40:19 2020.

 --------------------------------------------------------------------
 #N Geom=AllCheck Guess=TCheck SCRF=Check GenChk RB3LYP/6-31G(d) Freq
 --------------------------------------------------------------------

 Structure from the checkpoint file:  "JID_990.chk"
 -----------------------------
 CID_83006263_JID_990_neutraal
 -----------------------------
 Charge =  0 Multiplicity = 1

 SCF Done:  E(RB3LYP) =  -461.088118713     A.U. after    1 cycles

  Exact polarizability: 104.184   1.450  91.639  -0.881  -0.924  77.410
 Approx polarizability: 126.935   1.372 119.426   0.258  -2.224 119.445

                      1                      2                      3
                      A                      A                      A
 Frequencies --     41.3396                46.0079                97.6361
 Red. masses --      3.2705                 3.0349                 2.7597
 Frc consts  --      0.0033                 0.0038                 0.0155
 IR Inten    --      2.4556                 1.5663                 0.9272

                      4                      5                      6
                      A                      A                      A
 Frequencies --    143.1784               188.5139               230.3438
 Red. masses --      2.6290                 2.1485                 1.8298
 Frc consts  --      0.0318                 0.0450                 0.0572
 IR Inten    --      0.0692                 0.7168                 0.9321

                      7                      8                      9
                      A                      A                      A
 Frequencies --    251.7879               254.1889               268.2069
 Red. masses --      1.0701                 1.2782                 1.2257
 Frc consts  --      0.0400                 0.0487                 0.0519
 IR Inten    --      0.2972                 0.0728                 0.8138

                     10                     11                     12
                      A                      A                      A
 Frequencies --    332.7046               362.4893               401.2695
 Red. masses --      2.7194                 2.5991                 2.7243
 Frc consts  --      0.1774                 0.2012                 0.2585
 IR Inten    --      1.1778                 4.2254                 3.2235

                     13                     14                     15
                      A                      A                      A
 Frequencies --    450.1691               485.5361               519.4424
 Red. masses --      2.3160                 2.6134                 2.3259
 Frc consts  --      0.2765                 0.3630                 0.3698
 IR Inten    --      4.7846                 0.5644                 2.8721

                     16                     17                     18
                      A                      A                      A
 Frequencies --    621.2547               659.3485               777.8543
 Red. masses --      3.5145                 3.2943                 2.3240
 Frc consts  --      0.7992                 0.8438                 0.8285
 IR Inten    --      3.6257                 5.7125                39.3785

                     19                     20                     21
                      A                      A                      A
 Frequencies --    838.8262               879.1523               889.7388
 Red. masses --      2.5780                 1.9854                 1.9956
 Frc consts  --      1.0688                 0.9041                 0.9308
 IR Inten    --      3.2152                 9.9985                 8.3386

                     22                     23                     24
                      A                      A                      A
 Frequencies --    929.5532               969.3644               999.0845
 Red. masses --      1.8604                 2.3276                 1.4826
 Frc consts  --      0.9471                 1.2886                 0.8719
 IR Inten    --     53.3251                 4.2660                 2.4222

                     25                     26                     27
                      A                      A                      A
 Frequencies --   1035.8369              1039.2901              1056.4304
 Red. masses --      2.4440                 1.6901                 2.1981
 Frc consts  --      1.5450                 1.0756                 1.4454
 IR Inten    --     26.5865                16.0600                15.5853

                     28                     29                     30
                      A                      A                      A
 Frequencies --   1097.7548              1129.6712              1132.4009
 Red. masses --      2.3586                 1.3950                 2.6245
 Frc consts  --      1.6746                 1.0489                 1.9828
 IR Inten    --     21.6928                30.9002                66.7014

                     31                     32                     33
                      A                      A                      A
 Frequencies --   1160.4261              1162.8570              1176.8995
 Red. masses --      3.0187                 1.9414                 1.8581
 Frc consts  --      2.3950                 1.5468                 1.5164
 IR Inten    --      9.8321                13.3620                26.1786

                     34                     35                     36
                      A                      A                      A
 Frequencies --   1211.7217              1237.9980              1243.3773
 Red. masses --      1.4055                 1.7779                 1.3843
 Frc consts  --      1.2159                 1.6054                 1.2610
 IR Inten    --      2.2458                17.2888                16.8579

                     37                     38                     39
                      A                      A                      A
 Frequencies --   1259.5525              1290.1120              1305.6080
 Red. masses --      2.6742                 2.2567                 1.3830
 Frc consts  --      2.4997                 2.2130                 1.3890
 IR Inten    --      4.2198                 0.8297                 3.5152

                     40                     41                     42
                      A                      A                      A
 Frequencies --   1321.9116              1369.1707              1387.0715
 Red. masses --      1.3171                 1.2057                 1.2685
 Frc consts  --      1.3561                 1.3317                 1.4380
 IR Inten    --      2.8569                 9.8177                11.2544

                     43                     44                     45
                      A                      A                      A
 Frequencies --   1411.8294              1419.0481              1433.4350
 Red. masses --      1.3471                 1.3865                 1.4240
 Frc consts  --      1.5820                 1.6450                 1.7239
 IR Inten    --      2.5496                 3.2031                18.0485

                     46                     47                     48
                      A                      A                      A
 Frequencies --   1459.7935              1482.7705              1508.4072
 Red. masses --      1.1687                 1.1822                 1.0594
 Frc consts  --      1.4673                 1.5315                 1.4201
 IR Inten    --      0.9846                 0.4991                10.9778

                     49                     50                     51
                      A                      A                      A
 Frequencies --   1512.4555              1518.4654              1520.1514
 Red. masses --      1.0974                 1.0596                 1.0602
 Frc consts  --      1.4791                 1.4394                 1.4435
 IR Inten    --      5.4437                 1.8051                 1.5885

                     52                     53                     54
                      A                      A                      A
 Frequencies --   1522.7144              1526.8391              1535.8640
 Red. masses --      1.0759                 1.0507                 1.0575
 Frc consts  --      1.4698                 1.4431                 1.4697
 IR Inten    --      5.5688                 2.4718                 1.2470

                     55                     56                     57
                      A                      A                      A
 Frequencies --   1546.7100              1560.6093              2931.7254
 Red. masses --      1.1542                 1.0991                 1.0623
 Frc consts  --      1.6268                 1.5772                 5.3796
 IR Inten    --     10.7145                 1.0176                62.3134

                     58                     59                     60
                      A                      A                      A
 Frequencies --   2957.4453              2962.8095              3009.7140
 Red. masses --      1.0603                 1.0831                 1.0713
 Frc consts  --      5.4643                 5.6019                 5.7178
 IR Inten    --    107.8385                69.2669                67.9353

                     61                     62                     63
                      A                      A                      A
 Frequencies --   3045.2569              3054.9491              3079.9457
 Red. masses --      1.0674                 1.0349                 1.0863
 Frc consts  --      5.8321                 5.6906                 6.0715
 IR Inten    --     24.8422                16.2221                13.7111

                     64                     65                     66
                      A                      A                      A
 Frequencies --   3083.1009              3088.2688              3097.2947
 Red. masses --      1.0920                 1.0760                 1.0726
 Frc consts  --      6.1156                 6.0461                 6.0627
 IR Inten    --     66.0940                21.6123                49.3539

                     67                     68                     69
                      A                      A                      A
 Frequencies --   3122.4223              3127.7100              3133.9652
 Red. masses --      1.0995                 1.1026                 1.1031
 Frc consts  --      6.3159                 6.3549                 6.3833
 IR Inten    --     25.0851                38.4240                23.1558

                     70                     71                     72
                      A                      A                      A
 Frequencies --   3153.5901              3156.5198              3355.5983
 Red. masses --      1.0992                 1.1010                 1.0728
 Frc consts  --      6.4409                 6.4634                 7.1170
 IR Inten    --     22.8996                22.4092                16.6527

 - Thermochemistry -
 -------------------
 Temperature   298.150 Kelvin.  Pressure   1.00000 Atm.
 Atom     1 has atomic number  6 and mass  12.00000

 Molecular mass:   144.12626 amu.
 Principal axes and moments of inertia in atomic units:
                           1         2         3
     Eigenvalues --   775.127802245.442402852.11849
           X            0.99995  -0.00658  -0.00707
           Y            0.00662   0.99996   0.00625
           Z            0.00703  -0.00629   0.99996
 This molecule is an asymmetric top.
 Rotational symmetry number  1.
 Warning -- assumption of classical behavior for rotation
           may cause significant error
 Rotational temperatures (Kelvin)      0.11174     0.03857     0.03037
 Rotational constants (GHZ):           2.32831     0.80374     0.63277
 Zero-point vibrational energy     619513.0 (Joules/Mol)
                                  148.06717 (Kcal/Mol)
 Warning -- explicit consideration of  15 degrees of freedom as
           vibrations may cause significant error
 Vibrational temperatures:     59.48    66.20   140.48   206.00   271.23
          (Kelvin)            331.41   362.27   365.72   385.89   478.69
                              521.54   577.34   647.69   698.58   747.36
                              893.85   948.66  1119.16  1206.88  1264.90
                             1280.14  1337.42  1394.70  1437.46  1490.34
                             1495.31  1519.97  1579.42  1625.34  1629.27
                             1669.59  1673.09  1693.30  1743.40  1781.20
                             1788.94  1812.22  1856.18  1878.48  1901.94
                             1969.93  1995.69  2031.31  2041.69  2062.39
                             2100.32  2133.38  2170.26  2176.09  2184.73
                             2187.16  2190.85  2196.78  2209.77  2225.37
                             2245.37  4218.10  4255.10  4262.82  4330.31
                             4381.45  4395.39  4431.35  4435.89  4443.33
                             4456.32  4492.47  4500.08  4509.08  4537.31
                             4541.53  4827.96

 Zero-point correction=                           0.235960 (Hartree/Particle)
 Thermal correction to Energy=                    0.247219
 Thermal correction to Enthalpy=                  0.248163
 Thermal correction to Gibbs Free Energy=         0.198477
 Sum of electronic and zero-point Energies=           -460.852159
 Sum of electronic and thermal Energies=              -460.840899
 Sum of electronic and thermal Enthalpies=            -460.839955
 Sum of electronic and thermal Free Energies=         -460.889642

                     E (Thermal)             CV                S
                      KCal/Mol        Cal/Mol-Kelvin    Cal/Mol-Kelvin
 Total                  155.132             41.558            104.574
 Electronic               0.000              0.000              0.000
 Translational            0.889              2.981             40.808
 Rotational               0.889              2.981             29.986
 Vibrational            153.355             35.596             33.781
 Vibration     1          0.594              1.981              5.194
 Vibration     2          0.595              1.979              4.982
 Vibration     3          0.603              1.951              3.501
 Vibration     4          0.616              1.910              2.761
 Vibration     5          0.633              1.856              2.242
 Vibration     6          0.652              1.795              1.876
 Vibration     7          0.664              1.760              1.718
 Vibration     8          0.665              1.756              1.701
 Vibration     9          0.673              1.732              1.608
 Vibration    10          0.715              1.610              1.247
 Vibration    11          0.736              1.550              1.111
 Vibration    12          0.767              1.467              0.958
 Vibration    13          0.809              1.361              0.795
 Vibration    14          0.842              1.282              0.695
 Vibration    15          0.874              1.207              0.611

 Optimization completed.
    -- Stationary point found.
 Normal termination of Gaussian 16 at Tue Dec  8 13:45:44 2020.

 ----------------------------------------------------------------------
 # B3LYP/6-311++G(d,p) empiricaldispersion=gd3bj scf=xqc pop=npa geom=c
 heck
 ----------------------------------------------------------------------

 -------------------------------------
 CID_83006263_JID_990_Energie_neutraal
 -------------------------------------
 Structure from the checkpoint file:  "JID_990.chk"
 Charge =  0 Multiplicity = 1

 SCF Done:  E(RB3LYP) =  -461.223971177     A.U. after   13 cycles
 Normal termination of Gaussian 16 at Tue Dec  8 13:51:04 2020.

 ----------------------------------------------------------------------
 # B3LYP/6-311++G(d,p) empiricaldispersion=gd3bj scf=xqc pop=npa geom=c
 heck
 ----------------------------------------------------------------------

 -----------------------------------
 CID_83006263_JID_990_Energie_kation
 -----------------------------------
 Structure from the checkpoint file:  "JID_990.chk"
 Charge =  1 Multiplicity = 2

 SCF Done:  E(UB3LYP) =  -460.918269308     A.U. after   24 cycles
 Normal termination of Gaussian 16 at Tue Dec  8 13:59:58 2020.
 Gaussian 16:  ES64L-G16RevA.03 25-Dec-2016

 ----------------------------------------------------------------------
 # B3LYP/6-311++G(d,p) empiricaldispersion=gd3bj scf=xqc pop=npa geom=c
 heck
 ----------------------------------------------------------------------

 ----------------------------------
 CID_83006263_JID_990_Energie_anion
 ----------------------------------
 Structure from the checkpoint file:  "JID_990.chk"
 Charge = -1 Multiplicity = 2

                         Standard orientation:
 ---------------------------------------------------------------------
 Center     Atomic      Atomic             Coordinates (Angstroms)
 Number     Number       Type             X           Y           Z
 ---------------------------------------------------------------------
      1          6           0       -1.771104    2.093072    0.159281
      2          6           0       -1.525670    0.707020   -0.410341
      3          6           0       -0.325991   -0.028889    0.215975
      4          6           0       -0.753722   -1.503918    0.072588
      5          6           0       -2.261039   -1.408112    0.307433
      6          8           0       -2.667656   -0.129605   -0.193174
      7          7           0        0.913282    0.429302   -0.390246
      8          7           0        2.084738    0.003750    0.300933
      9          6           0        2.611059   -1.260480   -0.201183
     10          6           0        3.082147    1.064828    0.222802
     11          1           0       -0.882055    2.714274    0.007314
     12          1           0       -1.979810    2.029575    1.232934
     13          1           0       -2.625597    2.571500   -0.329442
     14          1           0       -1.355198    0.788951   -1.498282
     15          1           0       -0.257891    0.224897    1.279361
     16          1           0       -0.256373   -2.174124    0.779192
     17          1           0       -0.540815   -1.852660   -0.946623
     18          1           0       -2.496764   -1.474820    1.380456
     19          1           0       -2.832336   -2.185493   -0.211985
     20          1           0        0.955526    0.149177   -1.377115
     21          1           0        2.891925   -1.207783   -1.272374
     22          1           0        3.504480   -1.535072    0.368996
     23          1           0        1.869820   -2.052515   -0.076641
     24          1           0        3.430548    1.252460   -0.810370
     25          1           0        2.646432    1.986578    0.612660
     26          1           0        3.949126    0.789395    0.833169
 ---------------------------------------------------------------------

 SCF Done:  E(UB3LYP) =  -461.206670608     A.U. after   27 cycles

 The electronic state is 2-A.
 Alpha  occ. eigenvalues --  -19.01733 -14.22529 -14.21918 -10.11830 -10.11278
 Alpha  occ. eigenvalues --  -10.09670 -10.07588 -10.07506 -10.06338 -10.06239
 Alpha  occ. eigenvalues --   -0.93512  -0.87623  -0.73450  -0.66842  -0.65047
 Alpha  occ. eigenvalues --   -0.59901  -0.57162  -0.51227  -0.49378  -0.47444
 Alpha  occ. eigenvalues --   -0.40748  -0.40423  -0.37767  -0.35122  -0.34454
 Alpha  occ. eigenvalues --   -0.33987  -0.33339  -0.30730  -0.30289  -0.29015
 Alpha  occ. eigenvalues --   -0.28395  -0.27461  -0.27122  -0.26151  -0.23967
 Alpha  occ. eigenvalues --   -0.23614  -0.21868  -0.15321  -0.13391  -0.12389
 Alpha  occ. eigenvalues --    0.04904
 Alpha virt. eigenvalues --    0.07228   0.07673   0.07979   0.09198   0.09966
 Alpha virt. eigenvalues --    0.10313   0.10463   0.10995   0.12194   0.12840
 Alpha virt. eigenvalues --    0.12899   0.13161   0.14195   0.14639   0.15489

  Beta  occ. eigenvalues --  -19.01734 -14.22509 -14.21900 -10.11820 -10.11260
  Beta  occ. eigenvalues --  -10.09666 -10.07556 -10.07457 -10.06307 -10.06230
  Beta  occ. eigenvalues --   -0.93506  -0.87586  -0.73418  -0.66814  -0.65010
  Beta  occ. eigenvalues --   -0.59833  -0.57126  -0.51147  -0.49310  -0.47399
  Beta  occ. eigenvalues --   -0.40702  -0.40381  -0.37727  -0.35063  -0.34422
  Beta  occ. eigenvalues --   -0.33947  -0.33302  -0.30698  -0.30244  -0.28984
  Beta  occ. eigenvalues --   -0.28351  -0.27436  -0.27086  -0.26108  -0.23917
  Beta  occ. eigenvalues --   -0.23583  -0.21855  -0.15308  -0.13358  -0.12297
  Beta virt. eigenvalues --    0.07192   0.08054   0.08171   0.08605   0.09923
  Beta virt. eigenvalues --    0.10594   0.10881   0.11050   0.11455   0.12622
  Beta virt. eigenvalues --    0.13144   0.13202   0.13549   0.14507   0.15012

 Mulliken charges and spin densities:
               1          2
     1  C    0.202444  -0.616132
     2  C   -0.492402   0.405965
     3  C   -0.739015   0.054486
     4  C    0.093644  -0.105396
     5  C    0.946993  -1.441986
     6  O   -0.147587   0.042093
     7  N    0.050958  -0.042526
     8  N   -0.233372   0.271505
     9  C    1.383823  -1.761869
    10  C    0.731883  -1.049578
    11  H    0.168532  -0.006022
    12  H    0.035254   0.103047
    13  H    0.062397   0.077413
    14  H   -0.367167   0.514829
    15  H    0.132983   0.078001
    16  H   -0.213680   0.359668
    17  H   -0.185001   0.376493
    18  H   -0.048485   0.181993
    19  H   -0.258162   0.429751
    20  H    0.276733  -0.092002
    21  H   -0.416132   0.536810
    22  H   -0.495869   0.651642
    23  H   -0.779775   0.935028
    24  H   -0.330012   0.440184
    25  H   -0.126487   0.266209
    26  H   -0.252499   0.390393
 Sum of Mulliken charges =  -1.00000   1.00000

 Dipole moment (field-independent basis, Debye):
    X=             -5.1142    Y=              4.1330    Z=              1.5818  Tot=              6.7630
 Quadrupole moment (field-independent basis, Debye-Ang):
   XX=           -133.2035   YY=           -107.3127   ZZ=            -94.9750
   XY=              2.7335   XZ=             -0.8389   YZ=             -0.8961

 Summary of Natural Population Analysis:

                                       Natural Population
                Natural  -----------------------------------------------
    Atom  No    Charge         Core      Valence    Rydberg      Total
 -----------------------------------------------------------------------
      C    1   -0.28997      0.99964     2.28515    0.00518     3.28997
      C    2    0.06710      0.99954     1.91739    0.01596     2.93290
      C    3   -0.01778      0.99956     2.00443    0.01379     3.01778
      C    4   -0.21495      0.99962     2.20651    0.00882     3.21495
      C    5   -0.00662      0.99960     1.99444    0.01258     3.00662
      O    6   -0.31017      0.99989     3.30128    0.00901     4.31017
      N    7   -0.24972      0.99972     2.73651    0.01350     3.74972
      N    8   -0.18701      0.99973     2.67246    0.01481     3.68701
      C    9   -0.18455      0.99964     2.17549    0.00942     3.18455
      C   10   -0.17350      0.99964     2.16491    0.00895     3.17350
      H   11    0.10585      0.00000     0.39305    0.00110     0.39415
      H   12    0.09666      0.00000     0.40218    0.00116     0.40334
      H   13    0.09839      0.00000     0.40061    0.00100     0.40161
      H   14    0.08025      0.00000     0.41813    0.00162     0.41975
      H   15    0.09691      0.00000     0.40074    0.00235     0.40309
      H   16    0.10781      0.00000     0.39081    0.00138     0.39219
      H   17    0.10048      0.00000     0.39737    0.00216     0.39952
      H   18    0.07699      0.00000     0.42156    0.00145     0.42301
      H   19    0.08801      0.00000     0.41048    0.00151     0.41199
      H   20    0.16293      0.00000     0.33327    0.00381     0.33707
      H   21    0.08166      0.00000     0.41564    0.00270     0.41834
      H   22    0.09965      0.00000     0.39828    0.00208     0.40035
      H   23    0.09838      0.00000     0.39911    0.00251     0.40162
      H   24    0.08121      0.00000     0.41723    0.00157     0.41879
      H   25    0.09775      0.00000     0.40089    0.00137     0.40225
      H   26    0.09427      0.00000     0.40435    0.00138     0.40573
 =======================================================================
   * Total *    0.00000      9.99657    29.86225    0.14118    40.00000

 Normal termination of Gaussian 16 at Tue Dec  8 14:06:17 2020.
