 Gaussian 16, Revision A.03,

 -----------------------------------------------------------
 # opt freq B3LYP/6-31G(d) empiricaldispersion=gd3bj scf=xqc
 -----------------------------------------------------------

 ------------------------------
 CID_83225463_JID_6707_neutraal
 ------------------------------
 Symbolic Z-matrix:
 Charge =  0 Multiplicity = 1

 SCF Done:  E(RB3LYP) =  -714.460301552     A.U. after   14 cycles
 SCF Done:  E(RB3LYP) =  -714.467052988     A.U. after   13 cycles
 SCF Done:  E(RB3LYP) =  -714.467719596     A.U. after   12 cycles
 SCF Done:  E(RB3LYP) =  -714.467132600     A.U. after   13 cycles
 SCF Done:  E(RB3LYP) =  -714.468165259     A.U. after   13 cycles
 SCF Done:  E(RB3LYP) =  -714.467860499     A.U. after   12 cycles
 SCF Done:  E(RB3LYP) =  -714.468639732     A.U. after   12 cycles
 SCF Done:  E(RB3LYP) =  -714.468839129     A.U. after   11 cycles
 SCF Done:  E(RB3LYP) =  -714.469042826     A.U. after   12 cycles
 SCF Done:  E(RB3LYP) =  -714.469059133     A.U. after   12 cycles
 SCF Done:  E(RB3LYP) =  -714.471203178     A.U. after    8 cycles
 SCF Done:  E(RB3LYP) =  -714.471203546     A.U. after    8 cycles
 SCF Done:  E(RB3LYP) =  -714.471203844     A.U. after    8 cycles
 SCF Done:  E(RB3LYP) =  -714.471204073     A.U. after    8 cycles
 SCF Done:  E(RB3LYP) =  -714.471204215     A.U. after    8 cycles
 Optimization completed.
    -- Stationary point found.
 Normal termination of Gaussian 16 at Fri Dec 11 00:49:28 2020.

 --------------------------------------------------------------------
 #N Geom=AllCheck Guess=TCheck SCRF=Check GenChk RB3LYP/6-31G(d) Freq
 --------------------------------------------------------------------

 Structure from the checkpoint file:  "JID_6707.chk"
 ------------------------------
 CID_83225463_JID_6707_neutraal
 ------------------------------
 Charge =  0 Multiplicity = 1

 SCF Done:  E(RB3LYP) =  -714.471204215     A.U. after    1 cycles

  Exact polarizability: 162.956  -0.192 135.254   1.577  -0.589 125.060
 Approx polarizability: 197.947   1.183 209.594   1.156  -1.077 187.317

                      1                      2                      3
                      A                      A                      A
 Frequencies --     21.0755                41.4193                48.6060
 Red. masses --      4.0781                 2.5944                 3.1918
 Frc consts  --      0.0011                 0.0026                 0.0044
 IR Inten    --      1.3778                 0.0986                 0.6914

                      4                      5                      6
                      A                      A                      A
 Frequencies --     83.1995                95.9109               127.0352
 Red. masses --      2.6917                 2.6193                 2.7095
 Frc consts  --      0.0110                 0.0142                 0.0258
 IR Inten    --      0.6589                 0.3513                 3.8805

                      7                      8                      9
                      A                      A                      A
 Frequencies --    169.6817               187.7715               207.1234
 Red. masses --      3.7079                 2.4937                 1.9483
 Frc consts  --      0.0629                 0.0518                 0.0492
 IR Inten    --      2.9887                 0.3019                 2.3056

                     10                     11                     12
                      A                      A                      A
 Frequencies --    215.3642               233.9468               252.5689
 Red. masses --      1.2599                 1.5693                 1.4751
 Frc consts  --      0.0344                 0.0506                 0.0554
 IR Inten    --      0.3316                 2.5503                 0.1843

                     13                     14                     15
                      A                      A                      A
 Frequencies --    263.9436               289.3225               302.3573
 Red. masses --      1.5007                 3.3790                 2.6261
 Frc consts  --      0.0616                 0.1667                 0.1415
 IR Inten    --      0.5665                 1.1922                13.3817

                     16                     17                     18
                      A                      A                      A
 Frequencies --    323.0278               339.0432               380.4477
 Red. masses --      3.0715                 2.6053                 2.6699
 Frc consts  --      0.1888                 0.1764                 0.2277
 IR Inten    --      1.8957                 0.8926                 2.0100

                     19                     20                     21
                      A                      A                      A
 Frequencies --    401.3078               415.3124               452.3283
 Red. masses --      2.2250                 2.0798                 3.1662
 Frc consts  --      0.2111                 0.2114                 0.3817
 IR Inten    --      2.1482                 0.6491                 0.8240

                     22                     23                     24
                      A                      A                      A
 Frequencies --    505.4322               537.7781               568.9245
 Red. masses --      3.5094                 3.3754                 3.3514
 Frc consts  --      0.5282                 0.5751                 0.6391
 IR Inten    --      2.9734                14.7773                 8.6283

                     25                     26                     27
                      A                      A                      A
 Frequencies --    608.7713               694.1284               729.2232
 Red. masses --      3.0434                 3.9284                 2.5059
 Frc consts  --      0.6645                 1.1152                 0.7851
 IR Inten    --      5.1081                 2.3186                 1.2140

                     28                     29                     30
                      A                      A                      A
 Frequencies --    737.0897               741.5867               785.7756
 Red. masses --      3.2338                 3.9130                 1.7897
 Frc consts  --      1.0352                 1.2679                 0.6511
 IR Inten    --      1.7574                14.3659                26.6824

                     31                     32                     33
                      A                      A                      A
 Frequencies --    807.5564               831.8736               841.3561
 Red. masses --      1.8299                 2.2100                 2.7456
 Frc consts  --      0.7031                 0.9011                 1.1451
 IR Inten    --      0.3385                 2.3024                 1.8915

                     34                     35                     36
                      A                      A                      A
 Frequencies --    872.3732               889.3896               903.1477
 Red. masses --      2.6771                 2.6619                 1.6279
 Frc consts  --      1.2004                 1.2406                 0.7823
 IR Inten    --      1.5304                 4.4554                 1.1435

                     37                     38                     39
                      A                      A                      A
 Frequencies --    912.4318               934.2516               969.1584
 Red. masses --      1.9085                 2.5441                 3.0303
 Frc consts  --      0.9361                 1.3083                 1.6770
 IR Inten    --      0.2008                 6.0721                12.9654

                     40                     41                     42
                      A                      A                      A
 Frequencies --    999.6810              1005.0062              1015.8485
 Red. masses --      2.5651                 2.1549                 2.1294
 Frc consts  --      1.5103                 1.2824                 1.2947
 IR Inten    --      6.7410                 0.8212                 3.6639

                     43                     44                     45
                      A                      A                      A
 Frequencies --   1042.9859              1064.7384              1077.2498
 Red. masses --      2.0785                 2.2991                 1.8543
 Frc consts  --      1.3322                 1.5357                 1.2678
 IR Inten    --     11.0685                 3.5979                 4.5220

                     46                     47                     48
                      A                      A                      A
 Frequencies --   1086.4199              1105.1427              1118.1674
 Red. masses --      2.0144                 2.0768                 1.7544
 Frc consts  --      1.4008                 1.4944                 1.2924
 IR Inten    --      2.7401                 7.8044                 1.3035

                     49                     50                     51
                      A                      A                      A
 Frequencies --   1144.8084              1158.1455              1168.8469
 Red. masses --      3.1324                 2.7231                 2.3062
 Frc consts  --      2.4188                 2.1520                 1.8564
 IR Inten    --     74.4597                 3.3785                16.7362

                     52                     53                     54
                      A                      A                      A
 Frequencies --   1172.8138              1182.5919              1198.9684
 Red. masses --      1.4107                 1.5805                 2.3764
 Frc consts  --      1.1432                 1.3023                 2.0127
 IR Inten    --     16.3664                31.4268                90.4659

                     55                     56                     57
                      A                      A                      A
 Frequencies --   1207.5228              1210.0931              1233.8589
 Red. masses --      1.5470                 1.5397                 1.3780
 Frc consts  --      1.3290                 1.3283                 1.2361
 IR Inten    --     20.1904                 2.1442                 9.7885

                     58                     59                     60
                      A                      A                      A
 Frequencies --   1256.7492              1261.0200              1271.4914
 Red. masses --      1.4178                 1.4290                 1.3325
 Frc consts  --      1.3194                 1.3388                 1.2692
 IR Inten    --     20.4492                16.6346                 8.2128

                     61                     62                     63
                      A                      A                      A
 Frequencies --   1277.1691              1298.7893              1309.6475
 Red. masses --      1.4357                 1.3112                 1.2923
 Frc consts  --      1.3798                 1.3032                 1.3059
 IR Inten    --     10.3703                16.7195                 0.3888

                     64                     65                     66
                      A                      A                      A
 Frequencies --   1323.4719              1334.1843              1347.2606
 Red. masses --      1.4352                 1.4223                 1.4228
 Frc consts  --      1.4811                 1.4917                 1.5216
 IR Inten    --      8.1155                 6.2347                 3.7706

                     67                     68                     69
                      A                      A                      A
 Frequencies --   1363.2965              1372.9458              1377.1924
 Red. masses --      1.3473                 1.3407                 1.3625
 Frc consts  --      1.4753                 1.4890                 1.5226
 IR Inten    --      3.5570                 6.3511                30.2281

                     70                     71                     72
                      A                      A                      A
 Frequencies --   1384.0137              1388.9956              1407.7773
 Red. masses --      1.5991                 1.3967                 1.5127
 Frc consts  --      1.8047                 1.5877                 1.7663
 IR Inten    --      2.0897                 3.2688                18.1209

                     73                     74                     75
                      A                      A                      A
 Frequencies --   1448.0928              1481.4560              1491.3545
 Red. masses --      1.2520                 1.1749                 1.1423
 Frc consts  --      1.5468                 1.5193                 1.4969
 IR Inten    --      3.4018                 0.9087                 2.8173

                     76                     77                     78
                      A                      A                      A
 Frequencies --   1500.0386              1508.2650              1514.7671
 Red. masses --      1.1147                 1.0792                 1.0700
 Frc consts  --      1.4778                 1.4465                 1.4465
 IR Inten    --      2.0380                 0.4992                 4.8441

                     79                     80                     81
                      A                      A                      A
 Frequencies --   1517.4191              1519.3559              1523.3020
 Red. masses --      1.0569                 1.0571                 1.0725
 Frc consts  --      1.4338                 1.4378                 1.4663
 IR Inten    --      1.2922                 4.6748                 4.3536

                     82                     83                     84
                      A                      A                      A
 Frequencies --   1528.2583              1530.6067              1533.5939
 Red. masses --      1.0671                 1.0676                 1.0558
 Frc consts  --      1.4684                 1.4736                 1.4630
 IR Inten    --      8.5568                 4.2497                 9.8861

                     85                     86                     87
                      A                      A                      A
 Frequencies --   1540.9542              1542.2785              1550.8531
 Red. masses --      1.0519                 1.0569                 1.0865
 Frc consts  --      1.4716                 1.4812                 1.5396
 IR Inten    --      1.0963                 7.1771                10.8169

                     88                     89                     90
                      A                      A                      A
 Frequencies --   1790.5724              2971.0249              2997.6551
 Red. masses --     11.5352                 1.0574                 1.0485
 Frc consts  --     21.7902                 5.4995                 5.5510
 IR Inten    --     95.0704                81.8785                57.6504

                     91                     92                     93
                      A                      A                      A
 Frequencies --   3048.5548              3054.0877              3068.9375
 Red. masses --      1.0617                 1.0357                 1.0657
 Frc consts  --      5.8137                 5.6919                 5.9135
 IR Inten    --     31.9981                21.3108                 7.2529

                     94                     95                     96
                      A                      A                      A
 Frequencies --   3069.2356              3075.5832              3079.3794
 Red. masses --      1.0660                 1.0717                 1.0664
 Frc consts  --      5.9163                 5.9729                 5.9578
 IR Inten    --     23.6423                 4.0758                 3.1859

                     97                     98                     99
                      A                      A                      A
 Frequencies --   3080.6921              3081.6623              3085.2908
 Red. masses --      1.0723                 1.0626                 1.0857
 Frc consts  --      5.9959                 5.9455                 6.0891
 IR Inten    --     40.8910                37.5981                51.5045

                    100                    101                    102
                      A                      A                      A
 Frequencies --   3086.4620              3090.6781              3099.8716
 Red. masses --      1.1028                 1.0763                 1.0809
 Frc consts  --      6.1895                 6.0576                 6.1197
 IR Inten    --      8.8785                66.0012                24.9510

                    103                    104                    105
                      A                      A                      A
 Frequencies --   3107.9852              3118.1375              3120.9637
 Red. masses --      1.1043                 1.1021                 1.1041
 Frc consts  --      6.2849                 6.3135                 6.3363
 IR Inten    --      4.3641                63.3095                18.4773

                    106                    107                    108
                      A                      A                      A
 Frequencies --   3121.9555              3127.3664              3129.9508
 Red. masses --      1.1035                 1.1044                 1.1024
 Frc consts  --      6.3366                 6.3643                 6.3628
 IR Inten    --     37.3587                25.8775                30.4382

                    109                    110                    111
                      A                      A                      A
 Frequencies --   3130.5778              3137.6602              3153.3270
 Red. masses --      1.1027                 1.1031                 1.0957
 Frc consts  --      6.3674                 6.3984                 6.4191
 IR Inten    --     29.5213                17.4401                23.1314

 - Thermochemistry -
 -------------------
 Temperature   298.150 Kelvin.  Pressure   1.00000 Atm.
 Atom     1 has atomic number  6 and mass  12.00000

 Molecular mass:   225.17288 amu.
 Principal axes and moments of inertia in atomic units:
                           1         2         3
     Eigenvalues --  1790.934104997.683485445.15807
           X            0.99995  -0.00927  -0.00472
           Y            0.00909   0.99927  -0.03700
           Z            0.00506   0.03695   0.99930
 This molecule is an asymmetric top.
 Rotational symmetry number  1.
 Warning -- assumption of classical behavior for rotation
           may cause significant error
 Rotational temperatures (Kelvin)      0.04836     0.01733     0.01591
 Rotational constants (GHZ):           1.00771     0.36112     0.33144
 Zero-point vibrational energy     923793.1 (Joules/Mol)
                                  220.79185 (Kcal/Mol)
 Warning -- explicit consideration of  25 degrees of freedom as
           vibrations may cause significant error
 Vibrational temperatures:     30.32    59.59    69.93   119.71   137.99
          (Kelvin)            182.78   244.13   270.16   298.00   309.86
                              336.60   363.39   379.76   416.27   435.02
                              464.76   487.81   547.38   577.39   597.54
                              650.80   727.20   773.74   818.56   875.89
                              998.70  1049.19  1060.51  1066.98  1130.56
                             1161.89  1196.88  1210.52  1255.15  1279.63
                             1299.43  1312.79  1344.18  1394.40  1438.32
                             1445.98  1461.58  1500.62  1531.92  1549.92
                             1563.12  1590.05  1608.79  1647.12  1666.31
                             1681.71  1687.42  1701.49  1725.05  1737.36
                             1741.05  1775.25  1808.18  1814.33  1829.39
                             1837.56  1868.67  1884.29  1904.18  1919.59
                             1938.41  1961.48  1975.36  1981.47  1991.29
                             1998.45  2025.48  2083.48  2131.48  2145.73
                             2158.22  2170.06  2179.41  2183.23  2186.01
                             2191.69  2198.82  2202.20  2206.50  2217.09
                             2218.99  2231.33  2576.23  4274.64  4312.96
                             4386.19  4394.15  4415.52  4415.95  4425.08
                             4430.54  4432.43  4433.82  4439.05  4440.73
                             4446.80  4460.02  4471.70  4486.30  4490.37
                             4491.80  4499.58  4503.30  4504.20  4514.39
                             4536.93

 Zero-point correction=                           0.351854 (Hartree/Particle)
 Thermal correction to Energy=                    0.368434
 Thermal correction to Enthalpy=                  0.369378
 Thermal correction to Gibbs Free Energy=         0.307221
 Sum of electronic and zero-point Energies=           -714.119350
 Sum of electronic and thermal Energies=              -714.102770
 Sum of electronic and thermal Enthalpies=            -714.101826
 Sum of electronic and thermal Free Energies=         -714.163983

                     E (Thermal)             CV                S
                      KCal/Mol        Cal/Mol-Kelvin    Cal/Mol-Kelvin
 Total                  231.196             63.755            130.820
 Electronic               0.000              0.000              0.000
 Translational            0.889              2.981             42.138
 Rotational               0.889              2.981             32.255
 Vibrational            229.418             57.794             56.427
 Vibration     1          0.593              1.985              6.530
 Vibration     2          0.594              1.981              5.190
 Vibration     3          0.595              1.978              4.873
 Vibration     4          0.600              1.961              3.814
 Vibration     5          0.603              1.952              3.536
 Vibration     6          0.611              1.926              2.990
 Vibration     7          0.625              1.880              2.439
 Vibration     8          0.632              1.857              2.250
 Vibration     9          0.641              1.830              2.069
 Vibration    10          0.645              1.818              1.998
 Vibration    11          0.654              1.789              1.848
 Vibration    12          0.664              1.758              1.713
 Vibration    13          0.671              1.739              1.636
 Vibration    14          0.686              1.694              1.478
 Vibration    15          0.694              1.669              1.404
 Vibration    16          0.708              1.629              1.295
 Vibration    17          0.719              1.597              1.217
 Vibration    18          0.750              1.512              1.037
 Vibration    19          0.767              1.467              0.958
 Vibration    20          0.779              1.437              0.908
 Vibration    21          0.811              1.356              0.789
 Vibration    22          0.861              1.238              0.645
 Vibration    23          0.893              1.166              0.570
 Vibration    24          0.925              1.098              0.506
 Vibration    25          0.968              1.013              0.435

 Optimization completed.
    -- Stationary point found.
 Normal termination of Gaussian 16 at Fri Dec 11 01:07:19 2020.

 ----------------------------------------------------------------------
 # B3LYP/6-311++G(d,p) empiricaldispersion=gd3bj scf=xqc pop=npa geom=c
 heck
 ----------------------------------------------------------------------

 --------------------------------------
 CID_83225463_JID_6707_Energie_neutraal
 --------------------------------------
 Structure from the checkpoint file:  "JID_6707.chk"
 Charge =  0 Multiplicity = 1

 SCF Done:  E(RB3LYP) =  -714.669450555     A.U. after   14 cycles
 Normal termination of Gaussian 16 at Fri Dec 11 01:15:56 2020.

 ----------------------------------------------------------------------
 # B3LYP/6-311++G(d,p) empiricaldispersion=gd3bj scf=xqc pop=npa geom=c
 heck
 ----------------------------------------------------------------------

 ------------------------------------
 CID_83225463_JID_6707_Energie_kation
 ------------------------------------
 Structure from the checkpoint file:  "JID_6707.chk"
 Charge =  1 Multiplicity = 2

 SCF Done:  E(UB3LYP) =  -714.384879615     A.U. after   23 cycles
 Normal termination of Gaussian 16 at Fri Dec 11 01:35:37 2020.
 Gaussian 16:  ES64L-G16RevA.03 25-Dec-2016

 ----------------------------------------------------------------------
 # B3LYP/6-311++G(d,p) empiricaldispersion=gd3bj scf=xqc pop=npa geom=c
 heck
 ----------------------------------------------------------------------

 -----------------------------------
 CID_83225463_JID_6707_Energie_anion
 -----------------------------------
 Structure from the checkpoint file:  "JID_6707.chk"
 Charge = -1 Multiplicity = 2

                         Standard orientation:
 ---------------------------------------------------------------------
 Center     Atomic      Atomic             Coordinates (Angstroms)
 Number     Number       Type             X           Y           Z
 ---------------------------------------------------------------------
      1          6           0       -3.619569    0.429870    1.508687
      2          6           0       -4.012193   -0.214178    0.176817
      3          6           0       -2.933033   -0.077500   -0.917364
      4          6           0       -1.663752   -0.815196   -0.521199
      5          8           0       -1.649101   -2.033316   -0.475504
      6          6           0       -0.380294   -0.016538   -0.174129
      7          6           0        0.233280   -0.579484    1.126360
      8          6           0        1.755274   -0.316938    1.228934
      9          6           0        2.601029   -1.541418    0.757079
     10          6           0        2.864805   -1.252928   -0.742662
     11          6           0        2.079285    0.065357   -0.991359
     12          6           0        0.597168   -0.213233   -1.359749
     13          7           0        2.108258    0.775012    0.298894
     14          6           0        3.392218    1.396428    0.595725
     15          8           0       -0.748713    1.337377    0.118561
     16          6           0       -0.429322    2.368736   -0.788598
     17          1           0       -2.754561   -0.074259    1.953856
     18          1           0       -4.444542    0.371825    2.227370
     19          1           0       -3.347473    1.482006    1.377174
     20          1           0       -4.215755   -1.281604    0.322650
     21          1           0       -4.938719    0.239248   -0.196709
     22          1           0       -3.298691   -0.551839   -1.835588
     23          1           0       -2.735734    0.976421   -1.117719
     24          1           0       -0.292079   -0.092163    1.952541
     25          1           0        0.025819   -1.650923    1.179687
     26          1           0        2.008008   -0.020084    2.250461
     27          1           0        2.071597   -2.484324    0.918070
     28          1           0        3.540555   -1.600211    1.315269
     29          1           0        2.534439   -2.062099   -1.399987
     30          1           0        3.932313   -1.100712   -0.930724
     31          1           0        2.543647    0.686643   -1.763197
     32          1           0        0.488346   -1.252230   -1.682935
     33          1           0        0.283385    0.406288   -2.204486
     34          1           0        3.327953    1.899858    1.565822
     35          1           0        4.249103    0.700380    0.631151
     36          1           0        3.607664    2.155487   -0.163890
     37          1           0        0.653812    2.457946   -0.928332
     38          1           0       -0.920371    2.249862   -1.767240
     39          1           0       -0.803398    3.289047   -0.331205
 ---------------------------------------------------------------------

 SCF Done:  E(UB3LYP) =  -714.658201773     A.U. after   33 cycles
 SCF Done:  E(UB3LYP) =  -714.658201773     a.u. after    1 cycles

 The electronic state is 2-A.
 Alpha  occ. eigenvalues --  -19.01684 -18.99724 -14.19978 -10.13623 -10.13084
 Alpha  occ. eigenvalues --  -10.10534 -10.09861 -10.09779 -10.08526 -10.07146
 Alpha  occ. eigenvalues --  -10.07069 -10.06610 -10.06560 -10.06475 -10.06122
 Alpha  occ. eigenvalues --  -10.05854  -0.93823  -0.92469  -0.84105  -0.70128
 Alpha  occ. eigenvalues --   -0.69023  -0.66618  -0.66164  -0.60840  -0.59482
 Alpha  occ. eigenvalues --   -0.57434  -0.54911  -0.52174  -0.49198  -0.47785
 Alpha  occ. eigenvalues --   -0.43791  -0.42115  -0.41190  -0.39413  -0.37539
 Alpha  occ. eigenvalues --   -0.36837  -0.36468  -0.34918  -0.34158  -0.33282
 Alpha  occ. eigenvalues --   -0.33184  -0.31693  -0.30838  -0.30675  -0.30337
 Alpha  occ. eigenvalues --   -0.29252  -0.29023  -0.28325  -0.27827  -0.26315
 Alpha  occ. eigenvalues --   -0.24909  -0.24435  -0.23946  -0.23620  -0.23505
 Alpha  occ. eigenvalues --   -0.22490  -0.22356  -0.21384  -0.19931  -0.17671
 Alpha  occ. eigenvalues --   -0.13105  -0.11761   0.04227
 Alpha virt. eigenvalues --    0.05787   0.07088   0.07368   0.07981   0.08338
 Alpha virt. eigenvalues --    0.08658   0.09109   0.09854   0.10022   0.10435
 Alpha virt. eigenvalues --    0.10900   0.11135   0.11855   0.12093   0.13155

  Beta  occ. eigenvalues --  -19.01678 -18.99610 -14.19975 -10.13467 -10.13096
  Beta  occ. eigenvalues --  -10.10513 -10.09845 -10.09772 -10.08490 -10.07137
  Beta  occ. eigenvalues --  -10.07042 -10.06600 -10.06544 -10.06481 -10.06110
  Beta  occ. eigenvalues --  -10.05840  -0.93697  -0.92348  -0.84091  -0.70077
  Beta  occ. eigenvalues --   -0.68968  -0.66583  -0.66133  -0.60752  -0.59434
  Beta  occ. eigenvalues --   -0.57382  -0.54872  -0.52032  -0.49141  -0.47748
  Beta  occ. eigenvalues --   -0.43685  -0.42055  -0.41134  -0.39309  -0.37458
  Beta  occ. eigenvalues --   -0.36812  -0.36428  -0.34817  -0.34089  -0.33248
  Beta  occ. eigenvalues --   -0.33136  -0.31609  -0.30767  -0.30641  -0.30308
  Beta  occ. eigenvalues --   -0.29180  -0.28846  -0.28283  -0.27763  -0.26147
  Beta  occ. eigenvalues --   -0.24868  -0.24405  -0.23916  -0.23543  -0.23474
  Beta  occ. eigenvalues --   -0.22327  -0.22251  -0.21354  -0.19862  -0.17619
  Beta  occ. eigenvalues --   -0.13042  -0.11732
  Beta virt. eigenvalues --    0.06397   0.06852   0.07711   0.08012   0.08433
  Beta virt. eigenvalues --    0.08793   0.09240   0.09407   0.10102   0.10185
  Beta virt. eigenvalues --    0.10879   0.11136   0.11343   0.12148   0.12291

 Mulliken charges and spin densities:
               1          2
     1  C   -0.196893  -0.326976
     2  C    0.223783  -0.612287
     3  C   -0.573081   0.576323
     4  C   -0.178448  -0.076094
     5  O   -0.233984   0.047239
     6  C   -0.582620   0.604485
     7  C   -0.283508  -0.527548
     8  C   -0.066539   0.378897
     9  C   -0.145035  -0.470534
    10  C    0.377895  -1.079320
    11  C   -0.621227   0.833582
    12  C    0.652022  -1.111315
    13  N    0.198463  -0.090198
    14  C    0.957782  -1.176235
    15  O   -0.001157   0.004836
    16  C    0.458478  -0.670596
    17  H    0.071945   0.075670
    18  H   -0.014673   0.145766
    19  H    0.119523   0.026031
    20  H    0.182837  -0.031233
    21  H   -0.414753   0.581749
    22  H   -0.184297   0.386558
    23  H    0.006748   0.099921
    24  H    0.125176   0.000004
    25  H    0.230938  -0.007169
    26  H    0.007420   0.217020
    27  H    0.111915   0.006924
    28  H   -0.133437   0.301774
    29  H    0.032883   0.094179
    30  H   -0.148478   0.317281
    31  H   -0.591457   0.841906
    32  H    0.169249   0.070618
    33  H    0.219834  -0.075183
    34  H   -0.112068   0.257702
    35  H   -0.153920   0.300867
    36  H   -0.287709   0.430046
    37  H    0.105015   0.057396
    38  H   -0.176549   0.308648
    39  H   -0.152073   0.289267
 Sum of Mulliken charges =  -1.00000   1.00000

 Dipole moment (field-independent basis, Debye):
    X=             -0.6761    Y=             -1.3755    Z=              1.9691  Tot=              2.4953
 Quadrupole moment (field-independent basis, Debye-Ang):
   XX=           -187.3757   YY=           -140.3851   ZZ=           -131.8155
   XY=             -4.9024   XZ=             -1.6062   YZ=              0.8694

 Summary of Natural Population Analysis:

                                       Natural Population
                Natural  -----------------------------------------------
    Atom  No    Charge         Core      Valence    Rydberg      Total
 -----------------------------------------------------------------------
      C    1   -0.28749      0.99966     2.28182    0.00601     3.28749
      C    2   -0.18246      0.99963     2.17484    0.00799     3.18246
      C    3   -0.23632      0.99957     2.22700    0.00974     3.23632
      C    4    0.31723      0.99959     1.65927    0.02391     2.68277
      O    5   -0.29219      0.99987     3.28631    0.00600     4.29219
      C    6    0.11009      0.99944     1.87378    0.01669     2.88991
      C    7   -0.19573      0.99956     2.18643    0.00974     3.19573
      C    8   -0.00379      0.99960     1.99147    0.01272     3.00379
      C    9   -0.20441      0.99962     2.19657    0.00822     3.20441
      C   10   -0.20243      0.99962     2.19448    0.00833     3.20243
      C   11   -0.00698      0.99960     1.99282    0.01456     3.00698
      C   12   -0.20595      0.99956     2.19652    0.00987     3.20595
      N   13   -0.28681      0.99972     2.77303    0.01406     3.78681
      C   14   -0.17594      0.99963     2.16751    0.00880     3.17594
      O   15   -0.30984      0.99987     3.29905    0.01092     4.30984
      C   16   -0.10010      0.99958     2.09051    0.01000     3.10010
      H   17    0.09744      0.00000     0.40156    0.00099     0.40256
      H   18    0.09395      0.00000     0.40535    0.00070     0.40605
      H   19    0.10109      0.00000     0.39784    0.00107     0.39891
      H   20    0.09688      0.00000     0.40197    0.00115     0.40312
      H   21    0.09527      0.00000     0.40328    0.00145     0.40473
      H   22    0.11000      0.00000     0.38857    0.00142     0.39000
      H   23    0.10459      0.00000     0.39342    0.00200     0.39541
      H   24    0.10682      0.00000     0.39188    0.00130     0.39318
      H   25    0.10803      0.00000     0.39080    0.00118     0.39197
      H   26    0.09923      0.00000     0.39985    0.00091     0.40077
      H   27    0.09996      0.00000     0.39912    0.00092     0.40004
      H   28    0.10056      0.00000     0.39842    0.00102     0.39944
      H   29    0.09943      0.00000     0.39956    0.00100     0.40057
      H   30    0.10135      0.00000     0.39748    0.00117     0.39865
      H   31    0.10300      0.00000     0.39521    0.00179     0.39700
      H   32    0.11103      0.00000     0.38767    0.00130     0.38897
      H   33    0.10624      0.00000     0.39239    0.00137     0.39376
      H   34    0.09519      0.00000     0.40375    0.00106     0.40481
      H   35    0.08207      0.00000     0.41615    0.00178     0.41793
      H   36    0.09763      0.00000     0.40109    0.00128     0.40237
      H   37    0.08937      0.00000     0.40877    0.00186     0.41063
      H   38    0.07421      0.00000     0.42446    0.00133     0.42579
      H   39    0.08977      0.00000     0.40930    0.00093     0.41023
 =======================================================================
   * Total *    0.00000     15.99414    45.79932    0.20655    62.00000

 Normal termination of Gaussian 16 at Fri Dec 11 02:03:47 2020.
