 Gaussian 16, Revision A.03,

 -----------------------------------------------------------
 # opt freq B3LYP/6-31G(d) empiricaldispersion=gd3bj scf=xqc
 -----------------------------------------------------------

 -------------------------------
 CID_151274794_JID_7276_neutraal
 -------------------------------
 Symbolic Z-matrix:
 Charge =  0 Multiplicity = 1

 SCF Done:  E(RB3LYP) =  -710.670523297     A.U. after   15 cycles
 SCF Done:  E(RB3LYP) =  -710.676237810     A.U. after   12 cycles
 SCF Done:  E(RB3LYP) =  -710.678239617     A.U. after   14 cycles
 SCF Done:  E(RB3LYP) =  -710.678446535     A.U. after   15 cycles
 SCF Done:  E(RB3LYP) =  -710.679894263     A.U. after   12 cycles
 SCF Done:  E(RB3LYP) =  -710.679996609     A.U. after   11 cycles
 SCF Done:  E(RB3LYP) =  -710.680028363     A.U. after   10 cycles
 SCF Done:  E(RB3LYP) =  -710.680034291     A.U. after    9 cycles
 SCF Done:  E(RB3LYP) =  -710.680035058     A.U. after    8 cycles
 SCF Done:  E(RB3LYP) =  -710.680035288     A.U. after    7 cycles
 SCF Done:  E(RB3LYP) =  -710.680039836     A.U. after    9 cycles
 SCF Done:  E(RB3LYP) =  -710.680040529     A.U. after    9 cycles
 SCF Done:  E(RB3LYP) =  -710.680040805     A.U. after    7 cycles
 SCF Done:  E(RB3LYP) =  -710.680040852     A.U. after    7 cycles
 SCF Done:  E(RB3LYP) =  -710.680040867     A.U. after    6 cycles
 Optimization completed.
    -- Stationary point found.
 Normal termination of Gaussian 16 at Fri Dec 11 12:05:31 2020.

 --------------------------------------------------------------------
 #N Geom=AllCheck Guess=TCheck SCRF=Check GenChk RB3LYP/6-31G(d) Freq
 --------------------------------------------------------------------

 Structure from the checkpoint file:  "JID_7276.chk"
 -------------------------------
 CID_151274794_JID_7276_neutraal
 -------------------------------
 Charge =  0 Multiplicity = 1

 SCF Done:  E(RB3LYP) =  -710.680040867     A.U. after    1 cycles

  Exact polarizability: 274.307   5.113 155.262   5.247  -5.862  85.537
 Approx polarizability: 362.982   2.572 269.266   9.470 -15.145 137.463

                      1                      2                      3
                      A                      A                      A
 Frequencies --     28.4551                43.6299                62.0948
 Red. masses --      1.0397                 4.5571                 3.5518
 Frc consts  --      0.0005                 0.0051                 0.0081
 IR Inten    --      0.2811                 0.0781                 0.1789

                      4                      5                      6
                      A                      A                      A
 Frequencies --     75.1319               105.6446               126.7780
 Red. masses --      4.6837                 4.9502                 3.4023
 Frc consts  --      0.0156                 0.0326                 0.0322
 IR Inten    --      0.2526                 2.2308                 0.7113

                      7                      8                      9
                      A                      A                      A
 Frequencies --    197.3017               234.1928               258.2370
 Red. masses --      4.1158                 4.4494                 4.2922
 Frc consts  --      0.0944                 0.1438                 0.1686
 IR Inten    --      0.5576                 0.3186                 0.3909

                     10                     11                     12
                      A                      A                      A
 Frequencies --    269.0064               316.6492               344.9915
 Red. masses --      3.6630                 3.3624                 2.5644
 Frc consts  --      0.1562                 0.1986                 0.1798
 IR Inten    --      2.2066                 0.7136                 2.9321

                     13                     14                     15
                      A                      A                      A
 Frequencies --    374.9967               420.9177               422.2528
 Red. masses --      3.2263                 3.2280                 3.6957
 Frc consts  --      0.2673                 0.3370                 0.3882
 IR Inten    --      1.1287                 1.3017                 3.1387

                     16                     17                     18
                      A                      A                      A
 Frequencies --    478.2413               509.6027               525.8176
 Red. masses --      6.0769                 3.3141                 1.9389
 Frc consts  --      0.8189                 0.5071                 0.3158
 IR Inten    --      6.8753                 7.3525                 7.3419

                     19                     20                     21
                      A                      A                      A
 Frequencies --    539.0711               555.1441               611.3827
 Red. masses --      2.6534                 4.0420                 2.1077
 Frc consts  --      0.4543                 0.7339                 0.4642
 IR Inten    --     14.9021                 3.3117                62.7442

                     22                     23                     24
                      A                      A                      A
 Frequencies --    617.9920               641.1411               663.9852
 Red. masses --      2.5093                 3.3752                 5.6748
 Frc consts  --      0.5646                 0.8174                 1.4741
 IR Inten    --     22.5770                12.3762                 1.8193

                     25                     26                     27
                      A                      A                      A
 Frequencies --    675.3676               700.2230               736.2832
 Red. masses --      3.8108                 5.9356                 3.0639
 Frc consts  --      1.0241                 1.7147                 0.9786
 IR Inten    --     12.7899                 2.9489                 4.9472

                     28                     29                     30
                      A                      A                      A
 Frequencies --    781.2588               798.4376               816.0034
 Red. masses --      2.6438                 1.5726                 3.1460
 Frc consts  --      0.9508                 0.5907                 1.2342
 IR Inten    --      9.2017                28.2444                15.4430

                     31                     32                     33
                      A                      A                      A
 Frequencies --    843.0511               854.5862               860.9625
 Red. masses --      1.5444                 1.4595                 1.3962
 Frc consts  --      0.6467                 0.6280                 0.6098
 IR Inten    --     22.8005                 6.5301                 4.0026

                     34                     35                     36
                      A                      A                      A
 Frequencies --    865.4517               890.0031               943.1436
 Red. masses --      3.8448                 2.0701                 2.4818
 Frc consts  --      1.6967                 0.9661                 1.3007
 IR Inten    --      1.5703                15.6929                37.5184

                     37                     38                     39
                      A                      A                      A
 Frequencies --    966.3015               968.8928               989.3067
 Red. masses --      1.3358                 1.3090                 3.0095
 Frc consts  --      0.7349                 0.7240                 1.7354
 IR Inten    --      0.4259                 0.9703                 0.4364

                     40                     41                     42
                      A                      A                      A
 Frequencies --   1019.8483              1028.0110              1044.3652
 Red. masses --      1.4495                 2.3788                 2.7324
 Frc consts  --      0.8883                 1.4812                 1.7559
 IR Inten    --      0.1609                21.4353                 0.5778

                     43                     44                     45
                      A                      A                      A
 Frequencies --   1064.0748              1075.3299              1092.7050
 Red. masses --      2.7014                 1.5232                 2.4592
 Frc consts  --      1.8021                 1.0377                 1.7300
 IR Inten    --      3.6430                14.8208                 3.1140

                     46                     47                     48
                      A                      A                      A
 Frequencies --   1116.7205              1153.7788              1175.5420
 Red. masses --      1.9206                 1.3071                 1.2514
 Frc consts  --      1.4112                 1.0252                 1.0189
 IR Inten    --      4.1832                 5.1843                 0.2834

                     49                     50                     51
                      A                      A                      A
 Frequencies --   1217.6040              1220.9168              1225.3922
 Red. masses --      1.5674                 1.2836                 1.3479
 Frc consts  --      1.3691                 1.1273                 1.1925
 IR Inten    --     75.8565                30.6592                34.9943

                     52                     53                     54
                      A                      A                      A
 Frequencies --   1247.2981              1261.4185              1281.0974
 Red. masses --      3.3032                 2.5801                 1.3607
 Frc consts  --      3.0278                 2.4189                 1.3158
 IR Inten    --      3.2658               112.9451                 0.8533

                     55                     56                     57
                      A                      A                      A
 Frequencies --   1301.7092              1322.0405              1326.2411
 Red. masses --      1.9025                 1.4969                 2.2918
 Frc consts  --      1.8993                 1.5414                 2.3751
 IR Inten    --      4.3112                24.1000                21.3507

                     58                     59                     60
                      A                      A                      A
 Frequencies --   1342.7029              1353.9361              1368.9122
 Red. masses --      1.7974                 1.7611                 2.2626
 Frc consts  --      1.9092                 1.9021                 2.4980
 IR Inten    --     21.5046                 0.1755                19.4651

                     61                     62                     63
                      A                      A                      A
 Frequencies --   1381.3344              1399.1300              1442.6241
 Red. masses --      2.0954                 2.0624                 1.2480
 Frc consts  --      2.3556                 2.3787                 1.5303
 IR Inten    --     15.3844                 6.9205                 0.9595

                     64                     65                     66
                      A                      A                      A
 Frequencies --   1445.3999              1464.1183              1493.8031
 Red. masses --      2.3325                 2.5348                 1.0978
 Frc consts  --      2.8711                 3.2014                 1.4432
 IR Inten    --      5.1018                 4.4594                 4.1721

                     67                     68                     69
                      A                      A                      A
 Frequencies --   1504.5736              1517.5832              1522.0006
 Red. masses --      1.0974                 1.0503                 1.1051
 Frc consts  --      1.4637                 1.4252                 1.5083
 IR Inten    --      3.9557                 5.5087                 8.0538

                     70                     71                     72
                      A                      A                      A
 Frequencies --   1565.8806              1621.7741              1656.9157
 Red. masses --      2.5674                 5.4030                 7.1209
 Frc consts  --      3.7090                 8.3727                11.5182
 IR Inten    --     23.6503                 1.5530                66.5080

                     73                     74                     75
                      A                      A                      A
 Frequencies --   1676.2986              1744.8317              1850.9907
 Red. masses --      5.8245                 7.8023                11.0891
 Frc consts  --      9.6430                13.9952                22.3850
 IR Inten    --      2.3974               339.7793               587.6075

                     76                     77                     78
                      A                      A                      A
 Frequencies --   2969.3695              3007.3132              3040.3660
 Red. masses --      1.0726                 1.0824                 1.0407
 Frc consts  --      5.5719                 5.7674                 5.6680
 IR Inten    --     35.5825                24.8659                42.3844

                     79                     80                     81
                      A                      A                      A
 Frequencies --   3054.3944              3088.5384              3097.1453
 Red. masses --      1.0698                 1.0889                 1.0954
 Frc consts  --      5.8804                 6.1199                 6.1910
 IR Inten    --     17.5293                30.1685                22.7673

                     82                     83                     84
                      A                      A                      A
 Frequencies --   3124.8881              3142.8178              3175.7329
 Red. masses --      1.1026                 1.0946                 1.0880
 Frc consts  --      6.3436                 6.3699                 6.4650
 IR Inten    --     16.6217                10.8473                16.3316

                     85                     86                     87
                      A                      A                      A
 Frequencies --   3176.0934              3196.1560              3198.2242
 Red. masses --      1.0876                 1.0918                 1.0916
 Frc consts  --      6.4641                 6.5716                 6.5784
 IR Inten    --     29.9618                 7.8116                 3.9810

                     88                     89                     90
                      A                      A                      A
 Frequencies --   3201.8219              3204.8484              3620.9710
 Red. masses --      1.0911                 1.0919                 1.0782
 Frc consts  --      6.5902                 6.6075                 8.3291
 IR Inten    --     32.9673                 6.1132                34.6145

 - Thermochemistry -
 -------------------
 Temperature   298.150 Kelvin.  Pressure   1.00000 Atm.
 Atom     1 has atomic number  6 and mass  12.00000

 Molecular mass:   225.11536 amu.
 Principal axes and moments of inertia in atomic units:
                           1         2         3
     Eigenvalues --  1105.082619370.74593**********
           X            0.99993   0.01148   0.00146
           Y           -0.01147   0.99992  -0.00589
           Z           -0.00152   0.00587   0.99998
 This molecule is an asymmetric top.
 Rotational symmetry number  1.
 Warning -- assumption of classical behavior for rotation
           may cause significant error
 Rotational temperatures (Kelvin)      0.07838     0.00924     0.00844
 Rotational constants (GHZ):           1.63313     0.19259     0.17587
 Zero-point vibrational energy     699441.7 (Joules/Mol)
                                  167.17057 (Kcal/Mol)
 Warning -- explicit consideration of  22 degrees of freedom as
           vibrations may cause significant error
 Vibrational temperatures:     40.94    62.77    89.34   108.10   152.00
          (Kelvin)            182.41   283.87   336.95   371.55   387.04
                              455.59   496.37   539.54   605.61   607.53
                              688.08   733.20   756.53   775.60   798.73
                              879.64   889.15   922.46   955.33   971.70
                             1007.46  1059.35  1124.06  1148.77  1174.05
                             1212.96  1229.56  1238.73  1245.19  1280.52
                             1356.97  1390.29  1394.02  1423.39  1467.33
                             1479.08  1502.61  1530.97  1547.16  1572.16
                             1606.71  1660.03  1691.34  1751.86  1756.63
                             1763.07  1794.58  1814.90  1843.21  1872.87
                             1902.12  1908.17  1931.85  1948.01  1969.56
                             1987.43  2013.04  2075.61  2079.61  2106.54
                             2149.25  2164.75  2183.46  2189.82  2252.95
                             2333.37  2383.93  2411.82  2510.42  2663.16
                             4272.26  4326.85  4374.41  4394.59  4443.72
                             4456.10  4496.02  4521.81  4569.17  4569.69
                             4598.56  4601.53  4606.71  4611.06  5209.77

 Zero-point correction=                           0.266403 (Hartree/Particle)
 Thermal correction to Energy=                    0.280775
 Thermal correction to Enthalpy=                  0.281719
 Thermal correction to Gibbs Free Energy=         0.223711
 Sum of electronic and zero-point Energies=           -710.413638
 Sum of electronic and thermal Energies=              -710.399266
 Sum of electronic and thermal Enthalpies=            -710.398322
 Sum of electronic and thermal Free Energies=         -710.456330

                     E (Thermal)             CV                S
                      KCal/Mol        Cal/Mol-Kelvin    Cal/Mol-Kelvin
 Total                  176.189             56.702            122.088
 Electronic               0.000              0.000              0.000
 Translational            0.889              2.981             42.137
 Rotational               0.889              2.981             33.030
 Vibrational            174.411             50.740             46.922
 Vibration     1          0.593              1.984              5.934
 Vibration     2          0.595              1.980              5.087
 Vibration     3          0.597              1.972              4.389
 Vibration     4          0.599              1.966              4.014
 Vibration     5          0.605              1.945              3.347
 Vibration     6          0.611              1.926              2.994
 Vibration     7          0.637              1.844              2.158
 Vibration     8          0.654              1.789              1.847
 Vibration     9          0.667              1.749              1.674
 Vibration    10          0.673              1.730              1.603
 Vibration    11          0.704              1.642              1.327
 Vibration    12          0.723              1.585              1.189
 Vibration    13          0.746              1.523              1.059
 Vibration    14          0.783              1.425              0.889
 Vibration    15          0.785              1.422              0.884
 Vibration    16          0.835              1.298              0.715
 Vibration    17          0.865              1.229              0.635
 Vibration    18          0.881              1.193              0.597
 Vibration    19          0.894              1.164              0.567
 Vibration    20          0.911              1.128              0.534
 Vibration    21          0.971              1.008              0.430
 Vibration    22          0.978              0.994              0.420

 Optimization completed.
    -- Stationary point found.
 Normal termination of Gaussian 16 at Fri Dec 11 12:16:24 2020.

 ----------------------------------------------------------------------
 # B3LYP/6-311++G(d,p) empiricaldispersion=gd3bj scf=xqc pop=npa geom=c
 heck
 ----------------------------------------------------------------------

 ---------------------------------------
 CID_151274794_JID_7276_Energie_neutraal
 ---------------------------------------
 Structure from the checkpoint file:  "JID_7276.chk"
 Charge =  0 Multiplicity = 1

 SCF Done:  E(RB3LYP) =  -710.868434602     A.U. after   15 cycles
 Normal termination of Gaussian 16 at Fri Dec 11 12:21:39 2020.

 ----------------------------------------------------------------------
 # B3LYP/6-311++G(d,p) empiricaldispersion=gd3bj scf=xqc pop=npa geom=c
 heck
 ----------------------------------------------------------------------

 -------------------------------------
 CID_151274794_JID_7276_Energie_kation
 -------------------------------------
 Structure from the checkpoint file:  "JID_7276.chk"
 Charge =  1 Multiplicity = 2

 SCF Done:  E(UB3LYP) =  -710.605673189     A.U. after   22 cycles
 Normal termination of Gaussian 16 at Fri Dec 11 12:32:37 2020.
 Gaussian 16:  ES64L-G16RevA.03 25-Dec-2016

 ----------------------------------------------------------------------
 # B3LYP/6-311++G(d,p) empiricaldispersion=gd3bj scf=xqc pop=npa geom=c
 heck
 ----------------------------------------------------------------------

 ------------------------------------
 CID_151274794_JID_7276_Energie_anion
 ------------------------------------
 Structure from the checkpoint file:  "JID_7276.chk"
 Charge = -1 Multiplicity = 2

                         Standard orientation:
 ---------------------------------------------------------------------
 Center     Atomic      Atomic             Coordinates (Angstroms)
 Number     Number       Type             X           Y           Z
 ---------------------------------------------------------------------
      1          6           0       -5.928049   -0.655561    0.040172
      2          6           0       -4.448875   -0.358109    0.031577
      3          6           0       -3.516057   -1.307664    0.462540
      4          6           0       -2.148800   -1.045196    0.422260
      5          6           0       -1.660986    0.185434   -0.042869
      6          6           0       -2.597915    1.134710   -0.481535
      7          6           0       -3.962536    0.868802   -0.438587
      8          6           0       -0.206791    0.467044   -0.060340
      9          6           0        0.288171    1.705496    0.173062
     10          6           0        1.771164    1.987887    0.096385
     11          6           0        2.566772    0.773588    0.574689
     12          6           0        4.069904    0.719196    0.250856
     13          6           0        4.338220   -0.747117   -0.101390
     14          8           0        5.404373   -1.312369   -0.227374
     15          7           0        3.092517   -1.335692   -0.292957
     16          6           0        2.020460   -0.483841   -0.076479
     17          6           0        0.715015   -0.643711   -0.349116
     18          1           0       -6.265855   -1.023468   -0.937870
     19          1           0       -6.177128   -1.422753    0.780478
     20          1           0       -6.515402    0.240315    0.268774
     21          1           0       -3.865684   -2.265666    0.840463
     22          1           0       -1.448919   -1.793840    0.782331
     23          1           0       -2.246619    2.082336   -0.878821
     24          1           0       -4.665055    1.622191   -0.787825
     25          1           0       -0.383335    2.525977    0.406694
     26          1           0        2.054495    2.212367   -0.947663
     27          1           0        2.032636    2.872602    0.686646
     28          1           0        2.422723    0.661301    1.660844
     29          1           0        4.726634    1.045872    1.059562
     30          1           0        4.307324    1.322864   -0.635609
     31          1           0        3.015335   -2.283893   -0.637326
     32          1           0        0.328068   -1.553151   -0.798327
 ---------------------------------------------------------------------

 SCF Done:  E(UB3LYP) =  -710.864333520     A.U. after   33 cycles
 SCF Done:  E(UB3LYP) =  -710.864333520     a.u. after    1 cycles

 The electronic state is 2-A.
 Alpha  occ. eigenvalues --  -18.98422 -14.23774 -10.16090 -10.07147 -10.06941
 Alpha  occ. eigenvalues --  -10.06455 -10.06168 -10.04655 -10.04597 -10.04439
 Alpha  occ. eigenvalues --  -10.04372 -10.03755 -10.03701 -10.03642 -10.02611
 Alpha  occ. eigenvalues --  -10.02388 -10.00221  -0.93562  -0.83952  -0.73182
 Alpha  occ. eigenvalues --   -0.70654  -0.67147  -0.64509  -0.61693  -0.60361
 Alpha  occ. eigenvalues --   -0.59381  -0.54993  -0.50040  -0.48662  -0.47636
 Alpha  occ. eigenvalues --   -0.46718  -0.45273  -0.40709  -0.38430  -0.36055
 Alpha  occ. eigenvalues --   -0.35446  -0.33996  -0.33306  -0.32619  -0.31367
 Alpha  occ. eigenvalues --   -0.31221  -0.31210  -0.29439  -0.29092  -0.28474
 Alpha  occ. eigenvalues --   -0.27542  -0.27087  -0.26561  -0.25165  -0.23284
 Alpha  occ. eigenvalues --   -0.22813  -0.21640  -0.20682  -0.20214  -0.19688
 Alpha  occ. eigenvalues --   -0.16374  -0.15000  -0.12839  -0.11116  -0.06657
 Alpha  occ. eigenvalues --    0.05274
 Alpha virt. eigenvalues --    0.07301   0.07936   0.08704   0.09362   0.09732
 Alpha virt. eigenvalues --    0.09814   0.09961   0.10895   0.11035   0.11277
 Alpha virt. eigenvalues --    0.12005   0.12459   0.13078   0.13345   0.13516

  Beta  occ. eigenvalues --  -18.98344 -14.23806 -10.16013 -10.07136 -10.06674
  Beta  occ. eigenvalues --  -10.06456 -10.06181 -10.04679 -10.04485 -10.04413
  Beta  occ. eigenvalues --  -10.04361 -10.03678 -10.03620 -10.03568 -10.02601
  Beta  occ. eigenvalues --  -10.02346  -9.99763  -0.93417  -0.83818  -0.72967
  Beta  occ. eigenvalues --   -0.70430  -0.66940  -0.64310  -0.61556  -0.59948
  Beta  occ. eigenvalues --   -0.59211  -0.54798  -0.49908  -0.48505  -0.47422
  Beta  occ. eigenvalues --   -0.46465  -0.45051  -0.40479  -0.38208  -0.35913
  Beta  occ. eigenvalues --   -0.35244  -0.33849  -0.33144  -0.32482  -0.31247
  Beta  occ. eigenvalues --   -0.31027  -0.30979  -0.29341  -0.28974  -0.28305
  Beta  occ. eigenvalues --   -0.27309  -0.26922  -0.26460  -0.24739  -0.22944
  Beta  occ. eigenvalues --   -0.22588  -0.21527  -0.20314  -0.20029  -0.19492
  Beta  occ. eigenvalues --   -0.15535  -0.14899  -0.12527  -0.10416  -0.04986
  Beta virt. eigenvalues --    0.07259   0.07903   0.08715   0.09260   0.09639
  Beta virt. eigenvalues --    0.09808   0.09850   0.10691   0.10927   0.11036
  Beta virt. eigenvalues --    0.11698   0.11960   0.12436   0.13074   0.13410

 Mulliken charges and spin densities:
               1          2
     1  C   -0.325935  -0.296911
     2  C    0.690099   0.079392
     3  C   -0.595803   0.003686
     4  C   -0.738737   0.079688
     5  C    0.576630   0.028697
     6  C   -0.416336   0.099098
     7  C   -0.612453   0.018728
     8  C    0.914064   0.023188
     9  C   -0.010068   0.507376
    10  C   -0.757885  -0.214864
    11  C    0.620342   0.264802
    12  C   -0.350361  -0.257103
    13  C    0.018640   0.100696
    14  O   -0.395329   0.026639
    15  N   -0.177836  -0.028222
    16  C   -0.305437   0.053676
    17  C   -0.753469  -0.020981
    18  H    0.002945   0.145700
    19  H    0.129218  -0.008924
    20  H    0.126110  -0.002075
    21  H    0.077291   0.039309
    22  H    0.081939   0.039641
    23  H    0.060823   0.050118
    24  H    0.098184   0.025664
    25  H    0.156083  -0.038323
    26  H    0.127251   0.007962
    27  H    0.054166   0.062893
    28  H    0.134110   0.044510
    29  H    0.127168   0.031636
    30  H    0.126038   0.025966
    31  H    0.232132   0.058533
    32  H    0.086418   0.049803
 Sum of Mulliken charges =  -1.00000   1.00000

 Dipole moment (field-independent basis, Debye):
    X=             -1.3575    Y=              0.5323    Z=              0.6273  Tot=              1.5873
 Quadrupole moment (field-independent basis, Debye-Ang):
   XX=           -187.2436   YY=           -114.7074   ZZ=           -113.1226
   XY=              7.6963   XZ=             -1.6447   YZ=             -0.8547

 Summary of Natural Population Analysis:

                                       Natural Population
                Natural  -----------------------------------------------
    Atom  No    Charge         Core      Valence    Rydberg      Total
 -----------------------------------------------------------------------
      C    1   -0.29006      0.99965     2.28583    0.00458     3.29006
      C    2   -0.00200      0.99952     1.99340    0.00907     3.00200
      C    3   -0.11238      0.99953     2.10318    0.00968     3.11238
      C    4   -0.08923      0.99953     2.07997    0.00973     3.08923
      C    5   -0.00330      0.99949     1.99317    0.01064     3.00330
      C    6   -0.08076      0.99953     2.07217    0.00906     3.08076
      C    7   -0.11566      0.99953     2.10592    0.01021     3.11566
      C    8   -0.03706      0.99947     2.02817    0.00942     3.03706
      C    9    0.00028      0.99950     1.99218    0.00803     2.99972
      C   10   -0.19935      0.99962     2.19094    0.00879     3.19935
      C   11   -0.11762      0.99957     2.10847    0.00958     3.11762
      C   12   -0.22842      0.99959     2.22119    0.00764     3.22842
      C   13    0.35288      0.99970     1.62379    0.02362     2.64712
      O   14   -0.31729      0.99987     3.31114    0.00628     4.31729
      N   15   -0.30931      0.99963     2.80160    0.00808     3.80931
      C   16    0.13546      0.99949     1.85350    0.01156     2.86454
      C   17   -0.13998      0.99946     2.13252    0.00799     3.13998
      H   18    0.09993      0.00000     0.39854    0.00153     0.40007
      H   19    0.09649      0.00000     0.40271    0.00079     0.40351
      H   20    0.09674      0.00000     0.40243    0.00083     0.40326
      H   21    0.09064      0.00000     0.40841    0.00095     0.40936
      H   22    0.09801      0.00000     0.40076    0.00123     0.40199
      H   23    0.09728      0.00000     0.40104    0.00168     0.40272
      H   24    0.09078      0.00000     0.40812    0.00110     0.40922
      H   25    0.08617      0.00000     0.41281    0.00102     0.41383
      H   26    0.09687      0.00000     0.40146    0.00167     0.40313
      H   27    0.09500      0.00000     0.40318    0.00181     0.40500
      H   28    0.10218      0.00000     0.39593    0.00188     0.39782
      H   29    0.10585      0.00000     0.39263    0.00152     0.39415
      H   30    0.10545      0.00000     0.39247    0.00208     0.39455
      H   31    0.19565      0.00000     0.30166    0.00268     0.30435
      H   32    0.09672      0.00000     0.40143    0.00184     0.40328
 =======================================================================
   * Total *    0.00000     16.99267    42.82074    0.18659    60.00000

 Normal termination of Gaussian 16 at Fri Dec 11 12:52:07 2020.
