 Gaussian 16, Revision A.03,

 -----------------------------------------------------------
 # opt freq B3LYP/6-31G(d) empiricaldispersion=gd3bj scf=xqc
 -----------------------------------------------------------

 ------------------------------
 CID_66166638_JID_4171_neutraal
 ------------------------------
 Symbolic Z-matrix:
 Charge =  0 Multiplicity = 1

 SCF Done:  E(RB3LYP) =  -1103.60333923     A.U. after   14 cycles
 SCF Done:  E(RB3LYP) =  -1103.61072791     A.U. after   12 cycles
 SCF Done:  E(RB3LYP) =  -1103.61101449     A.U. after   12 cycles
 SCF Done:  E(RB3LYP) =  -1103.61195080     A.U. after   12 cycles
 SCF Done:  E(RB3LYP) =  -1103.61241655     A.U. after   11 cycles
 SCF Done:  E(RB3LYP) =  -1103.61253129     A.U. after   12 cycles
 SCF Done:  E(RB3LYP) =  -1103.61263227     A.U. after   12 cycles
 SCF Done:  E(RB3LYP) =  -1103.61268102     A.U. after   11 cycles
 SCF Done:  E(RB3LYP) =  -1103.61274177     A.U. after   11 cycles
 SCF Done:  E(RB3LYP) =  -1103.61280834     A.U. after   12 cycles
 SCF Done:  E(RB3LYP) =  -1103.61471394     A.U. after   13 cycles
 SCF Done:  E(RB3LYP) =  -1103.61503107     A.U. after   12 cycles
 SCF Done:  E(RB3LYP) =  -1103.61504227     A.U. after   11 cycles
 SCF Done:  E(RB3LYP) =  -1103.61504465     A.U. after    8 cycles
 SCF Done:  E(RB3LYP) =  -1103.61504487     A.U. after    8 cycles
 Optimization completed.
    -- Stationary point found.
 Normal termination of Gaussian 16 at Thu Dec 10 09:28:14 2020.

 --------------------------------------------------------------------
 #N Geom=AllCheck Guess=TCheck SCRF=Check GenChk RB3LYP/6-31G(d) Freq
 --------------------------------------------------------------------

 Structure from the checkpoint file:  "JID_4171.chk"
 ------------------------------
 CID_66166638_JID_4171_neutraal
 ------------------------------
 Charge =  0 Multiplicity = 1

 SCF Done:  E(RB3LYP) =  -1103.61504487     A.U. after    1 cycles

  Exact polarizability: 121.964  -6.432 100.814   3.684  -0.310  97.742
 Approx polarizability: 159.447  -8.540 159.547  11.334   5.000 156.690

                      1                      2                      3
                      A                      A                      A
 Frequencies --     33.3057                42.6366                64.6277
 Red. masses --      8.0264                 5.1313                 8.6692
 Frc consts  --      0.0052                 0.0055                 0.0213
 IR Inten    --      3.2794                 0.2208                 0.4868

                      4                      5                      6
                      A                      A                      A
 Frequencies --    106.7631               113.7122               191.4531
 Red. masses --      6.0660                 5.5772                 5.0702
 Frc consts  --      0.0407                 0.0425                 0.1095
 IR Inten    --      4.2221                 4.5865                 1.7295

                      7                      8                      9
                      A                      A                      A
 Frequencies --    207.7070               242.0474               257.0183
 Red. masses --      3.1598                 5.2723                 3.7087
 Frc consts  --      0.0803                 0.1820                 0.1443
 IR Inten    --      0.2215                 1.2589                 3.0774

                     10                     11                     12
                      A                      A                      A
 Frequencies --    277.1757               299.3850               329.5827
 Red. masses --      4.0834                 2.5312                 2.7580
 Frc consts  --      0.1848                 0.1337                 0.1765
 IR Inten    --     12.5656                 1.8134                 6.3757

                     13                     14                     15
                      A                      A                      A
 Frequencies --    359.7792               407.7233               416.4884
 Red. masses --      3.2967                 3.9476                 2.2890
 Frc consts  --      0.2514                 0.3866                 0.2339
 IR Inten    --      2.1856                 9.1641                13.2799

                     16                     17                     18
                      A                      A                      A
 Frequencies --    427.0523               441.2625               455.3856
 Red. masses --      3.9038                 1.3932                 2.5671
 Frc consts  --      0.4195                 0.1598                 0.3137
 IR Inten    --     11.5011               118.4839                 5.0297

                     19                     20                     21
                      A                      A                      A
 Frequencies --    476.1640               517.9788               615.5855
 Red. masses --      4.9028                 6.7019                 2.1248
 Frc consts  --      0.6549                 1.0594                 0.4744
 IR Inten    --      8.6931                25.3267                29.5584

                     22                     23                     24
                      A                      A                      A
 Frequencies --    629.6918               652.3749               658.1046
 Red. masses --      1.3997                 4.1326                 3.7116
 Frc consts  --      0.3270                 1.0362                 0.9471
 IR Inten    --     84.6992                20.4642                20.3749

                     25                     26                     27
                      A                      A                      A
 Frequencies --    714.3936               766.8466               806.7126
 Red. masses --      2.3311                 3.5134                 2.7275
 Frc consts  --      0.7009                 1.2173                 1.0458
 IR Inten    --     21.7771                47.9527                10.4359

                     28                     29                     30
                      A                      A                      A
 Frequencies --    812.1046               869.5109               971.7997
 Red. masses --      3.1000                 2.4610                 2.1167
 Frc consts  --      1.2046                 1.0962                 1.1778
 IR Inten    --     16.4897                22.3022                21.5063

                     31                     32                     33
                      A                      A                      A
 Frequencies --    978.8834              1008.2840              1021.8299
 Red. masses --      1.7737                 1.9256                 1.8700
 Frc consts  --      1.0014                 1.1534                 1.1504
 IR Inten    --      3.8618                10.2278                 7.6056

                     34                     35                     36
                      A                      A                      A
 Frequencies --   1028.1365              1069.3452              1079.5956
 Red. masses --      2.1697                 2.3473                 2.7924
 Frc consts  --      1.3513                 1.5815                 1.9176
 IR Inten    --     10.4541                56.4416                33.7772

                     37                     38                     39
                      A                      A                      A
 Frequencies --   1116.9228              1117.8722              1157.8435
 Red. masses --      4.6782                 5.9602                 2.2023
 Frc consts  --      3.4385                 4.3883                 1.7395
 IR Inten    --    103.4161               165.2741                34.3663

                     40                     41                     42
                      A                      A                      A
 Frequencies --   1167.3004              1188.6257              1194.2006
 Red. masses --      2.4739                 1.9672                 1.3859
 Frc consts  --      1.9861                 1.6376                 1.1645
 IR Inten    --     20.9481               140.8075                15.6947

                     43                     44                     45
                      A                      A                      A
 Frequencies --   1221.5526              1241.9233              1282.3336
 Red. masses --      1.2986                 1.2345                 1.3413
 Frc consts  --      1.1417                 1.1219                 1.2995
 IR Inten    --     20.5217                10.6915                31.5985

                     46                     47                     48
                      A                      A                      A
 Frequencies --   1303.0552              1308.4459              1332.1875
 Red. masses --      3.6467                 1.5851                 2.0766
 Frc consts  --      3.6482                 1.5989                 2.1713
 IR Inten    --     78.5437                20.4780               105.5734

                     49                     50                     51
                      A                      A                      A
 Frequencies --   1337.2088              1346.7857              1381.2287
 Red. masses --      1.2666                 1.5229                 1.3027
 Frc consts  --      1.3344                 1.6275                 1.4643
 IR Inten    --     10.2770                 7.2880                19.0777

                     52                     53                     54
                      A                      A                      A
 Frequencies --   1388.6661              1397.2024              1422.0204
 Red. masses --      1.3338                 1.5371                 1.3468
 Frc consts  --      1.5155                 1.7679                 1.6045
 IR Inten    --      9.2595               102.9426                15.7539

                     55                     56                     57
                      A                      A                      A
 Frequencies --   1446.6077              1464.7756              1476.5710
 Red. masses --      1.4024                 1.1029                 1.0973
 Frc consts  --      1.7291                 1.3943                 1.4096
 IR Inten    --      3.5865                 6.2107                10.1712

                     58                     59                     60
                      A                      A                      A
 Frequencies --   1488.1877              1512.6829              1522.2228
 Red. masses --      1.5819                 1.0878                 1.0797
 Frc consts  --      2.0642                 1.4665                 1.4741
 IR Inten    --      9.8185                 1.7473                 5.9519

                     61                     62                     63
                      A                      A                      A
 Frequencies --   1538.7240              1839.7387              2981.2897
 Red. masses --      1.1068                 9.6844                 1.0705
 Frc consts  --      1.5439                19.3124                 5.6057
 IR Inten    --     11.7604               243.9705                26.3371

                     64                     65                     66
                      A                      A                      A
 Frequencies --   2989.1012              2992.3527              3089.7908
 Red. masses --      1.0721                 1.0716                 1.0872
 Frc consts  --      5.6439                 5.6533                 6.1156
 IR Inten    --     26.1460                74.2340                 1.2532

                     67                     68                     69
                      A                      A                      A
 Frequencies --   3094.6341              3099.2212              3101.8357
 Red. masses --      1.0729                 1.0600                 1.0777
 Frc consts  --      6.0537                 5.9989                 6.1090
 IR Inten    --      5.1511                 5.5419                10.3515

                     70                     71                     72
                      A                      A                      A
 Frequencies --   3114.6740              3131.3022              3159.7512
 Red. masses --      1.0884                 1.0889                 1.1083
 Frc consts  --      6.2213                 6.2907                 6.5196
 IR Inten    --     27.3587                21.4269                 1.2993

                     73                     74                     75
                      A                      A                      A
 Frequencies --   3164.0771              3668.9468              3677.5145
 Red. masses --      1.1084                 1.0640                 1.0651
 Frc consts  --      6.5378                 8.4383                 8.4869
 IR Inten    --      3.1804                54.7811                35.5928

 - Thermochemistry -
 -------------------
 Temperature   298.150 Kelvin.  Pressure   1.00000 Atm.
 Atom     1 has atomic number  6 and mass  12.00000

 Molecular mass:   223.05144 amu.
 Principal axes and moments of inertia in atomic units:
                           1         2         3
     Eigenvalues --  1328.677315617.549025952.97766
           X            0.99999  -0.00354  -0.00329
           Y            0.00334   0.99821  -0.05972
           Z            0.00350   0.05971   0.99821
 This molecule is an asymmetric top.
 Rotational symmetry number  1.
 Warning -- assumption of classical behavior for rotation
           may cause significant error
 Rotational temperatures (Kelvin)      0.06519     0.01542     0.01455
 Rotational constants (GHZ):           1.35830     0.32127     0.30317
 Zero-point vibrational energy     573070.0 (Joules/Mol)
                                  136.96702 (Kcal/Mol)
 Warning -- explicit consideration of  21 degrees of freedom as
           vibrations may cause significant error
 Vibrational temperatures:     47.92    61.34    92.98   153.61   163.61
          (Kelvin)            275.46   298.84   348.25   369.79   398.79
                              430.75   474.20   517.64   586.62   599.23
                              614.43   634.88   655.20   685.09   745.26
                              885.69   905.99   938.62   946.87  1027.85
                             1103.32  1160.68  1168.44  1251.03  1398.20
                             1408.39  1450.70  1470.19  1479.26  1538.55
                             1553.30  1607.00  1608.37  1665.88  1679.48
                             1710.17  1718.19  1757.54  1786.85  1844.99
                             1874.81  1882.56  1916.72  1923.95  1937.72
                             1987.28  1997.98  2010.26  2045.97  2081.35
                             2107.49  2124.46  2141.17  2176.41  2190.14
                             2213.88  2646.97  4289.41  4300.65  4305.33
                             4445.52  4452.49  4459.09  4462.85  4481.32
                             4505.25  4546.18  4552.40  5278.80  5291.12

 Zero-point correction=                           0.218271 (Hartree/Particle)
 Thermal correction to Energy=                    0.232111
 Thermal correction to Enthalpy=                  0.233055
 Thermal correction to Gibbs Free Energy=         0.176732
 Sum of electronic and zero-point Energies=          -1103.396774
 Sum of electronic and thermal Energies=             -1103.382934
 Sum of electronic and thermal Enthalpies=           -1103.381989
 Sum of electronic and thermal Free Energies=        -1103.438313

                     E (Thermal)             CV                S
                      KCal/Mol        Cal/Mol-Kelvin    Cal/Mol-Kelvin
 Total                  145.652             52.312            118.542
 Electronic               0.000              0.000              0.000
 Translational            0.889              2.981             42.109
 Rotational               0.889              2.981             32.163
 Vibrational            143.875             46.351             44.270
 Vibration     1          0.594              1.983              5.622
 Vibration     2          0.595              1.980              5.133
 Vibration     3          0.597              1.971              4.311
 Vibration     4          0.606              1.944              3.327
 Vibration     5          0.607              1.938              3.205
 Vibration     6          0.634              1.852              2.214
 Vibration     7          0.641              1.829              2.064
 Vibration     8          0.658              1.776              1.788
 Vibration     9          0.667              1.751              1.682
 Vibration    10          0.678              1.716              1.551
 Vibration    11          0.692              1.675              1.420
 Vibration    12          0.712              1.616              1.262
 Vibration    13          0.734              1.555              1.123
 Vibration    14          0.772              1.453              0.935
 Vibration    15          0.780              1.434              0.904
 Vibration    16          0.789              1.411              0.868
 Vibration    17          0.801              1.380              0.823
 Vibration    18          0.814              1.349              0.780
 Vibration    19          0.833              1.303              0.720
 Vibration    20          0.873              1.210              0.615
 Vibration    21          0.975              0.999              0.424

                           ! Non-Optimized Parameters !
 Normal termination of Gaussian 16 at Thu Dec 10 09:35:35 2020.

 ----------------------------------------------------------------------
 # B3LYP/6-311++G(d,p) empiricaldispersion=gd3bj scf=xqc pop=npa geom=c
 heck
 ----------------------------------------------------------------------

 --------------------------------------
 CID_66166638_JID_4171_Energie_neutraal
 --------------------------------------
 Structure from the checkpoint file:  "JID_4171.chk"
 Charge =  0 Multiplicity = 1

 SCF Done:  E(RB3LYP) =  -1103.86792681     A.U. after   15 cycles
 Normal termination of Gaussian 16 at Thu Dec 10 09:38:26 2020.

 ----------------------------------------------------------------------
 # B3LYP/6-311++G(d,p) empiricaldispersion=gd3bj scf=xqc pop=npa geom=c
 heck
 ----------------------------------------------------------------------

 ------------------------------------
 CID_66166638_JID_4171_Energie_kation
 ------------------------------------
 Structure from the checkpoint file:  "JID_4171.chk"
 Charge =  1 Multiplicity = 2

 SCF Done:  E(UB3LYP) =  -1103.53424839     A.U. after   27 cycles
 Normal termination of Gaussian 16 at Thu Dec 10 09:45:23 2020.
 Gaussian 16:  ES64L-G16RevA.03 25-Dec-2016

 ----------------------------------------------------------------------
 # B3LYP/6-311++G(d,p) empiricaldispersion=gd3bj scf=xqc pop=npa geom=c
 heck
 ----------------------------------------------------------------------

 -----------------------------------
 CID_66166638_JID_4171_Energie_anion
 -----------------------------------
 Structure from the checkpoint file:  "JID_4171.chk"
 Charge = -1 Multiplicity = 2

                         Standard orientation:
 ---------------------------------------------------------------------
 Center     Atomic      Atomic             Coordinates (Angstroms)
 Number     Number       Type             X           Y           Z
 ---------------------------------------------------------------------
      1          6           0       -0.310182   -0.318063   -1.208724
      2          6           0       -1.397090    0.749578   -1.092215
      3         16           0       -2.726707    0.182464   -0.002222
      4          8           0       -3.585274    1.319422    0.359596
      5          8           0       -3.297739   -1.040009   -0.595664
      6          6           0       -1.745081   -0.314900    1.436503
      7          6           0       -0.612938   -1.253324    1.015278
      8          7           0        0.308702   -0.589893    0.091705
      9          6           0        1.580806   -1.292779   -0.027023
     10          6           0        2.716111   -0.402281   -0.579873
     11          6           0        2.727546    0.912014    0.188292
     12          8           0        3.306125    1.037693    1.247050
     13          8           0        2.043668    1.902993   -0.412666
     14          8           0        3.959780   -1.051564   -0.422602
     15          1           0       -0.735503   -1.230454   -1.660733
     16          1           0        0.452512    0.066700   -1.888967
     17          1           0       -1.871095    0.956626   -2.055814
     18          1           0       -0.995753    1.673540   -0.669328
     19          1           0       -1.356977    0.598980    1.893324
     20          1           0       -2.445909   -0.802136    2.120357
     21          1           0       -1.044973   -2.174935    0.588799
     22          1           0       -0.054844   -1.533517    1.914185
     23          1           0        1.893377   -1.595269    0.977744
     24          1           0        1.526768   -2.206869   -0.643500
     25          1           0        2.586982   -0.205030   -1.646827
     26          1           0        2.091509    2.676890    0.181491
     27          1           0        4.252802   -0.844466    0.483749
 ---------------------------------------------------------------------

 SCF Done:  E(UB3LYP) =  -1103.86204539     A.U. after   33 cycles
 SCF Done:  E(UB3LYP) =  -1103.86204539     a.u. after    1 cycles

 The electronic state is 2-A.
 Alpha  occ. eigenvalues --  -88.94807 -19.07858 -19.04610 -19.03137 -19.02100
 Alpha  occ. eigenvalues --  -19.01947 -14.23330 -10.21858 -10.15237 -10.12444
 Alpha  occ. eigenvalues --  -10.12357 -10.12036 -10.11727 -10.11603  -8.01346
 Alpha  occ. eigenvalues --   -5.97610  -5.97493  -5.97441  -1.02327  -1.01206
 Alpha  occ. eigenvalues --   -0.95643  -0.93098  -0.90934  -0.85893  -0.72341
 Alpha  occ. eigenvalues --   -0.70105  -0.66882  -0.59517  -0.57593  -0.54632
 Alpha  occ. eigenvalues --   -0.51151  -0.47880  -0.45558  -0.42865  -0.41344
 Alpha  occ. eigenvalues --   -0.40712  -0.40092  -0.39977  -0.38086  -0.37517
 Alpha  occ. eigenvalues --   -0.36734  -0.35969  -0.33966  -0.33342  -0.32220
 Alpha  occ. eigenvalues --   -0.31181  -0.30128  -0.29896  -0.29425  -0.28092
 Alpha  occ. eigenvalues --   -0.26535  -0.23988  -0.23712  -0.22772  -0.21280
 Alpha  occ. eigenvalues --   -0.20936  -0.19683  -0.19206  -0.14933   0.04122
 Alpha virt. eigenvalues --    0.06382   0.06865   0.07889   0.08043   0.09394
 Alpha virt. eigenvalues --    0.09503   0.10068   0.10359   0.11584   0.12184
 Alpha virt. eigenvalues --    0.12918   0.13031   0.13877   0.14762   0.14802

  Beta  occ. eigenvalues --  -88.94805 -19.07776 -19.04598 -19.03117 -19.02098
  Beta  occ. eigenvalues --  -19.01938 -14.23314 -10.21855 -10.15213 -10.12419
  Beta  occ. eigenvalues --  -10.12334 -10.12022 -10.11698 -10.11576  -8.01344
  Beta  occ. eigenvalues --   -5.97608  -5.97490  -5.97441  -1.02236  -1.01192
  Beta  occ. eigenvalues --   -0.95599  -0.93032  -0.90920  -0.85857  -0.72301
  Beta  occ. eigenvalues --   -0.70060  -0.66824  -0.59439  -0.57517  -0.54563
  Beta  occ. eigenvalues --   -0.51057  -0.47812  -0.45489  -0.42816  -0.41305
  Beta  occ. eigenvalues --   -0.40690  -0.40047  -0.39936  -0.38050  -0.37480
  Beta  occ. eigenvalues --   -0.36690  -0.35931  -0.33921  -0.33290  -0.32175
  Beta  occ. eigenvalues --   -0.31122  -0.30086  -0.29863  -0.29381  -0.28049
  Beta  occ. eigenvalues --   -0.26505  -0.23955  -0.23657  -0.22765  -0.21259
  Beta  occ. eigenvalues --   -0.20914  -0.19635  -0.19179  -0.14853
  Beta virt. eigenvalues --    0.06705   0.07498   0.07726   0.08122   0.08552
  Beta virt. eigenvalues --    0.09812   0.09977   0.10362   0.10844   0.11660
  Beta virt. eigenvalues --    0.12436   0.13151   0.13438   0.14377   0.14886

 Mulliken charges and spin densities:
               1          2
     1  C   -0.391221   0.025899
     2  C   -0.057016  -0.770468
     3  S    0.676879  -0.086890
     4  O   -0.168053   0.034398
     5  O   -0.250123   0.005866
     6  C   -0.688231  -0.199470
     7  C    0.630897  -0.778581
     8  N    0.190074   0.176920
     9  C   -0.109335  -0.038923
    10  C    0.317242  -0.774134
    11  C    0.563287  -0.573517
    12  O   -0.301833   0.041171
    13  O   -0.188195   0.057151
    14  O   -0.215201   0.023520
    15  H    0.043568   0.134898
    16  H   -0.153701   0.309348
    17  H   -0.010416   0.256601
    18  H    0.102905   0.153452
    19  H   -0.034209   0.297488
    20  H   -0.060393   0.320392
    21  H    0.151871   0.027618
    22  H   -0.508886   0.682317
    23  H   -0.094730   0.292869
    24  H    0.132891  -0.007028
    25  H   -0.203589   0.450651
    26  H   -0.612371   0.922961
    27  H    0.237889   0.015491
 Sum of Mulliken charges =  -1.00000   1.00000

 Dipole moment (field-independent basis, Debye):
    X=             -0.1321    Y=             -4.5363    Z=             -1.5602  Tot=              4.7989
 Quadrupole moment (field-independent basis, Debye-Ang):
   XX=           -159.9673   YY=           -134.7648   ZZ=           -125.7088
   XY=             -6.7004   XZ=             -0.2744   YZ=             -0.9210

 Summary of Natural Population Analysis:

                                       Natural Population
                Natural  -----------------------------------------------
    Atom  No    Charge         Core      Valence    Rydberg      Total
 -----------------------------------------------------------------------
      C    1   -0.09468      0.99960     2.08318    0.01191     3.09468
      C    2   -0.29337      0.99958     2.28135    0.01244     3.29337
      S    3    1.02039      4.99925     1.88601    0.09435     6.97961
      O    4   -0.46664      0.99991     3.46120    0.00552     4.46664
      O    5   -0.47487      0.99991     3.46947    0.00549     4.47487
      C    6   -0.29354      0.99958     2.28137    0.01258     3.29354
      C    7   -0.09182      0.99960     2.08013    0.01209     3.09182
      N    8   -0.28737      0.99970     2.77345    0.01422     3.78737
      C    9   -0.08597      0.99959     2.07561    0.01076     3.08597
      C   10    0.02082      0.99953     1.96572    0.01393     2.97918
      C   11    0.40120      0.99970     1.57158    0.02753     2.59880
      O   12   -0.31175      0.99987     3.30488    0.00700     4.31175
      O   13   -0.33706      0.99987     3.32888    0.00831     4.33706
      O   14   -0.36620      0.99990     3.35972    0.00658     4.36620
      H   15    0.09186      0.00000     0.40677    0.00138     0.40814
      H   16    0.10916      0.00000     0.38880    0.00205     0.39084
      H   17    0.11892      0.00000     0.37998    0.00111     0.38108
      H   18    0.12397      0.00000     0.37381    0.00221     0.37603
      H   19    0.12090      0.00000     0.37699    0.00211     0.37910
      H   20    0.11954      0.00000     0.37918    0.00127     0.38046
      H   21    0.09086      0.00000     0.40778    0.00136     0.40914
      H   22    0.10913      0.00000     0.38850    0.00236     0.39087
      H   23    0.10271      0.00000     0.39543    0.00187     0.39729
      H   24    0.08845      0.00000     0.41019    0.00136     0.41155
      H   25    0.09825      0.00000     0.40000    0.00175     0.40175
      H   26    0.25052      0.00000     0.21600    0.03348     0.24948
      H   27    0.23658      0.00000     0.26031    0.00310     0.26342
 =======================================================================
   * Total *    0.00000     17.99559    40.70629    0.29812    59.00000

 Normal termination of Gaussian 16 at Thu Dec 10 09:53:51 2020.
