 Gaussian 16, Revision A.03,

 -----------------------------------------------------------
 # opt freq B3LYP/6-31G(d) empiricaldispersion=gd3bj scf=xqc
 -----------------------------------------------------------

 -------------------------------
 CID_121183071_JID_6549_neutraal
 -------------------------------
 Symbolic Z-matrix:
 Charge =  0 Multiplicity = 1

 SCF Done:  E(RB3LYP) =  -1107.98779621     A.U. after   14 cycles
 SCF Done:  E(RB3LYP) =  -1107.99198266     A.U. after   12 cycles
 SCF Done:  E(RB3LYP) =  -1107.99252364     A.U. after   12 cycles
 SCF Done:  E(RB3LYP) =  -1107.99258606     A.U. after   11 cycles
 SCF Done:  E(RB3LYP) =  -1107.99261591     A.U. after   10 cycles
 SCF Done:  E(RB3LYP) =  -1107.99263001     A.U. after   10 cycles
 SCF Done:  E(RB3LYP) =  -1107.99263712     A.U. after   10 cycles
 SCF Done:  E(RB3LYP) =  -1107.99263921     A.U. after    8 cycles
 SCF Done:  E(RB3LYP) =  -1107.99264025     A.U. after    8 cycles
 SCF Done:  E(RB3LYP) =  -1107.99264041     A.U. after    7 cycles
 Optimization completed.
    -- Stationary point found.
 Normal termination of Gaussian 16 at Thu Dec 10 23:29:46 2020.

 --------------------------------------------------------------------
 #N Geom=AllCheck Guess=TCheck SCRF=Check GenChk RB3LYP/6-31G(d) Freq
 --------------------------------------------------------------------

 Structure from the checkpoint file:  "JID_6549.chk"
 -------------------------------
 CID_121183071_JID_6549_neutraal
 -------------------------------
 Charge =  0 Multiplicity = 1

 SCF Done:  E(RB3LYP) =  -1107.99264041     A.U. after    1 cycles

  Exact polarizability: 143.432   6.913 133.805  -1.190   1.293 132.660
 Approx polarizability: 187.849  20.213 211.607 -13.989  -1.050 220.142

                      1                      2                      3
                      A                      A                      A
 Frequencies --     26.5227                33.6414                41.2193
 Red. masses --      5.5629                 5.6408                 4.6746
 Frc consts  --      0.0023                 0.0038                 0.0047
 IR Inten    --      1.2204                 1.3378                 3.0229

                      4                      5                      6
                      A                      A                      A
 Frequencies --     80.2775               102.8645               170.8439
 Red. masses --      3.8541                 4.9978                 3.1460
 Frc consts  --      0.0146                 0.0312                 0.0541
 IR Inten    --      0.1745                 1.5282                 3.0337

                      7                      8                      9
                      A                      A                      A
 Frequencies --    184.9050               195.7006               225.2783
 Red. masses --      1.1579                 3.9779                 3.7789
 Frc consts  --      0.0233                 0.0898                 0.1130
 IR Inten    --      0.0367                 1.3260                 3.1980

                     10                     11                     12
                      A                      A                      A
 Frequencies --    241.5569               267.3520               272.8225
 Red. masses --      4.1136                 3.4122                 3.6627
 Frc consts  --      0.1414                 0.1437                 0.1606
 IR Inten    --      0.0261                 0.1442                 4.2734

                     13                     14                     15
                      A                      A                      A
 Frequencies --    315.1163               342.5156               368.1016
 Red. masses --      2.8681                 2.8572                 2.6258
 Frc consts  --      0.1678                 0.1975                 0.2096
 IR Inten    --      0.7630                 8.0652                 2.5056

                     16                     17                     18
                      A                      A                      A
 Frequencies --    402.3641               414.0354               450.8783
 Red. masses --      2.0533                 2.3467                 3.1865
 Frc consts  --      0.1959                 0.2370                 0.3817
 IR Inten    --      6.0508                 4.8445                15.1373

                     19                     20                     21
                      A                      A                      A
 Frequencies --    466.9289               500.1023               562.2408
 Red. masses --      4.7781                 3.7911                 4.7433
 Frc consts  --      0.6138                 0.5586                 0.8834
 IR Inten    --     15.6055                 3.2476                 9.6817

                     22                     23                     24
                      A                      A                      A
 Frequencies --    594.1647               621.8077               628.2463
 Red. masses --      3.3072                 3.9603                 3.5140
 Frc consts  --      0.6879                 0.9022                 0.8172
 IR Inten    --     17.6186                12.6934                 5.8937

                     25                     26                     27
                      A                      A                      A
 Frequencies --    716.3946               724.8430               740.4857
 Red. masses --      1.7420                 2.0779                 4.2455
 Frc consts  --      0.5267                 0.6432                 1.3716
 IR Inten    --      1.8612                 0.8376               111.2397

                     28                     29                     30
                      A                      A                      A
 Frequencies --    753.6891               788.2115               804.8902
 Red. masses --      1.9477                 2.4544                 2.2653
 Frc consts  --      0.6519                 0.8984                 0.8647
 IR Inten    --     17.6294                 4.3768                23.3348

                     31                     32                     33
                      A                      A                      A
 Frequencies --    828.9490               848.3565               879.6608
 Red. masses --      1.5635                 1.3754                 3.1042
 Frc consts  --      0.6330                 0.5832                 1.4152
 IR Inten    --      0.9213                 4.6273                14.6558

                     34                     35                     36
                      A                      A                      A
 Frequencies --    894.1227               905.5864               972.3863
 Red. masses --      4.7097                 2.3964                 2.0495
 Frc consts  --      2.2184                 1.1579                 1.1417
 IR Inten    --     22.1923                 6.5771                 3.4467

                     37                     38                     39
                      A                      A                      A
 Frequencies --    981.5016               986.8881              1006.1961
 Red. masses --      1.3435                 1.5429                 2.7710
 Frc consts  --      0.7625                 0.8854                 1.6529
 IR Inten    --      1.3780                39.5919                11.4765

                     40                     41                     42
                      A                      A                      A
 Frequencies --   1015.6477              1041.1002              1061.8222
 Red. masses --      2.4596                 1.4332                 2.2242
 Frc consts  --      1.4948                 0.9152                 1.4775
 IR Inten    --      9.5733                 1.4816                 7.0453

                     43                     44                     45
                      A                      A                      A
 Frequencies --   1067.3747              1091.4798              1108.6120
 Red. masses --      2.0963                 2.8029                 1.8159
 Frc consts  --      1.4071                 1.9674                 1.3149
 IR Inten    --     19.5272                79.0980                11.0622

                     46                     47                     48
                      A                      A                      A
 Frequencies --   1116.7039              1124.5551              1148.0938
 Red. masses --      1.6269                 3.7242                 3.0761
 Frc consts  --      1.1954                 2.7749                 2.3889
 IR Inten    --      3.9385                39.1449                14.7797

                     49                     50                     51
                      A                      A                      A
 Frequencies --   1161.5043              1203.8430              1221.0117
 Red. masses --      2.2997                 2.5733                 1.5630
 Frc consts  --      1.8279                 2.1972                 1.3729
 IR Inten    --     42.2349                14.2576                 9.5569

                     52                     53                     54
                      A                      A                      A
 Frequencies --   1228.8782              1260.0085              1278.9890
 Red. masses --      1.0951                 1.5839                 1.4036
 Frc consts  --      0.9744                 1.4815                 1.3528
 IR Inten    --      1.2983                51.2850                 1.3905

                     55                     56                     57
                      A                      A                      A
 Frequencies --   1289.8606              1310.7000              1337.0201
 Red. masses --      2.3573                 3.8771                 1.5042
 Frc consts  --      2.3107                 3.9243                 1.5842
 IR Inten    --      0.2930               141.3789                 0.5003

                     58                     59                     60
                      A                      A                      A
 Frequencies --   1341.6726              1354.3475              1362.3520
 Red. masses --      1.4358                 1.3782                 1.5411
 Frc consts  --      1.5227                 1.4894                 1.6853
 IR Inten    --      3.2261                11.6014                11.4942

                     61                     62                     63
                      A                      A                      A
 Frequencies --   1370.4424              1380.8037              1389.4676
 Red. masses --      1.2232                 1.3321                 1.3056
 Frc consts  --      1.3536                 1.4964                 1.4852
 IR Inten    --     13.8311                 1.0943                29.9294

                     64                     65                     66
                      A                      A                      A
 Frequencies --   1409.2145              1415.0094              1436.1953
 Red. masses --      1.4157                 1.4651                 2.5064
 Frc consts  --      1.6565                 1.7284                 3.0459
 IR Inten    --      7.6073                 1.2065                 2.7205

                     67                     68                     69
                      A                      A                      A
 Frequencies --   1450.2429              1483.2304              1485.9495
 Red. masses --      1.4169                 1.0545                 1.0515
 Frc consts  --      1.7557                 1.3668                 1.3679
 IR Inten    --      3.5817                 5.3521                 6.6594

                     70                     71                     72
                      A                      A                      A
 Frequencies --   1501.8751              1502.5511              1513.6468
 Red. masses --      1.0877                 1.0909                 1.0891
 Frc consts  --      1.4455                 1.4511                 1.4702
 IR Inten    --      6.7403                 8.4436                 8.7878

                     73                     74                     75
                      A                      A                      A
 Frequencies --   1533.0414              1547.3295              1549.4130
 Red. masses --      1.0803                 2.5896                 1.2797
 Frc consts  --      1.4959                 3.6530                 1.8101
 IR Inten    --      0.1827                31.2660                 7.4138

                     76                     77                     78
                      A                      A                      A
 Frequencies --   1639.9453              3003.8614              3028.8211
 Red. masses --      5.5260                 1.0672                 1.0599
 Frc consts  --      8.7564                 5.6734                 5.7290
 IR Inten    --      1.4562                24.5221                20.9521

                     79                     80                     81
                      A                      A                      A
 Frequencies --   3043.6456              3051.3529              3060.0868
 Red. masses --      1.0600                 1.0664                 1.0715
 Frc consts  --      5.7853                 5.8499                 5.9115
 IR Inten    --     41.1493                11.3351                 3.7433

                     82                     83                     84
                      A                      A                      A
 Frequencies --   3070.8852              3074.6048              3079.7719
 Red. masses --      1.0854                 1.0960                 1.0858
 Frc consts  --      6.0305                 6.1044                 6.0679
 IR Inten    --     37.8925                32.8340                31.6142

                     85                     86                     87
                      A                      A                      A
 Frequencies --   3085.8551              3087.3059              3096.9665
 Red. masses --      1.1046                 1.0357                 1.0997
 Frc consts  --      6.1972                 5.8164                 6.2142
 IR Inten    --     36.5578                 7.9570                29.6354

                     88                     89                     90
                      A                      A                      A
 Frequencies --   3125.7689              3186.8446              3192.7767
 Red. masses --      1.0996                 1.1061                 1.1076
 Frc consts  --      6.3296                 6.6184                 6.6525
 IR Inten    --      6.6307                 0.8871                 2.7524

                     91                     92                     93
                      A                      A                      A
 Frequencies --   3265.3161              3288.8924              3303.8533
 Red. masses --      1.0922                 1.0973                 1.1045
 Frc consts  --      6.8611                 6.9932                 7.1031
 IR Inten    --      1.6564                 1.0373                 1.4597

 - Thermochemistry -
 -------------------
 Temperature   298.150 Kelvin.  Pressure   1.00000 Atm.
 Atom     1 has atomic number  6 and mass  12.00000

 Molecular mass:   243.09292 amu.
 Principal axes and moments of inertia in atomic units:
                           1         2         3
     Eigenvalues --  2134.396806136.822626779.33076
           X            0.99990  -0.00040   0.01424
           Y            0.00054   0.99995  -0.00975
           Z           -0.01424   0.00976   0.99985
 This molecule is an asymmetric top.
 Rotational symmetry number  1.
 Warning -- assumption of classical behavior for rotation
           may cause significant error
 Rotational temperatures (Kelvin)      0.04058     0.01411     0.01278
 Rotational constants (GHZ):           0.84555     0.29408     0.26621
 Zero-point vibrational energy     730452.9 (Joules/Mol)
                                  174.58244 (Kcal/Mol)
 Warning -- explicit consideration of  22 degrees of freedom as
           vibrations may cause significant error
 Vibrational temperatures:     38.16    48.40    59.31   115.50   148.00
          (Kelvin)            245.81   266.04   281.57   324.13   347.55
                              384.66   392.53   453.38   492.80   529.62
                              578.91   595.70   648.71   671.81   719.54
                              808.94   854.87   894.64   903.91  1030.73
                             1042.89  1065.39  1084.39  1134.06  1158.06
                             1192.67  1220.60  1265.64  1286.44  1302.94
                             1399.05  1412.16  1419.91  1447.69  1461.29
                             1497.91  1527.73  1535.71  1570.40  1595.05
                             1606.69  1617.98  1651.85  1671.15  1732.06
                             1756.76  1768.08  1812.87  1840.18  1855.82
                             1885.80  1923.67  1930.37  1948.60  1960.12
                             1971.76  1986.67  1999.13  2027.55  2035.88
                             2066.36  2086.58  2134.04  2137.95  2160.86
                             2161.84  2177.80  2205.70  2226.26  2229.26
                             2359.52  4321.89  4357.80  4379.13  4390.22
                             4402.78  4418.32  4423.67  4431.10  4439.86
                             4441.94  4455.84  4497.28  4585.16  4593.69
                             4698.06  4731.98  4753.51

 Zero-point correction=                           0.278215 (Hartree/Particle)
 Thermal correction to Energy=                    0.293445
 Thermal correction to Enthalpy=                  0.294389
 Thermal correction to Gibbs Free Energy=         0.234283
 Sum of electronic and zero-point Energies=          -1107.714426
 Sum of electronic and thermal Energies=             -1107.699195
 Sum of electronic and thermal Enthalpies=           -1107.698251
 Sum of electronic and thermal Free Energies=        -1107.758357

                     E (Thermal)             CV                S
                      KCal/Mol        Cal/Mol-Kelvin    Cal/Mol-Kelvin
 Total                  184.140             58.747            126.504
 Electronic               0.000              0.000              0.000
 Translational            0.889              2.981             42.366
 Rotational               0.889              2.981             32.851
 Vibrational            182.362             52.785             51.287
 Vibration     1          0.593              1.984              6.074
 Vibration     2          0.594              1.983              5.602
 Vibration     3          0.594              1.981              5.200
 Vibration     4          0.600              1.963              3.884
 Vibration     5          0.605              1.947              3.399
 Vibration     6          0.626              1.878              2.426
 Vibration     7          0.631              1.860              2.278
 Vibration     8          0.636              1.846              2.173
 Vibration     9          0.650              1.803              1.916
 Vibration    10          0.658              1.777              1.791
 Vibration    11          0.672              1.733              1.613
 Vibration    12          0.676              1.723              1.578
 Vibration    13          0.702              1.645              1.335
 Vibration    14          0.722              1.590              1.200
 Vibration    15          0.741              1.538              1.088
 Vibration    16          0.768              1.465              0.954
 Vibration    17          0.778              1.440              0.912
 Vibration    18          0.810              1.359              0.793
 Vibration    19          0.824              1.323              0.746
 Vibration    20          0.856              1.250              0.658
 Vibration    21          0.918              1.113              0.519
 Vibration    22          0.952              1.044              0.460

                           ! Non-Optimized Parameters !
 Normal termination of Gaussian 16 at Thu Dec 10 23:41:44 2020.

 ----------------------------------------------------------------------
 # B3LYP/6-311++G(d,p) empiricaldispersion=gd3bj scf=xqc pop=npa geom=c
 heck
 ----------------------------------------------------------------------

 ---------------------------------------
 CID_121183071_JID_6549_Energie_neutraal
 ---------------------------------------
 Structure from the checkpoint file:  "JID_6549.chk"
 Charge =  0 Multiplicity = 1

 SCF Done:  E(RB3LYP) =  -1108.21893505     A.U. after   15 cycles
 Normal termination of Gaussian 16 at Thu Dec 10 23:47:53 2020.

 ----------------------------------------------------------------------
 # B3LYP/6-311++G(d,p) empiricaldispersion=gd3bj scf=xqc pop=npa geom=c
 heck
 ----------------------------------------------------------------------

 -------------------------------------
 CID_121183071_JID_6549_Energie_kation
 -------------------------------------
 Structure from the checkpoint file:  "JID_6549.chk"
 Charge =  1 Multiplicity = 2

 SCF Done:  E(UB3LYP) =  -1107.93063542     A.U. after   23 cycles
 Normal termination of Gaussian 16 at Fri Dec 11 00:00:48 2020.
 Gaussian 16:  ES64L-G16RevA.03 25-Dec-2016

 ----------------------------------------------------------------------
 # B3LYP/6-311++G(d,p) empiricaldispersion=gd3bj scf=xqc pop=npa geom=c
 heck
 ----------------------------------------------------------------------

 ------------------------------------
 CID_121183071_JID_6549_Energie_anion
 ------------------------------------
 Structure from the checkpoint file:  "JID_6549.chk"
 Charge = -1 Multiplicity = 2

                         Standard orientation:
 ---------------------------------------------------------------------
 Center     Atomic      Atomic             Coordinates (Angstroms)
 Number     Number       Type             X           Y           Z
 ---------------------------------------------------------------------
      1          6           0        3.621340   -1.165114    1.158706
      2         16           0        2.391982   -0.831922   -0.128825
      3          8           0        3.049638   -1.057184   -1.428397
      4          8           0        1.174850   -1.585667    0.223620
      5          6           0        2.094209    0.975521    0.020785
      6          6           0        1.336918    1.366193    1.297971
      7          6           0       -0.167867    1.092279    1.212950
      8          7           0       -0.727342    1.717110    0.013807
      9          6           0       -0.127789    1.162166   -1.201145
     10          6           0        1.367899    1.480694   -1.234388
     11          6           0       -2.194912    1.690819   -0.001936
     12          6           0       -2.835450    0.325887   -0.016584
     13          6           0       -3.317157   -0.364780    1.056675
     14          8           0       -3.781576   -1.591550    0.682286
     15          6           0       -3.587213   -1.689321   -0.665247
     16          6           0       -3.015847   -0.552979   -1.145235
     17          1           0        3.836377   -2.233650    1.089790
     18          1           0        3.206116   -0.930714    2.139980
     19          1           0        4.524464   -0.585574    0.959201
     20          1           0        3.113054    1.380014    0.040538
     21          1           0        1.756171    0.869732    2.180564
     22          1           0        1.490768    2.443684    1.432862
     23          1           0       -0.354789    0.009268    1.244555
     24          1           0       -0.655268    1.539225    2.088014
     25          1           0       -0.611942    1.631741   -2.065541
     26          1           0       -0.283299    0.074493   -1.285509
     27          1           0        1.494990    2.569239   -1.260927
     28          1           0        1.834988    1.062452   -2.130478
     29          1           0       -2.538559    2.242759    0.881320
     30          1           0       -2.519814    2.260874   -0.880900
     31          1           0       -3.404606   -0.129922    2.106808
     32          1           0       -3.904396   -2.616273   -1.117293
     33          1           0       -2.752654   -0.349355   -2.173808
 ---------------------------------------------------------------------

 SCF Done:  E(UB3LYP) =  -1108.21050801     A.U. after   33 cycles
 SCF Done:  E(UB3LYP) =  -1108.21050801     a.u. after    1 cycles

 The electronic state is 2-A.
 Alpha  occ. eigenvalues --  -88.93852 -19.10727 -19.00880 -19.00878 -14.20986
 Alpha  occ. eigenvalues --  -10.14023 -10.13402 -10.11390 -10.11128 -10.10319
 Alpha  occ. eigenvalues --  -10.09614 -10.09019 -10.08949 -10.08901 -10.07988
 Alpha  occ. eigenvalues --  -10.07870  -8.00372  -5.96634  -5.96531  -5.96453
 Alpha  occ. eigenvalues --   -1.02997  -1.00060  -0.89763  -0.83671  -0.73598
 Alpha  occ. eigenvalues --   -0.71691  -0.67392  -0.66588  -0.66190  -0.61572
 Alpha  occ. eigenvalues --   -0.55837  -0.54036  -0.51257  -0.49910  -0.48650
 Alpha  occ. eigenvalues --   -0.45663  -0.43766  -0.40790  -0.39439  -0.38204
 Alpha  occ. eigenvalues --   -0.37632  -0.37465  -0.36494  -0.36405  -0.35625
 Alpha  occ. eigenvalues --   -0.34124  -0.33652  -0.32947  -0.32008  -0.31878
 Alpha  occ. eigenvalues --   -0.30827  -0.30377  -0.29189  -0.28158  -0.26810
 Alpha  occ. eigenvalues --   -0.25623  -0.23576  -0.23478  -0.22398  -0.21600
 Alpha  occ. eigenvalues --   -0.19994  -0.19394  -0.18198  -0.15004  -0.12393
 Alpha  occ. eigenvalues --    0.04082
 Alpha virt. eigenvalues --    0.06209   0.06915   0.07119   0.07874   0.08115
 Alpha virt. eigenvalues --    0.09061   0.09213   0.09835   0.10190   0.11006
 Alpha virt. eigenvalues --    0.11543   0.12037   0.12192   0.12832   0.13102

  Beta  occ. eigenvalues --  -88.93851 -19.10725 -19.00872 -19.00866 -14.20985
  Beta  occ. eigenvalues --  -10.14022 -10.13389 -10.11370 -10.11114 -10.10257
  Beta  occ. eigenvalues --  -10.09605 -10.09018 -10.08944 -10.08888 -10.07973
  Beta  occ. eigenvalues --  -10.07834  -8.00369  -5.96633  -5.96530  -5.96448
  Beta  occ. eigenvalues --   -1.02993  -1.00033  -0.89736  -0.83658  -0.73567
  Beta  occ. eigenvalues --   -0.71668  -0.67350  -0.66559  -0.66144  -0.61535
  Beta  occ. eigenvalues --   -0.55788  -0.53985  -0.51232  -0.49883  -0.48626
  Beta  occ. eigenvalues --   -0.45614  -0.43736  -0.40717  -0.39383  -0.38178
  Beta  occ. eigenvalues --   -0.37605  -0.37443  -0.36465  -0.36384  -0.35595
  Beta  occ. eigenvalues --   -0.34093  -0.33618  -0.32905  -0.31985  -0.31843
  Beta  occ. eigenvalues --   -0.30792  -0.30351  -0.29159  -0.28128  -0.26779
  Beta  occ. eigenvalues --   -0.25599  -0.23526  -0.23442  -0.22369  -0.21584
  Beta  occ. eigenvalues --   -0.19980  -0.19383  -0.18169  -0.14985  -0.12379
  Beta virt. eigenvalues --    0.06214   0.07145   0.07431   0.07498   0.08073
  Beta virt. eigenvalues --    0.08635   0.09358   0.09756   0.10385   0.10698
  Beta virt. eigenvalues --    0.11382   0.11966   0.12342   0.12495   0.12913

 Mulliken charges and spin densities:
               1          2
     1  C    0.461826  -1.016390
     2  S    0.661374  -0.712065
     3  O   -0.132733   0.008557
     4  O   -0.129331   0.006928
     5  C   -1.181188   1.390360
     6  C    1.823551  -2.602918
     7  C   -0.533505   0.324723
     8  N    0.077651   0.185842
     9  C   -0.133426   0.089675
    10  C   -0.065210  -0.927283
    11  C    0.322665  -1.188424
    12  C    0.335052  -0.078137
    13  C   -0.570209   0.299308
    14  O   -0.005743  -0.002209
    15  C   -0.069520  -0.365053
    16  C   -0.134427   0.569462
    17  H    0.011686   0.197966
    18  H   -0.404776   0.603333
    19  H   -0.450964   0.660602
    20  H   -0.526212   0.856366
    21  H   -0.302685   0.471733
    22  H   -0.338801   0.527155
    23  H    0.348248  -0.148789
    24  H   -0.108740   0.279223
    25  H    0.082581   0.089696
    26  H    0.235095  -0.065538
    27  H   -0.123060   0.296413
    28  H    0.107950   0.108637
    29  H   -0.103973   0.289989
    30  H    0.000264   0.174823
    31  H   -0.241934   0.429128
    32  H    0.128238   0.031573
    33  H   -0.039745   0.215314
 Sum of Mulliken charges =  -1.00000   1.00000

 Dipole moment (field-independent basis, Debye):
    X=             -6.9267    Y=             -2.5277    Z=             -3.4516  Tot=              8.1414
 Quadrupole moment (field-independent basis, Debye-Ang):
   XX=           -178.2063   YY=           -145.9003   ZZ=           -143.7249
   XY=             -3.2558   XZ=             -1.3741   YZ=             -5.4963

 Summary of Natural Population Analysis:

                                       Natural Population
                Natural  -----------------------------------------------
    Atom  No    Charge         Core      Valence    Rydberg      Total
 -----------------------------------------------------------------------
      C    1   -0.39126      0.99961     2.38409    0.00756     3.39126
      S    2    1.01908      4.99923     1.88871    0.09298     6.98092
      O    3   -0.47431      0.99991     3.46865    0.00575     4.47431
      O    4   -0.47249      0.99991     3.46685    0.00574     4.47249
      C    5   -0.19555      0.99954     2.17902    0.01699     3.19555
      C    6   -0.20266      0.99960     2.18988    0.01319     3.20266
      C    7   -0.09059      0.99959     2.07888    0.01212     3.09059
      N    8   -0.27921      0.99972     2.76595    0.01354     3.77921
      C    9   -0.08983      0.99960     2.07956    0.01067     3.08983
      C   10   -0.20296      0.99960     2.19205    0.01131     3.20296
      C   11   -0.08989      0.99958     2.07767    0.01264     3.08989
      C   12   -0.07144      0.99952     2.06232    0.00959     3.07144
      C   13    0.06445      0.99943     1.92070    0.01541     2.93555
      O   14   -0.23125      0.99987     3.22403    0.00735     4.23125
      C   15    0.05930      0.99952     1.92754    0.01364     2.94070
      C   16   -0.14553      0.99952     2.13829    0.00772     3.14553
      H   17    0.11686      0.00000     0.38222    0.00092     0.38314
      H   18    0.11720      0.00000     0.38084    0.00195     0.38280
      H   19    0.11823      0.00000     0.37925    0.00252     0.38177
      H   20    0.12162      0.00000     0.37496    0.00342     0.37838
      H   21    0.10712      0.00000     0.39056    0.00232     0.39288
      H   22    0.10893      0.00000     0.38816    0.00291     0.39107
      H   23    0.09798      0.00000     0.39986    0.00215     0.40202
      H   24    0.09707      0.00000     0.40127    0.00166     0.40293
      H   25    0.09454      0.00000     0.40434    0.00113     0.40546
      H   26    0.09214      0.00000     0.40524    0.00262     0.40786
      H   27    0.10693      0.00000     0.39135    0.00173     0.39307
      H   28    0.11351      0.00000     0.38550    0.00099     0.38649
      H   29    0.10160      0.00000     0.39728    0.00112     0.39840
      H   30    0.09840      0.00000     0.40052    0.00108     0.40160
      H   31    0.09788      0.00000     0.40087    0.00125     0.40212
      H   32    0.09388      0.00000     0.40521    0.00092     0.40612
      H   33    0.11025      0.00000     0.38892    0.00082     0.38975
 =======================================================================
   * Total *    0.00000     19.99375    44.72054    0.28571    65.00000

 Normal termination of Gaussian 16 at Fri Dec 11 00:19:22 2020.
