 Gaussian 16, Revision A.03,

 -----------------------------------------------------------
 # opt freq B3LYP/6-31G(d) empiricaldispersion=gd3bj scf=xqc
 -----------------------------------------------------------

 ------------------------------
 CID_88498149_JID_3178_neutraal
 ------------------------------
 Symbolic Z-matrix:
 Charge =  0 Multiplicity = 1

 SCF Done:  E(RB3LYP) =  -1264.76271041     A.U. after   13 cycles
 SCF Done:  E(RB3LYP) =  -1264.76864606     A.U. after   11 cycles
 SCF Done:  E(RB3LYP) =  -1264.76944075     A.U. after   11 cycles
 SCF Done:  E(RB3LYP) =  -1264.76896709     A.U. after   11 cycles
 SCF Done:  E(RB3LYP) =  -1264.76981655     A.U. after   10 cycles
 SCF Done:  E(RB3LYP) =  -1264.76983748     A.U. after   10 cycles
 SCF Done:  E(RB3LYP) =  -1264.76985652     A.U. after    9 cycles
 SCF Done:  E(RB3LYP) =  -1264.76985784     A.U. after    9 cycles
 SCF Done:  E(RB3LYP) =  -1264.76986080     A.U. after    8 cycles
 SCF Done:  E(RB3LYP) =  -1264.76986123     A.U. after    7 cycles
 SCF Done:  E(RB3LYP) =  -1264.76986116     A.U. after    7 cycles
 SCF Done:  E(RB3LYP) =  -1264.76986106     A.U. after    7 cycles
 SCF Done:  E(RB3LYP) =  -1264.76986092     A.U. after    7 cycles
 SCF Done:  E(RB3LYP) =  -1264.76986065     A.U. after    7 cycles
 SCF Done:  E(RB3LYP) =  -1264.76986119     A.U. after    9 cycles
 SCF Done:  E(RB3LYP) =  -1264.76986062     A.U. after    9 cycles
 Optimization completed.
    -- Stationary point found.
 Normal termination of Gaussian 16 at Wed Dec  9 22:34:10 2020.

 --------------------------------------------------------------------
 #N Geom=AllCheck Guess=TCheck SCRF=Check GenChk RB3LYP/6-31G(d) Freq
 --------------------------------------------------------------------

 Structure from the checkpoint file:  "JID_3178.chk"
 ------------------------------
 CID_88498149_JID_3178_neutraal
 ------------------------------
 Charge =  0 Multiplicity = 1

 SCF Done:  E(RB3LYP) =  -1264.76986062     A.U. after    1 cycles

  Exact polarizability: 159.441   4.835 135.388  -1.195   2.766 127.468
 Approx polarizability: 220.762   9.145 197.840  -2.460   5.532 204.046

                      1                      2                      3
                      A                      A                      A
 Frequencies --     40.1084                72.8404               104.0725
 Red. masses --      2.7663                 2.5515                 3.8735
 Frc consts  --      0.0026                 0.0080                 0.0247
 IR Inten    --      0.3442                 0.0310                 3.4694

                      4                      5                      6
                      A                      A                      A
 Frequencies --    119.9549               137.1116               181.8861
 Red. masses --      2.1382                 3.2387                 3.2463
 Frc consts  --      0.0181                 0.0359                 0.0633
 IR Inten    --      2.7100                 0.1433                 1.1415

                      7                      8                      9
                      A                      A                      A
 Frequencies --    209.2711               221.5150               228.4509
 Red. masses --      2.0521                 1.2424                 2.8160
 Frc consts  --      0.0529                 0.0359                 0.0866
 IR Inten    --      0.5706                 0.2471                 1.3780

                     10                     11                     12
                      A                      A                      A
 Frequencies --    242.3289               267.1662               275.3465
 Red. masses --      1.2083                 2.9983                 1.4146
 Frc consts  --      0.0418                 0.1261                 0.0632
 IR Inten    --      0.1817                 0.4836                 0.6005

                     13                     14                     15
                      A                      A                      A
 Frequencies --    305.9788               308.7215               318.1293
 Red. masses --      1.7956                 2.7906                 4.8315
 Frc consts  --      0.0990                 0.1567                 0.2881
 IR Inten    --      0.6506                 1.1184                 0.3213

                     16                     17                     18
                      A                      A                      A
 Frequencies --    332.7533               347.9580               351.2861
 Red. masses --      2.0385                 1.9338                 2.4661
 Frc consts  --      0.1330                 0.1379                 0.1793
 IR Inten    --      3.4857                 1.1346                 2.6748

                     19                     20                     21
                      A                      A                      A
 Frequencies --    368.4883               399.8614               421.9288
 Red. masses --      4.1387                 5.2329                 2.5364
 Frc consts  --      0.3311                 0.4930                 0.2660
 IR Inten    --      2.4276                 2.8425                 1.0763

                     22                     23                     24
                      A                      A                      A
 Frequencies --    427.5230               472.1667               526.8428
 Red. masses --      3.1360                 2.0679                 2.5057
 Frc consts  --      0.3377                 0.2716                 0.4098
 IR Inten    --      0.9513                 1.6765                 2.2319

                     25                     26                     27
                      A                      A                      A
 Frequencies --    598.2105               660.8665               687.6631
 Red. masses --      4.1040                 4.4156                 5.1395
 Frc consts  --      0.8653                 1.1362                 1.4319
 IR Inten    --      1.3042                 1.8811                 0.8811

                     28                     29                     30
                      A                      A                      A
 Frequencies --    795.5267               814.8048               826.6690
 Red. masses --      3.4542                 1.3840                 1.6394
 Frc consts  --      1.2880                 0.5414                 0.6601
 IR Inten    --     12.2630                11.5640                12.7681

                     31                     32                     33
                      A                      A                      A
 Frequencies --    845.5154               875.5620               885.7973
 Red. masses --      2.3755                 2.7610                 2.8459
 Frc consts  --      1.0006                 1.2471                 1.3156
 IR Inten    --      6.0230                25.7228                32.8574

                     34                     35                     36
                      A                      A                      A
 Frequencies --    922.2237               949.3840               952.3382
 Red. masses --      2.3424                 1.9690                 1.7012
 Frc consts  --      1.1738                 1.0456                 0.9090
 IR Inten    --     23.5585                11.5784                 0.5839

                     37                     38                     39
                      A                      A                      A
 Frequencies --    955.0590               983.3926              1018.8276
 Red. masses --      1.9021                 1.1994                 2.5903
 Frc consts  --      1.0222                 0.6834                 1.5842
 IR Inten    --     16.0331                 0.2418                16.0065

                     40                     41                     42
                      A                      A                      A
 Frequencies --   1042.1727              1064.7305              1071.4777
 Red. masses --      1.9049                 1.4567                 1.4842
 Frc consts  --      1.2190                 0.9729                 1.0039
 IR Inten    --     10.3810                 4.6374                 2.7323

                     43                     44                     45
                      A                      A                      A
 Frequencies --   1074.1549              1092.8799              1141.9015
 Red. masses --      2.0692                 4.3718                 2.2373
 Frc consts  --      1.4067                 3.0765                 1.7188
 IR Inten    --      0.4299               182.3697                47.6628

                     46                     47                     48
                      A                      A                      A
 Frequencies --   1155.7803              1201.6197              1214.6645
 Red. masses --      1.0475                 1.6630                 1.2299
 Frc consts  --      0.8244                 1.4147                 1.0692
 IR Inten    --      0.1974                17.1852                 0.3398

                     49                     50                     51
                      A                      A                      A
 Frequencies --   1255.9579              1259.8974              1265.8349
 Red. masses --      2.6557                 2.8238                 2.4086
 Frc consts  --      2.4682                 2.6409                 2.2738
 IR Inten    --      1.4830                 2.1131                13.5642

                     52                     53                     54
                      A                      A                      A
 Frequencies --   1289.4776              1316.9572              1335.5319
 Red. masses --      1.2452                 1.1365                 1.3158
 Frc consts  --      1.2199                 1.1614                 1.3828
 IR Inten    --      6.4373                 6.3803                21.6090

                     55                     56                     57
                      A                      A                      A
 Frequencies --   1348.6525              1400.7807              1415.9634
 Red. masses --      1.2223                 1.4228                 1.2371
 Frc consts  --      1.3099                 1.6448                 1.4613
 IR Inten    --      2.9645                 0.1467                 4.7391

                     58                     59                     60
                      A                      A                      A
 Frequencies --   1428.1513              1432.3392              1444.7305
 Red. masses --      1.2157                 1.2176                 1.3151
 Frc consts  --      1.4610                 1.4718                 1.6173
 IR Inten    --      6.8017                 2.2589                19.2039

                     61                     62                     63
                      A                      A                      A
 Frequencies --   1462.2851              1487.4735              1498.2734
 Red. masses --      1.2107                 1.0876                 1.0842
 Frc consts  --      1.5252                 1.4179                 1.4339
 IR Inten    --     17.1482                 4.8165                 5.9723

                     64                     65                     66
                      A                      A                      A
 Frequencies --   1507.7741              1510.6314              1513.4343
 Red. masses --      1.0981                 1.0492                 1.0426
 Frc consts  --      1.4708                 1.4107                 1.4069
 IR Inten    --      3.7898                 0.0544                 6.9041

                     67                     68                     69
                      A                      A                      A
 Frequencies --   1519.2337              1520.7174              1528.1590
 Red. masses --      1.0474                 1.0459                 1.0454
 Frc consts  --      1.4243                 1.4251                 1.4384
 IR Inten    --      0.4119                 0.3543                 0.4032

                     70                     71                     72
                      A                      A                      A
 Frequencies --   1531.6465              1540.2297              1548.5613
 Red. masses --      1.0505                 1.0532                 1.0642
 Frc consts  --      1.4520                 1.4720                 1.5035
 IR Inten    --      5.4752                 6.4911                10.1293

                     73                     74                     75
                      A                      A                      A
 Frequencies --   1564.6103              3028.1258              3035.4903
 Red. masses --      1.0692                 1.0676                 1.0724
 Frc consts  --      1.5421                 5.7677                 5.8219
 IR Inten    --      3.6578                41.7901                42.2890

                     76                     77                     78
                      A                      A                      A
 Frequencies --   3056.4989              3057.3472              3058.9104
 Red. masses --      1.0353                 1.0384                 1.0378
 Frc consts  --      5.6985                 5.7188                 5.7212
 IR Inten    --     18.2269                15.8645                14.9176

                     79                     80                     81
                      A                      A                      A
 Frequencies --   3066.3450              3073.0253              3075.6002
 Red. masses --      1.0384                 1.0591                 1.0601
 Frc consts  --      5.7525                 5.8929                 5.9084
 IR Inten    --     36.0981                24.7601                22.4143

                     82                     83                     84
                      A                      A                      A
 Frequencies --   3098.5936              3120.6243              3122.2175
 Red. masses --      1.0945                 1.0997                 1.1062
 Frc consts  --      6.1912                 6.3099                 6.3537
 IR Inten    --     12.5962                10.0424                 9.5054

                     85                     86                     87
                      A                      A                      A
 Frequencies --   3125.5623              3126.0778              3128.9935
 Red. masses --      1.0982                 1.1022                 1.1007
 Frc consts  --      6.3209                 6.3464                 6.3493
 IR Inten    --     14.0286                18.7655                 9.1661

                     88                     89                     90
                      A                      A                      A
 Frequencies --   3129.0863              3130.9940              3143.9315
 Red. masses --      1.1047                 1.0985                 1.1023
 Frc consts  --      6.3729                 6.3446                 6.4197
 IR Inten    --     28.1368                64.4135                21.1091

                     91                     92                     93
                      A                      A                      A
 Frequencies --   3148.0371              3153.3612              3155.2304
 Red. masses --      1.1021                 1.1006                 1.0960
 Frc consts  --      6.4349                 6.4483                 6.4289
 IR Inten    --     19.8267                14.7250                25.3610

 - Thermochemistry -
 -------------------
 Temperature   298.150 Kelvin.  Pressure   1.00000 Atm.
 Atom     1 has atomic number  6 and mass  12.00000

 Molecular mass:   220.09556 amu.
 Principal axes and moments of inertia in atomic units:
                           1         2         3
     Eigenvalues --  2400.793253111.444723690.72562
           X            0.99972   0.02367  -0.00127
           Y           -0.02370   0.99924  -0.03088
           Z            0.00053   0.03090   0.99952
 This molecule is an asymmetric top.
 Rotational symmetry number  1.
 Warning -- assumption of classical behavior for rotation
           may cause significant error
 Rotational temperatures (Kelvin)      0.03608     0.02784     0.02347
 Rotational constants (GHZ):           0.75173     0.58003     0.48899
 Zero-point vibrational energy     762465.5 (Joules/Mol)
                                  182.23362 (Kcal/Mol)
 Warning -- explicit consideration of  25 degrees of freedom as
           vibrations may cause significant error
 Vibrational temperatures:     57.71   104.80   149.74   172.59   197.27
          (Kelvin)            261.69   301.09   318.71   328.69   348.66
                              384.39   396.16   440.24   444.18   457.72
                              478.76   500.63   505.42   530.17   575.31
                              607.06   615.11   679.34   758.01   860.69
                              950.84   989.39  1144.59  1172.32  1189.39
                             1216.51  1259.74  1274.46  1326.87  1365.95
                             1370.20  1374.12  1414.88  1465.87  1499.45
                             1531.91  1541.62  1545.47  1572.41  1642.94
                             1662.91  1728.86  1747.63  1807.04  1812.71
                             1821.25  1855.27  1894.81  1921.53  1940.41
                             2015.41  2037.26  2054.79  2060.82  2078.64
                             2103.90  2140.14  2155.68  2169.35  2173.46
                             2177.49  2185.84  2187.97  2198.68  2203.70
                             2216.05  2228.03  2251.13  4356.80  4367.39
                             4397.62  4398.84  4401.09  4411.79  4421.40
                             4425.10  4458.19  4489.88  4492.17  4496.99
                             4497.73  4501.92  4502.06  4504.80  4523.42
                             4529.32  4536.98  4539.67

 Zero-point correction=                           0.290408 (Hartree/Particle)
 Thermal correction to Energy=                    0.306025
 Thermal correction to Enthalpy=                  0.306969
 Thermal correction to Gibbs Free Energy=         0.248927
 Sum of electronic and zero-point Energies=          -1264.479453
 Sum of electronic and thermal Energies=             -1264.463836
 Sum of electronic and thermal Enthalpies=           -1264.462892
 Sum of electronic and thermal Free Energies=        -1264.520934

                     E (Thermal)             CV                S
                      KCal/Mol        Cal/Mol-Kelvin    Cal/Mol-Kelvin
 Total                  192.034             60.017            122.160
 Electronic               0.000              0.000              0.000
 Translational            0.889              2.981             42.070
 Rotational               0.889              2.981             31.689
 Vibrational            190.256             54.055             48.402
 Vibration     1          0.594              1.981              5.254
 Vibration     2          0.599              1.967              4.075
 Vibration     3          0.605              1.946              3.377
 Vibration     4          0.609              1.933              3.101
 Vibration     5          0.614              1.916              2.844
 Vibration     6          0.630              1.864              2.309
 Vibration     7          0.642              1.827              2.050
 Vibration     8          0.648              1.808              1.947
 Vibration     9          0.651              1.798              1.891
 Vibration    10          0.659              1.775              1.786
 Vibration    11          0.672              1.733              1.614
 Vibration    12          0.677              1.719              1.562
 Vibration    13          0.696              1.662              1.384
 Vibration    14          0.698              1.657              1.369
 Vibration    15          0.705              1.639              1.320
 Vibration    16          0.715              1.610              1.247
 Vibration    17          0.726              1.579              1.175
 Vibration    18          0.728              1.573              1.160
 Vibration    19          0.741              1.537              1.086
 Vibration    20          0.766              1.470              0.963
 Vibration    21          0.784              1.423              0.885
 Vibration    22          0.789              1.410              0.867
 Vibration    23          0.829              1.312              0.732
 Vibration    24          0.882              1.191              0.594
 Vibration    25          0.956              1.036              0.453

 Optimization completed.
    -- Stationary point found.
 Normal termination of Gaussian 16 at Wed Dec  9 22:45:44 2020.

 ----------------------------------------------------------------------
 # B3LYP/6-311++G(d,p) empiricaldispersion=gd3bj scf=xqc pop=npa geom=c
 heck
 ----------------------------------------------------------------------

 --------------------------------------
 CID_88498149_JID_3178_Energie_neutraal
 --------------------------------------
 Structure from the checkpoint file:  "JID_3178.chk"
 Charge =  0 Multiplicity = 1

 SCF Done:  E(RB3LYP) =  -1264.95533570     A.U. after   14 cycles
 Normal termination of Gaussian 16 at Wed Dec  9 22:51:27 2020.

 ----------------------------------------------------------------------
 # B3LYP/6-311++G(d,p) empiricaldispersion=gd3bj scf=xqc pop=npa geom=c
 heck
 ----------------------------------------------------------------------

 ------------------------------------
 CID_88498149_JID_3178_Energie_kation
 ------------------------------------
 Structure from the checkpoint file:  "JID_3178.chk"
 Charge =  1 Multiplicity = 2

 SCF Done:  E(UB3LYP) =  -1264.67349545     A.U. after   22 cycles
 Normal termination of Gaussian 16 at Wed Dec  9 23:04:17 2020.
 Gaussian 16:  ES64L-G16RevA.03 25-Dec-2016

 ----------------------------------------------------------------------
 # B3LYP/6-311++G(d,p) empiricaldispersion=gd3bj scf=xqc pop=npa geom=c
 heck
 ----------------------------------------------------------------------

 -----------------------------------
 CID_88498149_JID_3178_Energie_anion
 -----------------------------------
 Structure from the checkpoint file:  "JID_3178.chk"
 Charge = -1 Multiplicity = 2

                         Standard orientation:
 ---------------------------------------------------------------------
 Center     Atomic      Atomic             Coordinates (Angstroms)
 Number     Number       Type             X           Y           Z
 ---------------------------------------------------------------------
      1          6           0       -1.590893    3.094135   -0.686911
      2          6           0       -0.641146    2.235462    0.130731
      3          8           0       -0.338882    1.065689   -0.642883
      4          6           0       -0.173096   -0.206499   -0.044962
      5         16           0        0.861697   -1.150350   -1.271662
      6          6           0        2.347376   -0.086581   -1.286861
      7          6           0        3.073731   -0.027410    0.054984
      8          6           0        2.269679    0.692233    1.134812
      9         16           0        0.694209   -0.123880    1.605896
     10          6           0       -1.540614   -0.968172    0.129143
     11          6           0       -2.480147   -0.214239    1.093141
     12          6           0       -2.246225   -1.053307   -1.239243
     13          6           0       -1.325559   -2.391053    0.681137
     14          1           0       -1.161198    3.310003   -1.670186
     15          1           0       -1.781369    4.043958   -0.174539
     16          1           0       -2.546666    2.582022   -0.839005
     17          1           0        0.292157    2.781022    0.323828
     18          1           0       -1.070849    1.975251    1.098041
     19          1           0        2.049094    0.912959   -1.618483
     20          1           0        2.990033   -0.521951   -2.058014
     21          1           0        3.323297   -1.040857    0.386800
     22          1           0        4.017649    0.519953   -0.081943
     23          1           0        2.833058    0.732235    2.072233
     24          1           0        2.065380    1.723571    0.830623
     25          1           0       -2.810915    0.740128    0.675177
     26          1           0       -3.375672   -0.823220    1.258550
     27          1           0       -2.019214   -0.030308    2.068079
     28          1           0       -1.722437   -1.718154   -1.930980
     29          1           0       -3.260255   -1.444083   -1.098509
     30          1           0       -2.312809   -0.066450   -1.703636
     31          1           0       -0.643781   -2.972219    0.055179
     32          1           0       -0.918410   -2.376784    1.696002
     33          1           0       -2.289167   -2.912337    0.710290
 ---------------------------------------------------------------------

 SCF Done:  E(UB3LYP) =  -1264.94021826     A.U. after   30 cycles

 The electronic state is 2-A.
 Alpha  occ. eigenvalues --  -88.73702 -88.73456 -19.03396 -10.18478 -10.11644
 Alpha  occ. eigenvalues --  -10.10379 -10.09724 -10.09507 -10.07498 -10.06720
 Alpha  occ. eigenvalues --  -10.06654 -10.06307 -10.06237  -7.82375  -7.82144
 Alpha  occ. eigenvalues --   -5.78757  -5.78531  -5.78410  -5.78188  -5.77728
 Alpha  occ. eigenvalues --   -5.77483  -0.94736  -0.74732  -0.71970  -0.67304
 Alpha  occ. eigenvalues --   -0.65932  -0.62927  -0.59630  -0.59503  -0.54703
 Alpha  occ. eigenvalues --   -0.52890  -0.50758  -0.47033  -0.44252  -0.39791
 Alpha  occ. eigenvalues --   -0.39146  -0.36661  -0.35849  -0.34843  -0.33874
 Alpha  occ. eigenvalues --   -0.33790  -0.32460  -0.31651  -0.30405  -0.29507
 Alpha  occ. eigenvalues --   -0.28992  -0.28407  -0.27843  -0.27511  -0.26192
 Alpha  occ. eigenvalues --   -0.25473  -0.25244  -0.25072  -0.24264  -0.22931
 Alpha  occ. eigenvalues --   -0.21104  -0.18482  -0.17163  -0.14007  -0.11306
 Alpha  occ. eigenvalues --    0.04527
 Alpha virt. eigenvalues --    0.06294   0.07078   0.07813   0.08634   0.08776
 Alpha virt. eigenvalues --    0.09066   0.09482   0.09974   0.10727   0.11418
 Alpha virt. eigenvalues --    0.11597   0.11909   0.12420   0.12700   0.13096

  Beta  occ. eigenvalues --  -88.73698 -88.73454 -19.03389 -10.18467 -10.11623
  Beta  occ. eigenvalues --  -10.10375 -10.09691 -10.09484 -10.07470 -10.06702
  Beta  occ. eigenvalues --  -10.06651 -10.06299 -10.06200  -7.82370  -7.82142
  Beta  occ. eigenvalues --   -5.78748  -5.78528  -5.78408  -5.78187  -5.77725
  Beta  occ. eigenvalues --   -5.77480  -0.94720  -0.74712  -0.71940  -0.67264
  Beta  occ. eigenvalues --   -0.65894  -0.62884  -0.59605  -0.59488  -0.54649
  Beta  occ. eigenvalues --   -0.52839  -0.50694  -0.46965  -0.44213  -0.39760
  Beta  occ. eigenvalues --   -0.39123  -0.36616  -0.35819  -0.34814  -0.33848
  Beta  occ. eigenvalues --   -0.33750  -0.32424  -0.31613  -0.30381  -0.29477
  Beta  occ. eigenvalues --   -0.28957  -0.28379  -0.27804  -0.27498  -0.26148
  Beta  occ. eigenvalues --   -0.25440  -0.25206  -0.25038  -0.24247  -0.22904
  Beta  occ. eigenvalues --   -0.21067  -0.18464  -0.17142  -0.13993  -0.11279
  Beta virt. eigenvalues --    0.06491   0.07245   0.07760   0.08358   0.09015
  Beta virt. eigenvalues --    0.09189   0.09592   0.09703   0.10304   0.10982
  Beta virt. eigenvalues --    0.11767   0.11852   0.12154   0.12923   0.13018

 Mulliken charges and spin densities:
               1          2
     1  C    1.038813  -1.555517
     2  C   -0.355536   0.124389
     3  O    0.115052   0.007151
     4  C    0.430957  -0.015418
     5  S   -0.182936  -0.109160
     6  C   -0.045334  -0.306405
     7  C    0.712229  -0.795053
     8  C    0.071798  -0.530101
     9  S   -0.426027  -0.063790
    10  C   -0.575842   0.775093
    11  C    0.345158  -0.869221
    12  C   -0.075722  -0.381882
    13  C   -0.411359  -0.153000
    14  H   -0.048963   0.208178
    15  H   -0.390284   0.532045
    16  H   -0.257476   0.386771
    17  H   -0.413728   0.557258
    18  H    0.148692   0.023441
    19  H    0.093889   0.118715
    20  H   -0.233999   0.467392
    21  H    0.128758  -0.012471
    22  H   -0.693931   0.885774
    23  H   -0.550320   0.770531
    24  H    0.071163   0.101749
    25  H   -0.029985   0.164768
    26  H    0.056422   0.100534
    27  H   -0.049998   0.213565
    28  H    0.085638   0.054163
    29  H    0.009190   0.140429
    30  H    0.195654  -0.034208
    31  H    0.087612   0.056554
    32  H    0.052358   0.097911
    33  H    0.098057   0.039815
 Sum of Mulliken charges =  -1.00000   1.00000

 Dipole moment (field-independent basis, Debye):
    X=             -3.8390    Y=             -5.3982    Z=             -0.5480  Tot=              6.6467
 Quadrupole moment (field-independent basis, Debye-Ang):
   XX=           -162.0746   YY=           -149.3451   ZZ=           -135.9119
   XY=             -0.2953   XZ=             -0.8255   YZ=             -2.0222

 Summary of Natural Population Analysis:

                                       Natural Population
                Natural  -----------------------------------------------
    Atom  No    Charge         Core      Valence    Rydberg      Total
 -----------------------------------------------------------------------
      C    1   -0.29068      0.99965     2.28541    0.00562     3.29068
      C    2   -0.01419      0.99955     2.00193    0.01271     3.01419
      O    3   -0.32608      0.99984     3.30991    0.01633     4.32608
      C    4    0.03266      0.99952     1.94328    0.02454     2.96734
      S    5    0.09954      4.99949     2.88432    0.01666     7.90046
      C    6   -0.25270      0.99959     2.24055    0.01256     3.25270
      C    7   -0.19947      0.99960     2.18967    0.01020     3.19947
      C    8   -0.25025      0.99958     2.23826    0.01241     3.25025
      S    9    0.09153      4.99950     2.89227    0.01670     7.90847
      C   10   -0.06477      0.99951     2.05286    0.01240     3.06477
      C   11   -0.29042      0.99962     2.28250    0.00830     3.29042
      C   12   -0.28764      0.99962     2.28092    0.00709     3.28764
      C   13   -0.28852      0.99962     2.28278    0.00612     3.28852
      H   14    0.10143      0.00000     0.39738    0.00119     0.39857
      H   15    0.10198      0.00000     0.39657    0.00146     0.39802
      H   16    0.09629      0.00000     0.40245    0.00126     0.40371
      H   17    0.08412      0.00000     0.41391    0.00198     0.41588
      H   18    0.09168      0.00000     0.40625    0.00207     0.40832
      H   19    0.10751      0.00000     0.39062    0.00187     0.39249
      H   20    0.10872      0.00000     0.39003    0.00125     0.39128
      H   21    0.10014      0.00000     0.39852    0.00133     0.39986
      H   22    0.10671      0.00000     0.39033    0.00295     0.39329
      H   23    0.11121      0.00000     0.38708    0.00171     0.38879
      H   24    0.10170      0.00000     0.39549    0.00281     0.39830
      H   25    0.10308      0.00000     0.39571    0.00121     0.39692
      H   26    0.10005      0.00000     0.39918    0.00077     0.39995
      H   27    0.10642      0.00000     0.39240    0.00118     0.39358
      H   28    0.10446      0.00000     0.39456    0.00098     0.39554
      H   29    0.09656      0.00000     0.40265    0.00079     0.40344
      H   30    0.10932      0.00000     0.38943    0.00125     0.39068
      H   31    0.10717      0.00000     0.39184    0.00099     0.39283
      H   32    0.10608      0.00000     0.39298    0.00093     0.39392
      H   33    0.09636      0.00000     0.40285    0.00078     0.40364
 =======================================================================
   * Total *    0.00000     20.99469    38.81490    0.19041    60.00000

 Normal termination of Gaussian 16 at Wed Dec  9 23:21:22 2020.
