 Gaussian 16, Revision A.03,

 -----------------------------------------------------------
 # opt freq B3LYP/6-31G(d) empiricaldispersion=gd3bj scf=xqc
 -----------------------------------------------------------

 ------------------------------
 CID_66418150_JID_7606_neutraal
 ------------------------------
 Symbolic Z-matrix:
 Charge =  0 Multiplicity = 1

 SCF Done:  E(RB3LYP) =  -1409.70583030     A.U. after   16 cycles
 SCF Done:  E(RB3LYP) =  -1409.71081717     A.U. after   13 cycles
 SCF Done:  E(RB3LYP) =  -1409.69758957     A.U. after   15 cycles
 SCF Done:  E(RB3LYP) =  -1409.70914520     A.U. after   13 cycles
 SCF Done:  E(RB3LYP) =  -1409.71353669     A.U. after   11 cycles
 SCF Done:  E(RB3LYP) =  -1409.71463175     A.U. after   13 cycles
 SCF Done:  E(RB3LYP) =  -1409.71803539     A.U. after   14 cycles
 SCF Done:  E(RB3LYP) =  -1409.72275115     A.U. after   16 cycles
 SCF Done:  E(RB3LYP) =  -1409.72554067     A.U. after   15 cycles
 SCF Done:  E(RB3LYP) =  -1409.72697545     A.U. after   14 cycles
 SCF Done:  E(RB3LYP) =  -1409.72902575     A.U. after   10 cycles
 SCF Done:  E(RB3LYP) =  -1409.72902808     A.U. after    9 cycles
 SCF Done:  E(RB3LYP) =  -1409.72902843     A.U. after    9 cycles
 SCF Done:  E(RB3LYP) =  -1409.72902868     A.U. after    8 cycles
 SCF Done:  E(RB3LYP) =  -1409.72902884     A.U. after    7 cycles
 Optimization completed.
    -- Stationary point found.
 Normal termination of Gaussian 16 at Fri Dec 11 13:07:10 2020.

 --------------------------------------------------------------------
 #N Geom=AllCheck Guess=TCheck SCRF=Check GenChk RB3LYP/6-31G(d) Freq
 --------------------------------------------------------------------

 Structure from the checkpoint file:  "JID_7606.chk"
 ------------------------------
 CID_66418150_JID_7606_neutraal
 ------------------------------
 Charge =  0 Multiplicity = 1

 SCF Done:  E(RB3LYP) =  -1409.72902884     A.U. after    1 cycles

  Exact polarizability: 242.765 -10.895 171.497   4.762  -5.194 132.160
 Approx polarizability: 315.851 -19.683 296.445   2.267 -19.652 230.596

                      1                      2                      3
                      A                      A                      A
 Frequencies --     16.6288                21.1793                32.8934
 Red. masses --      4.5135                 4.5789                 5.5601
 Frc consts  --      0.0007                 0.0012                 0.0035
 IR Inten    --      0.0467                 0.1848                 0.3645

                      4                      5                      6
                      A                      A                      A
 Frequencies --     69.6255                89.8072               130.5255
 Red. masses --      4.6360                 4.8215                 1.1130
 Frc consts  --      0.0132                 0.0229                 0.0112
 IR Inten    --      0.5193                 0.3597                 0.1694

                      7                      8                      9
                      A                      A                      A
 Frequencies --    143.4707               162.7884               191.2871
 Red. masses --      3.6033                 3.4188                 5.3884
 Frc consts  --      0.0437                 0.0534                 0.1162
 IR Inten    --      0.8544                 0.2819                 0.6556

                     10                     11                     12
                      A                      A                      A
 Frequencies --    205.4209               221.3380               265.3672
 Red. masses --      3.8356                 7.3023                 3.5394
 Frc consts  --      0.0954                 0.2108                 0.1468
 IR Inten    --      8.4216                 0.8078                 6.1779

                     13                     14                     15
                      A                      A                      A
 Frequencies --    284.7591               323.1841               352.4679
 Red. masses --      2.5555                 1.1940                 3.9705
 Frc consts  --      0.1221                 0.0735                 0.2906
 IR Inten    --      7.6481                37.2755                 6.6961

                     16                     17                     18
                      A                      A                      A
 Frequencies --    385.0061               408.1535               423.3368
 Red. masses --      3.7038                 3.9828                 3.7350
 Frc consts  --      0.3235                 0.3909                 0.3944
 IR Inten    --      0.7483                 6.5614                 1.3642

                     19                     20                     21
                      A                      A                      A
 Frequencies --    448.0355               473.7832               525.0658
 Red. masses --      5.5563                 3.3519                 2.7067
 Frc consts  --      0.6571                 0.4433                 0.4397
 IR Inten    --     19.0498                10.4220                38.1145

                     22                     23                     24
                      A                      A                      A
 Frequencies --    542.6829               567.6573               575.6221
 Red. masses --      1.9177                 5.7172                 6.1524
 Frc consts  --      0.3328                 1.0854                 1.2011
 IR Inten    --    232.8374                 2.2553                 1.9838

                     25                     26                     27
                      A                      A                      A
 Frequencies --    611.0152               643.0694               646.7540
 Red. masses --      3.8980                 5.7724                 6.4689
 Frc consts  --      0.8574                 1.4064                 1.5943
 IR Inten    --     59.3084                 2.0478                11.5207

                     28                     29                     30
                      A                      A                      A
 Frequencies --    665.4129               677.6771               719.2828
 Red. masses --      4.5645                 4.3212                 4.1299
 Frc consts  --      1.1908                 1.1692                 1.2589
 IR Inten    --     69.5210                20.9383                 0.6121

                     31                     32                     33
                      A                      A                      A
 Frequencies --    743.0101               768.4210               790.3605
 Red. masses --      1.7565                 2.2870                 2.8585
 Frc consts  --      0.5713                 0.7956                 1.0521
 IR Inten    --     32.4267                10.6738                 1.6923

                     34                     35                     36
                      A                      A                      A
 Frequencies --    847.4698               878.9845               885.6582
 Red. masses --      3.5217                 1.3319                 1.5295
 Frc consts  --      1.4902                 0.6063                 0.7069
 IR Inten    --      1.4666                 1.6463                 0.5421

                     37                     38                     39
                      A                      A                      A
 Frequencies --    908.7722               913.2387               938.8394
 Red. masses --      4.0550                 3.8175                 1.4315
 Frc consts  --      1.9731                 1.8758                 0.7434
 IR Inten    --     13.7375                 4.2251                 0.1206

                     40                     41                     42
                      A                      A                      A
 Frequencies --    982.5035              1011.9617              1014.5847
 Red. masses --      1.2503                 1.9155                 1.9629
 Frc consts  --      0.7111                 1.1557                 1.1905
 IR Inten    --      0.0104                12.7500                 7.1446

                     43                     44                     45
                      A                      A                      A
 Frequencies --   1033.3788              1077.3417              1081.2222
 Red. masses --      2.1409                 1.5312                 2.5097
 Frc consts  --      1.3470                 1.0471                 1.7286
 IR Inten    --      2.8062                 2.6562                 0.4771

                     46                     47                     48
                      A                      A                      A
 Frequencies --   1087.6616              1103.0757              1118.6218
 Red. masses --      3.1218                 1.2235                 1.9642
 Frc consts  --      2.1759                 0.8771                 1.4481
 IR Inten    --     14.2010                 0.6872                 0.7559

                     49                     50                     51
                      A                      A                      A
 Frequencies --   1139.9435              1163.1805              1186.7594
 Red. masses --      2.0966                 1.7649                 1.1825
 Frc consts  --      1.6052                 1.4069                 0.9813
 IR Inten    --     12.5686                 0.8167                 0.0934

                     52                     53                     54
                      A                      A                      A
 Frequencies --   1213.1580              1219.7402              1230.5915
 Red. masses --      1.3622                 1.5606                 2.1832
 Frc consts  --      1.1812                 1.3679                 1.9479
 IR Inten    --      6.8955                 4.1491                 6.8483

                     55                     56                     57
                      A                      A                      A
 Frequencies --   1243.5487              1284.9889              1316.4776
 Red. masses --      1.4824                 1.3137                 1.5256
 Frc consts  --      1.3506                 1.2781                 1.5578
 IR Inten    --      4.2922                21.3494                 2.6042

                     58                     59                     60
                      A                      A                      A
 Frequencies --   1328.9368              1360.9782              1364.8364
 Red. masses --      4.1064                 1.7447                 3.6369
 Frc consts  --      4.2729                 1.9040                 3.9915
 IR Inten    --     25.5472                 9.1748               124.9196

                     61                     62                     63
                      A                      A                      A
 Frequencies --   1397.8259              1436.6762              1497.0609
 Red. masses --      3.2142                 1.3298                 1.2738
 Frc consts  --      3.7003                 1.6172                 1.6820
 IR Inten    --      1.5768                23.8897                 2.1305

                     64                     65                     66
                      A                      A                      A
 Frequencies --   1500.2130              1507.0826              1509.4302
 Red. masses --      1.2871                 2.1661                 1.1639
 Frc consts  --      1.7068                 2.8988                 1.5624
 IR Inten    --     23.6624                 4.4377                 3.5016

                     67                     68                     69
                      A                      A                      A
 Frequencies --   1512.1377              1516.4506              1565.2779
 Red. masses --      1.5140                 1.2328                 3.5201
 Frc consts  --      2.0396                 1.6704                 5.0815
 IR Inten    --     21.4325                 2.3156               136.6547

                     70                     71                     72
                      A                      A                      A
 Frequencies --   1587.1246              1654.7007              1664.3821
 Red. masses --      4.0915                 6.6498                 6.7632
 Frc consts  --      6.0723                10.7275                11.0385
 IR Inten    --    107.6526                 0.3622                 1.3104

                     73                     74                     75
                      A                      A                      A
 Frequencies --   1671.8098              3054.8504              3060.4439
 Red. masses --      1.3430                 1.0380                 1.0818
 Frc consts  --      2.2116                 5.7072                 5.9701
 IR Inten    --    202.8168                21.5156                13.2669

                     76                     77                     78
                      A                      A                      A
 Frequencies --   3068.2391              3069.2198              3107.8503
 Red. masses --      1.0596                 1.0581                 1.1007
 Frc consts  --      5.8771                 5.8728                 6.2636
 IR Inten    --     37.7156                 8.6975                13.7968

                     79                     80                     81
                      A                      A                      A
 Frequencies --   3114.9927              3123.2368              3158.0143
 Red. masses --      1.1076                 1.1094                 1.1004
 Frc consts  --      6.3320                 6.3758                 6.4657
 IR Inten    --     21.7087                14.2251                 9.1065

                     82                     83                     84
                      A                      A                      A
 Frequencies --   3178.9824              3188.9387              3198.1805
 Red. masses --      1.0853                 1.0888                 1.0937
 Frc consts  --      6.4622                 6.5238                 6.5910
 IR Inten    --      0.0916                 5.8821                38.3929

                     85                     86                     87
                      A                      A                      A
 Frequencies --   3206.7734              3559.2442              3670.7126
 Red. masses --      1.0967                 1.0471                 1.0999
 Frc consts  --      6.6449                 7.8151                 8.7322
 IR Inten    --     32.3720                47.9556                27.2632

 - Thermochemistry -
 -------------------
 Temperature   298.150 Kelvin.  Pressure   1.00000 Atm.
 Atom     1 has atomic number  6 and mass  12.00000

 Molecular mass:   262.05984 amu.
 Principal axes and moments of inertia in atomic units:
                           1         2         3
     Eigenvalues --  1954.31723********************
           X            0.99999   0.00108  -0.00320
           Y           -0.00115   0.99973  -0.02312
           Z            0.00317   0.02312   0.99973
 This molecule is an asymmetric top.
 Rotational symmetry number  1.
 Warning -- assumption of classical behavior for rotation
           may cause significant error
 Rotational temperatures (Kelvin)      0.04432     0.00744     0.00719
 Rotational constants (GHZ):           0.92346     0.15512     0.14992
 Zero-point vibrational energy     645034.8 (Joules/Mol)
                                  154.16701 (Kcal/Mol)
 Warning -- explicit consideration of  25 degrees of freedom as
           vibrations may cause significant error
 Vibrational temperatures:     23.93    30.47    47.33   100.18   129.21
          (Kelvin)            187.80   206.42   234.22   275.22   295.55
                              318.46   381.80   409.70   464.99   507.12
                              553.94   587.24   609.09   644.62   681.67
                              755.45   780.80   816.73   828.19   879.11
                              925.23   930.53   957.38   975.03  1034.89
                             1069.03  1105.59  1137.15  1219.32  1264.66
                             1274.26  1307.52  1313.95  1350.78  1413.60
                             1455.99  1459.76  1486.80  1550.05  1555.64
                             1564.90  1587.08  1609.45  1640.12  1673.56
                             1707.48  1745.46  1754.93  1770.55  1789.19
                             1848.81  1894.12  1912.04  1958.14  1963.70
                             2011.16  2067.06  2153.94  2158.47  2168.36
                             2171.73  2175.63  2181.83  2252.09  2283.52
                             2380.75  2394.67  2405.36  4395.25  4403.30
                             4414.51  4415.92  4471.50  4481.78  4493.64
                             4543.68  4573.85  4588.17  4601.47  4613.83
                             5120.96  5281.34

 Zero-point correction=                           0.245681 (Hartree/Particle)
 Thermal correction to Energy=                    0.262052
 Thermal correction to Enthalpy=                  0.262996
 Thermal correction to Gibbs Free Energy=         0.198819
 Sum of electronic and zero-point Energies=          -1409.483348
 Sum of electronic and thermal Energies=             -1409.466977
 Sum of electronic and thermal Enthalpies=           -1409.466033
 Sum of electronic and thermal Free Energies=        -1409.530210

                     E (Thermal)             CV                S
                      KCal/Mol        Cal/Mol-Kelvin    Cal/Mol-Kelvin
 Total                  164.440             61.775            135.072
 Electronic               0.000              0.000              0.000
 Translational            0.889              2.981             42.590
 Rotational               0.889              2.981             33.970
 Vibrational            162.662             55.813             58.512
 Vibration     1          0.593              1.986              7.001
 Vibration     2          0.593              1.985              6.520
 Vibration     3          0.594              1.983              5.647
 Vibration     4          0.598              1.969              4.164
 Vibration     5          0.602              1.956              3.664
 Vibration     6          0.612              1.923              2.938
 Vibration     7          0.616              1.910              2.757
 Vibration     8          0.623              1.888              2.517
 Vibration     9          0.634              1.852              2.215
 Vibration    10          0.640              1.832              2.084
 Vibration    11          0.648              1.809              1.948
 Vibration    12          0.671              1.737              1.626
 Vibration    13          0.683              1.702              1.505
 Vibration    14          0.708              1.629              1.294
 Vibration    15          0.729              1.570              1.155
 Vibration    16          0.754              1.502              1.019
 Vibration    17          0.773              1.453              0.933
 Vibration    18          0.785              1.419              0.881
 Vibration    19          0.807              1.365              0.802
 Vibration    20          0.831              1.308              0.727
 Vibration    21          0.880              1.195              0.598
 Vibration    22          0.898              1.156              0.560
 Vibration    23          0.924              1.101              0.509
 Vibration    24          0.932              1.084              0.494
 Vibration    25          0.970              1.009              0.431

                           ! Non-Optimized Parameters !
 Normal termination of Gaussian 16 at Fri Dec 11 13:16:04 2020.

 ----------------------------------------------------------------------
 # B3LYP/6-311++G(d,p) empiricaldispersion=gd3bj scf=xqc pop=npa geom=c
 heck
 ----------------------------------------------------------------------

 --------------------------------------
 CID_66418150_JID_7606_Energie_neutraal
 --------------------------------------
 Structure from the checkpoint file:  "JID_7606.chk"
 Charge =  0 Multiplicity = 1

 SCF Done:  E(RB3LYP) =  -1409.94614937     A.U. after   16 cycles
 Normal termination of Gaussian 16 at Fri Dec 11 13:20:35 2020.

 ----------------------------------------------------------------------
 # B3LYP/6-311++G(d,p) empiricaldispersion=gd3bj scf=xqc pop=npa geom=c
 heck
 ----------------------------------------------------------------------

 ------------------------------------
 CID_66418150_JID_7606_Energie_kation
 ------------------------------------
 Structure from the checkpoint file:  "JID_7606.chk"
 Charge =  1 Multiplicity = 2

 SCF Done:  E(UB3LYP) =  -1409.66958044     A.U. after   27 cycles
 Normal termination of Gaussian 16 at Fri Dec 11 13:30:25 2020.
 Gaussian 16:  ES64L-G16RevA.03 25-Dec-2016

 ----------------------------------------------------------------------
 # B3LYP/6-311++G(d,p) empiricaldispersion=gd3bj scf=xqc pop=npa geom=c
 heck
 ----------------------------------------------------------------------

 -----------------------------------
 CID_66418150_JID_7606_Energie_anion
 -----------------------------------
 Structure from the checkpoint file:  "JID_7606.chk"
 Charge = -1 Multiplicity = 2

                         Standard orientation:
 ---------------------------------------------------------------------
 Center     Atomic      Atomic             Coordinates (Angstroms)
 Number     Number       Type             X           Y           Z
 ---------------------------------------------------------------------
      1          6           0        2.172812    2.278109   -1.237883
      2          6           0        2.713821    1.019101   -0.636033
      3          6           0        2.165513    0.338089    0.423266
      4         16           0        3.158934   -1.093280    0.776291
      5          6           0        4.201137   -0.626778   -0.562385
      6          7           0        3.854884    0.467506   -1.184901
      7          7           0        5.337980   -1.336371   -0.866524
      8         16           0        0.735797    0.715584    1.363023
      9          6           0       -0.548548   -0.261219    0.456943
     10          6           0       -1.916833    0.002295    1.068568
     11          6           0       -2.545198    1.429194    0.779062
     12          6           0       -3.654669    0.689273    0.044703
     13          6           0       -4.832206    0.847914   -0.670316
     14          6           0       -5.435140   -0.332481   -1.134899
     15          6           0       -4.876862   -1.594109   -0.886152
     16          6           0       -3.685996   -1.742175   -0.156748
     17          6           0       -3.103905   -0.568193    0.296049
     18          1           0        1.281523    2.615813   -0.705374
     19          1           0        2.929642    3.069945   -1.203049
     20          1           0        1.921575    2.117813   -2.292880
     21          1           0        5.728522   -1.089204   -1.768295
     22          1           0        5.322025   -2.330667   -0.683483
     23          1           0       -0.532725    0.037917   -0.595691
     24          1           0       -0.290369   -1.323058    0.519901
     25          1           0       -1.909950   -0.254120    2.135085
     26          1           0       -1.910566    2.074207    0.161500
     27          1           0       -2.846041    1.987743    1.671493
     28          1           0       -5.277317    1.818414   -0.872777
     29          1           0       -6.358982   -0.270086   -1.703886
     30          1           0       -5.381795   -2.477429   -1.267966
     31          1           0       -3.264840   -2.726212    0.031321
 ---------------------------------------------------------------------

 SCF Done:  E(UB3LYP) =  -1409.93834692     A.U. after   33 cycles
 SCF Done:  E(UB3LYP) =  -1409.93834692     a.u. after    1 cycles

 The electronic state is 2-A.
 Alpha  occ. eigenvalues --  -88.76753 -88.74997 -14.22354 -14.19468 -10.15968
 Alpha  occ. eigenvalues --  -10.10665 -10.10504 -10.10158 -10.09847 -10.08872
 Alpha  occ. eigenvalues --  -10.08333 -10.08098 -10.08008 -10.07773 -10.07708
 Alpha  occ. eigenvalues --  -10.07560 -10.07365  -7.85378  -7.83550  -5.81678
 Alpha  occ. eigenvalues --   -5.81345  -5.80907  -5.79956  -5.79577  -5.78928
 Alpha  occ. eigenvalues --   -0.87318  -0.79790  -0.79097  -0.72929  -0.70941
 Alpha  occ. eigenvalues --   -0.67142  -0.66117  -0.65223  -0.60302  -0.58358
 Alpha  occ. eigenvalues --   -0.55577  -0.52421  -0.49536  -0.47704  -0.46394
 Alpha  occ. eigenvalues --   -0.45313  -0.42237  -0.40235  -0.38459  -0.37588
 Alpha  occ. eigenvalues --   -0.36748  -0.35521  -0.34158  -0.33837  -0.32764
 Alpha  occ. eigenvalues --   -0.32044  -0.31228  -0.30239  -0.29796  -0.28970
 Alpha  occ. eigenvalues --   -0.28145  -0.26608  -0.25801  -0.24868  -0.24188
 Alpha  occ. eigenvalues --   -0.23292  -0.22147  -0.20206  -0.17667  -0.16927
 Alpha  occ. eigenvalues --   -0.16403  -0.15296  -0.13617  -0.10819   0.04336
 Alpha virt. eigenvalues --    0.05641   0.06372   0.07271   0.07464   0.07851
 Alpha virt. eigenvalues --    0.08234   0.08594   0.09188   0.09326   0.09626
 Alpha virt. eigenvalues --    0.10377   0.10989   0.11606   0.11842   0.12003

  Beta  occ. eigenvalues --  -88.76745 -88.74995 -14.22245 -14.19490 -10.15851
  Beta  occ. eigenvalues --  -10.10599 -10.10456 -10.10117 -10.09849 -10.08869
  Beta  occ. eigenvalues --  -10.08346 -10.08045 -10.08022 -10.07656 -10.07583
  Beta  occ. eigenvalues --  -10.07509 -10.07369  -7.85369  -7.83546  -5.81672
  Beta  occ. eigenvalues --   -5.81342  -5.80886  -5.79951  -5.79573  -5.78926
  Beta  occ. eigenvalues --   -0.87205  -0.79657  -0.78980  -0.72818  -0.70848
  Beta  occ. eigenvalues --   -0.67056  -0.66002  -0.65034  -0.60218  -0.58277
  Beta  occ. eigenvalues --   -0.55471  -0.52266  -0.49416  -0.47556  -0.46327
  Beta  occ. eigenvalues --   -0.45204  -0.42162  -0.40073  -0.38392  -0.37481
  Beta  occ. eigenvalues --   -0.36670  -0.35401  -0.34034  -0.33748  -0.32707
  Beta  occ. eigenvalues --   -0.31956  -0.31187  -0.30102  -0.29730  -0.28879
  Beta  occ. eigenvalues --   -0.28069  -0.26245  -0.25710  -0.24815  -0.24097
  Beta  occ. eigenvalues --   -0.23189  -0.22085  -0.20015  -0.17635  -0.16825
  Beta  occ. eigenvalues --   -0.15710  -0.15023  -0.13576  -0.10535
  Beta virt. eigenvalues --    0.06092   0.06940   0.07254   0.07567   0.07883
  Beta virt. eigenvalues --    0.08208   0.08468   0.08972   0.09179   0.09391
  Beta virt. eigenvalues --    0.10174   0.10386   0.11002   0.11671   0.11855

 Mulliken charges and spin densities:
               1          2
     1  C   -0.769958   0.041504
     2  C   -1.038259   0.074006
     3  C    1.898265  -0.317029
     4  S   -0.170388   0.036470
     5  C    0.692981  -0.611188
     6  N    0.067646  -0.131297
     7  N   -0.318389   0.107077
     8  S   -0.239771   0.021415
     9  C   -1.111706  -0.073157
    10  C    0.827132  -0.139524
    11  C   -0.404921  -0.120064
    12  C   -0.266863  -0.069557
    13  C   -0.726724   0.198692
    14  C   -0.230574  -0.061461
    15  C   -0.152135  -0.021619
    16  C   -0.416575   0.232032
    17  C    0.835595  -0.057743
    18  H    0.110817   0.001814
    19  H    0.141188   0.008554
    20  H    0.151631   0.008715
    21  H   -0.142013   0.401941
    22  H   -0.758197   1.032971
    23  H    0.181177   0.006748
    24  H    0.216250  -0.021369
    25  H    0.016193   0.194101
    26  H    0.187279  -0.015455
    27  H    0.026526   0.119531
    28  H    0.095911   0.046418
    29  H    0.087492   0.039520
    30  H    0.103007   0.036715
    31  H    0.107383   0.031240
 Sum of Mulliken charges =  -1.00000   1.00000

 Dipole moment (field-independent basis, Debye):
    X=             -8.4660    Y=              4.7472    Z=              1.0547  Tot=              9.7633
 Quadrupole moment (field-independent basis, Debye-Ang):
   XX=           -238.1712   YY=           -145.8390   ZZ=           -140.5076
   XY=             26.5097   XZ=             14.2783   YZ=             -6.0528

 Summary of Natural Population Analysis:

                                       Natural Population
                Natural  -----------------------------------------------
    Atom  No    Charge         Core      Valence    Rydberg      Total
 -----------------------------------------------------------------------
      C    1   -0.29622      0.99962     2.29191    0.00468     3.29622
      C    2    0.08508      0.99940     1.90152    0.01400     2.91492
      C    3   -0.22330      0.99935     2.21105    0.01290     3.22330
      S    4    0.16916      4.99938     2.81127    0.02019     7.83084
      C    5    0.15674      0.99963     1.82168    0.02196     2.84326
      N    6   -0.28979      0.99962     2.77908    0.01109     3.78979
      N    7   -0.39291      0.99969     2.88050    0.01272     3.89291
      S    8    0.11702      4.99947     2.86259    0.02092     7.88298
      C    9   -0.23456      0.99956     2.22487    0.01013     3.23456
      C   10   -0.11597      0.99958     2.10460    0.01179     3.11597
      C   11   -0.18777      0.99962     2.17954    0.00861     3.18777
      C   12   -0.01793      0.99945     2.00779    0.01069     3.01793
      C   13   -0.08779      0.99951     2.07938    0.00890     3.08779
      C   14   -0.09718      0.99958     2.08742    0.01017     3.09718
      C   15   -0.10889      0.99958     2.09907    0.01023     3.10889
      C   16   -0.08215      0.99950     2.07405    0.00860     3.08215
      C   17   -0.00609      0.99944     1.99455    0.01209     3.00609
      H   18    0.10692      0.00000     0.39211    0.00097     0.39308
      H   19    0.10413      0.00000     0.39485    0.00102     0.39587
      H   20    0.10462      0.00000     0.39437    0.00101     0.39538
      H   21    0.19508      0.00000     0.30080    0.00412     0.30492
      H   22    0.20024      0.00000     0.27490    0.02486     0.29976
      H   23    0.10160      0.00000     0.39729    0.00111     0.39840
      H   24    0.10402      0.00000     0.39492    0.00106     0.39598
      H   25    0.10427      0.00000     0.39388    0.00185     0.39573
      H   26    0.10255      0.00000     0.39654    0.00091     0.39745
      H   27    0.10171      0.00000     0.39722    0.00107     0.39829
      H   28    0.09721      0.00000     0.40188    0.00091     0.40279
      H   29    0.09488      0.00000     0.40431    0.00081     0.40512
      H   30    0.09603      0.00000     0.40314    0.00083     0.40397
      H   31    0.09926      0.00000     0.39982    0.00092     0.40074
 =======================================================================
   * Total *    0.00000     24.99198    43.75689    0.25113    69.00000

 Normal termination of Gaussian 16 at Fri Dec 11 13:42:29 2020.
