 Gaussian 16, Revision A.03,

 -----------------------------------------------------------
 # opt freq B3LYP/6-31G(d) empiricaldispersion=gd3bj scf=xqc
 -----------------------------------------------------------

 -------------------------------
 CID_128753939_JID_8593_neutraal
 -------------------------------
 Symbolic Z-matrix:
 Charge =  0 Multiplicity = 1

 SCF Done:  E(RB3LYP) =  -853.687427430     A.U. after   14 cycles
 SCF Done:  E(RB3LYP) =  -853.696341606     A.U. after   13 cycles
 SCF Done:  E(RB3LYP) =  -853.693626794     A.U. after   13 cycles
 SCF Done:  E(RB3LYP) =  -853.698348472     A.U. after   12 cycles
 SCF Done:  E(RB3LYP) =  -853.699442090     A.U. after   12 cycles
 SCF Done:  E(RB3LYP) =  -853.699769445     A.U. after   11 cycles
 SCF Done:  E(RB3LYP) =  -853.699979108     A.U. after   11 cycles
 SCF Done:  E(RB3LYP) =  -853.700154533     A.U. after   11 cycles
 SCF Done:  E(RB3LYP) =  -853.700284825     A.U. after   11 cycles
 SCF Done:  E(RB3LYP) =  -853.700331436     A.U. after   10 cycles
 SCF Done:  E(RB3LYP) =  -853.700353166     A.U. after    8 cycles
 SCF Done:  E(RB3LYP) =  -853.700353542     A.U. after    8 cycles
 SCF Done:  E(RB3LYP) =  -853.700353628     A.U. after    7 cycles
 SCF Done:  E(RB3LYP) =  -853.700353665     A.U. after    7 cycles
 SCF Done:  E(RB3LYP) =  -853.700353676     A.U. after    7 cycles
 Optimization completed.
    -- Stationary point found.
 Normal termination of Gaussian 16 at Fri Dec 11 20:03:34 2020.

 --------------------------------------------------------------------
 #N Geom=AllCheck Guess=TCheck SCRF=Check GenChk RB3LYP/6-31G(d) Freq
 --------------------------------------------------------------------

 Structure from the checkpoint file:  "JID_8593.chk"
 -------------------------------
 CID_128753939_JID_8593_neutraal
 -------------------------------
 Charge =  0 Multiplicity = 1

 SCF Done:  E(RB3LYP) =  -853.700353676     A.U. after    1 cycles

  Exact polarizability: 210.810  -7.374 152.839  10.010   6.858 101.780
 Approx polarizability: 266.199 -16.210 248.827  21.882  12.228 157.928

                      1                      2                      3
                      A                      A                      A
 Frequencies --     26.5397                52.6780                56.2821
 Red. masses --      5.1963                 3.6912                 4.4066
 Frc consts  --      0.0022                 0.0060                 0.0082
 IR Inten    --      0.8952                 0.4332                 1.1177

                      4                      5                      6
                      A                      A                      A
 Frequencies --     79.6918                97.0248               112.6316
 Red. masses --      5.3757                 4.0837                 3.7434
 Frc consts  --      0.0201                 0.0227                 0.0280
 IR Inten    --      0.2974                 3.5750                 0.3810

                      7                      8                      9
                      A                      A                      A
 Frequencies --    122.1351               160.6133               170.4625
 Red. masses --      5.1336                 1.4688                 2.6282
 Frc consts  --      0.0451                 0.0223                 0.0450
 IR Inten    --      0.7124                 0.3295                 0.4897

                     10                     11                     12
                      A                      A                      A
 Frequencies --    214.0519               233.5957               242.9565
 Red. masses --      5.2101                 2.7766                 5.4902
 Frc consts  --      0.1406                 0.0893                 0.1909
 IR Inten    --      3.9001                 5.3980                 1.7086

                     13                     14                     15
                      A                      A                      A
 Frequencies --    258.2171               295.0912               319.1884
 Red. masses --      3.6638                 2.5280                 4.5880
 Frc consts  --      0.1439                 0.1297                 0.2754
 IR Inten    --     11.9502                 1.0802                 1.2086

                     16                     17                     18
                      A                      A                      A
 Frequencies --    389.8351               423.8967               439.3801
 Red. masses --      2.4250                 2.1909                 4.5365
 Frc consts  --      0.2171                 0.2319                 0.5160
 IR Inten    --      7.3605                 1.8612                 1.4673

                     19                     20                     21
                      A                      A                      A
 Frequencies --    476.8164               481.8618               505.6873
 Red. masses --      2.6608                 5.3642                 3.8726
 Frc consts  --      0.3564                 0.7338                 0.5835
 IR Inten    --      2.7604                 4.3135                23.8220

                     22                     23                     24
                      A                      A                      A
 Frequencies --    514.4991               570.7420               610.3263
 Red. masses --      2.1233                 3.8058                 1.7935
 Frc consts  --      0.3312                 0.7304                 0.3936
 IR Inten    --      3.3244                42.7818                27.6174

                     25                     26                     27
                      A                      A                      A
 Frequencies --    635.1632               684.5356               697.5569
 Red. masses --      4.5132                 2.5623                 9.3642
 Frc consts  --      1.0728                 0.7074                 2.6846
 IR Inten    --     23.4172                26.7576                 2.3076

                     28                     29                     30
                      A                      A                      A
 Frequencies --    728.1731               752.6912               777.9023
 Red. masses --      2.0614                 2.9488                 2.5961
 Frc consts  --      0.6440                 0.9843                 0.9256
 IR Inten    --     40.4514                56.4077                54.9996

                     31                     32                     33
                      A                      A                      A
 Frequencies --    780.0038               795.9061               840.4428
 Red. masses --      2.7085                 1.6565                 2.0529
 Frc consts  --      0.9709                 0.6183                 0.8543
 IR Inten    --      4.6567                83.4389                57.4835

                     34                     35                     36
                      A                      A                      A
 Frequencies --    844.8812               871.8722               879.7468
 Red. masses --      3.3317                 4.8002                 2.0697
 Frc consts  --      1.4012                 2.1499                 0.9438
 IR Inten    --      0.3865                 6.8061                 8.3979

                     37                     38                     39
                      A                      A                      A
 Frequencies --    896.8465               901.7185               933.9089
 Red. masses --      2.8341                 2.3829                 1.5081
 Frc consts  --      1.3431                 1.1416                 0.7750
 IR Inten    --      1.0669                 0.8371                 8.2800

                     40                     41                     42
                      A                      A                      A
 Frequencies --    964.0096               989.1738              1006.7963
 Red. masses --      2.3501                 1.4469                 5.7370
 Frc consts  --      1.2868                 0.8342                 3.4262
 IR Inten    --     30.1093                 0.8979                15.3671

                     43                     44                     45
                      A                      A                      A
 Frequencies --   1013.5713              1041.4360              1064.0035
 Red. masses --      2.6327                 2.6445                 1.7491
 Frc consts  --      1.5936                 1.6899                 1.1667
 IR Inten    --      0.8730                11.6046                 0.8086

                     46                     47                     48
                      A                      A                      A
 Frequencies --   1080.3210              1093.2088              1109.1112
 Red. masses --      2.6795                 1.7819                 2.0028
 Frc consts  --      1.8425                 1.2547                 1.4516
 IR Inten    --     67.3261                 3.1197                44.7802

                     49                     50                     51
                      A                      A                      A
 Frequencies --   1141.9816              1184.2693              1186.5019
 Red. masses --      2.3835                 1.2638                 2.0690
 Frc consts  --      1.8314                 1.0443                 1.7161
 IR Inten    --     19.7513                 0.6213                11.1389

                     52                     53                     54
                      A                      A                      A
 Frequencies --   1192.4783              1202.8008              1220.7559
 Red. masses --      1.4588                 1.5080                 1.5372
 Frc consts  --      1.2222                 1.2854                 1.3497
 IR Inten    --      3.5014                35.8132               124.4299

                     55                     56                     57
                      A                      A                      A
 Frequencies --   1221.8474              1293.6715              1320.1898
 Red. masses --      1.5062                 1.2656                 1.2983
 Frc consts  --      1.3249                 1.2479                 1.3332
 IR Inten    --    106.8315               127.2534                26.4661

                     58                     59                     60
                      A                      A                      A
 Frequencies --   1323.5771              1329.8007              1341.4385
 Red. masses --      5.8353                 1.4999                 6.1042
 Frc consts  --      6.0230                 1.5627                 6.4717
 IR Inten    --    230.0001                 5.0239                29.1130

                     61                     62                     63
                      A                      A                      A
 Frequencies --   1353.4301              1367.1462              1374.7072
 Red. masses --      1.4178                 1.3580                 1.7691
 Frc consts  --      1.5302                 1.4955                 1.9698
 IR Inten    --     30.9562                13.0039               214.9813

                     64                     65                     66
                      A                      A                      A
 Frequencies --   1385.7661              1402.6808              1411.8245
 Red. masses --      1.5127                 1.5373                 1.9933
 Frc consts  --      1.7116                 1.7820                 2.3409
 IR Inten    --      4.3489               118.5808               326.2439

                     67                     68                     69
                      A                      A                      A
 Frequencies --   1427.3767              1440.8423              1480.2819
 Red. masses --      2.4028                 1.5877                 1.3693
 Frc consts  --      2.8843                 1.9420                 1.7678
 IR Inten    --     87.0717                31.5387                46.3600

                     70                     71                     72
                      A                      A                      A
 Frequencies --   1491.9267              1503.2556              1510.7176
 Red. masses --      1.2955                 1.3624                 1.0488
 Frc consts  --      1.6990                 1.8140                 1.4103
 IR Inten    --      8.1330                43.6400                 5.5369

                     73                     74                     75
                      A                      A                      A
 Frequencies --   1513.1016              1521.1007              1523.8965
 Red. masses --      1.0985                 1.0989                 1.2726
 Frc consts  --      1.4817                 1.4981                 1.7412
 IR Inten    --      4.8990                 2.7008                24.1936

                     76                     77                     78
                      A                      A                      A
 Frequencies --   1524.8729              1527.5769              1537.6809
 Red. masses --      1.1356                 2.1145                 1.1056
 Frc consts  --      1.5557                 2.9071                 1.5401
 IR Inten    --      6.5596                58.6101                 2.9624

                     79                     80                     81
                      A                      A                      A
 Frequencies --   1545.4205              1621.2283              1654.0081
 Red. masses --      2.2440                 5.3721                 6.5938
 Frc consts  --      3.1577                 8.3193                10.6283
 IR Inten    --     58.7386               212.5300               738.8115

                     82                     83                     84
                      A                      A                      A
 Frequencies --   1808.3546              2928.0959              2940.8131
 Red. masses --      6.3199                 1.0737                 1.0722
 Frc consts  --     12.1767                 5.4236                 5.4632
 IR Inten    --    568.8329                64.0241                96.5635

                     85                     86                     87
                      A                      A                      A
 Frequencies --   3036.7699              3053.8984              3073.0158
 Red. masses --      1.0717                 1.0608                 1.0293
 Frc consts  --      5.8228                 5.8290                 5.7270
 IR Inten    --     27.7106                25.4590                47.0765

                     88                     89                     90
                      A                      A                      A
 Frequencies --   3087.1387              3092.5428              3094.5845
 Red. masses --      1.0881                 1.0902                 1.1038
 Frc consts  --      6.1100                 6.1433                 6.2278
 IR Inten    --     62.6221                21.6274                46.1846

                     91                     92                     93
                      A                      A                      A
 Frequencies --   3141.3437              3147.2008              3157.6085
 Red. masses --      1.0928                 1.1075                 1.0858
 Frc consts  --      6.3535                 6.4628                 6.3787
 IR Inten    --     15.2558                22.7664                16.6685

                     94                     95                     96
                      A                      A                      A
 Frequencies --   3176.9686              3181.6664              3226.0687
 Red. masses --      1.1070                 1.0909                 1.0927
 Frc consts  --      6.5831                 6.5062                 6.7004
 IR Inten    --     27.7431                23.9248                 2.1308

                     97                     98                     99
                      A                      A                      A
 Frequencies --   3518.5577              3555.3785              3592.8256
 Red. masses --      1.0751                 1.0742                 1.0753
 Frc consts  --      7.8423                 8.0005                 8.1779
 IR Inten    --      0.2528                69.3951                34.9388

 - Thermochemistry -
 -------------------
 Temperature   298.150 Kelvin.  Pressure   1.00000 Atm.
 Atom     1 has atomic number  6 and mass  12.00000

 Molecular mass:   251.13822 amu.
 Principal axes and moments of inertia in atomic units:
                           1         2         3
     Eigenvalues --  1972.765908922.93821**********
           X            0.99997   0.00715  -0.00127
           Y           -0.00712   0.99977   0.02044
           Z            0.00142  -0.02043   0.99979
 This molecule is an asymmetric top.
 Rotational symmetry number  1.
 Warning -- assumption of classical behavior for rotation
           may cause significant error
 Rotational temperatures (Kelvin)      0.04390     0.00971     0.00853
 Rotational constants (GHZ):           0.91483     0.20226     0.17772
 Zero-point vibrational energy     778339.3 (Joules/Mol)
                                  186.02756 (Kcal/Mol)
 Warning -- explicit consideration of  24 degrees of freedom as
           vibrations may cause significant error
 Vibrational temperatures:     38.18    75.79    80.98   114.66   139.60
          (Kelvin)            162.05   175.73   231.09   245.26   307.97
                              336.09   349.56   371.52   424.57   459.24
                              560.89   609.89   632.17   686.03   693.29
                              727.57   740.25   821.17   878.12   913.86
                              984.89  1003.63  1047.68  1082.95  1119.23
                             1122.25  1145.13  1209.21  1215.60  1254.43
                             1265.76  1290.36  1297.37  1343.69  1386.99
                             1423.20  1448.56  1458.30  1498.39  1530.86
                             1554.34  1572.88  1595.76  1643.06  1703.90
                             1707.11  1715.71  1730.56  1756.40  1757.97
                             1861.30  1899.46  1904.33  1913.29  1930.03
                             1947.28  1967.02  1977.90  1993.81  2018.14
                             2031.30  2053.68  2073.05  2129.80  2146.55
                             2162.85  2173.59  2177.02  2188.52  2192.55
                             2193.95  2197.84  2212.38  2223.52  2332.59
                             2379.75  2601.82  4212.88  4231.17  4369.23
                             4393.88  4421.38  4441.70  4449.48  4452.42
                             4519.69  4528.12  4543.09  4570.95  4577.71
                             4641.59  5062.42  5115.40  5169.27

 Zero-point correction=                           0.296454 (Hartree/Particle)
 Thermal correction to Energy=                    0.312747
 Thermal correction to Enthalpy=                  0.313691
 Thermal correction to Gibbs Free Energy=         0.251368
 Sum of electronic and zero-point Energies=           -853.403900
 Sum of electronic and thermal Energies=              -853.387607
 Sum of electronic and thermal Enthalpies=            -853.386662
 Sum of electronic and thermal Free Energies=         -853.448986

                     E (Thermal)             CV                S
                      KCal/Mol        Cal/Mol-Kelvin    Cal/Mol-Kelvin
 Total                  196.252             62.193            131.171
 Electronic               0.000              0.000              0.000
 Translational            0.889              2.981             42.463
 Rotational               0.889              2.981             33.546
 Vibrational            194.474             56.231             55.162
 Vibration     1          0.593              1.984              6.073
 Vibration     2          0.596              1.977              4.714
 Vibration     3          0.596              1.975              4.583
 Vibration     4          0.600              1.963              3.898
 Vibration     5          0.603              1.951              3.513
 Vibration     6          0.607              1.939              3.223
 Vibration     7          0.610              1.931              3.066
 Vibration     8          0.622              1.891              2.543
 Vibration     9          0.626              1.879              2.430
 Vibration    10          0.644              1.820              2.009
 Vibration    11          0.654              1.789              1.851
 Vibration    12          0.659              1.774              1.781
 Vibration    13          0.667              1.749              1.674
 Vibration    14          0.689              1.683              1.445
 Vibration    15          0.705              1.637              1.314
 Vibration    16          0.758              1.492              1.001
 Vibration    17          0.786              1.418              0.879
 Vibration    18          0.799              1.384              0.829
 Vibration    19          0.833              1.301              0.719
 Vibration    20          0.838              1.290              0.705
 Vibration    21          0.861              1.237              0.644
 Vibration    22          0.870              1.218              0.623
 Vibration    23          0.927              1.095              0.503
 Vibration    24          0.969              1.010              0.432

 Optimization completed.
    -- Stationary point found.
 Normal termination of Gaussian 16 at Fri Dec 11 20:18:06 2020.

 ----------------------------------------------------------------------
 # B3LYP/6-311++G(d,p) empiricaldispersion=gd3bj scf=xqc pop=npa geom=c
 heck
 ----------------------------------------------------------------------

 ---------------------------------------
 CID_128753939_JID_8593_Energie_neutraal
 ---------------------------------------
 Structure from the checkpoint file:  "JID_8593.chk"
 Charge =  0 Multiplicity = 1

 SCF Done:  E(RB3LYP) =  -853.945513066     A.U. after   15 cycles
 Normal termination of Gaussian 16 at Fri Dec 11 20:24:40 2020.

 ----------------------------------------------------------------------
 # B3LYP/6-311++G(d,p) empiricaldispersion=gd3bj scf=xqc pop=npa geom=c
 heck
 ----------------------------------------------------------------------

 -------------------------------------
 CID_128753939_JID_8593_Energie_kation
 -------------------------------------
 Structure from the checkpoint file:  "JID_8593.chk"
 Charge =  1 Multiplicity = 2

 SCF Done:  E(UB3LYP) =  -853.643695856     A.U. after   29 cycles
 Normal termination of Gaussian 16 at Fri Dec 11 20:42:07 2020.
 Gaussian 16:  ES64L-G16RevA.03 25-Dec-2016

 ----------------------------------------------------------------------
 # B3LYP/6-311++G(d,p) empiricaldispersion=gd3bj scf=xqc pop=npa geom=c
 heck
 ----------------------------------------------------------------------

 ------------------------------------
 CID_128753939_JID_8593_Energie_anion
 ------------------------------------
 Structure from the checkpoint file:  "JID_8593.chk"
 Charge = -1 Multiplicity = 2

                         Standard orientation:
 ---------------------------------------------------------------------
 Center     Atomic      Atomic             Coordinates (Angstroms)
 Number     Number       Type             X           Y           Z
 ---------------------------------------------------------------------
      1          6           0        5.714502   -0.967934    0.307828
      2          8           0        4.800551    0.117287    0.513448
      3          6           0        3.522276   -0.083356    0.155949
      4          7           0        3.160103   -1.264001   -0.361342
      5          6           0        1.869230   -1.367663   -0.684578
      6          7           0        0.916160   -0.449393   -0.556924
      7          6           0        1.301030    0.730703   -0.034225
      8          6           0        2.626218    0.967715    0.347839
      9          7           0        0.362215    1.735745    0.138477
     10          6           0       -0.920962    1.911174   -0.457837
     11          8           0       -1.198963    3.018554   -0.900078
     12          7           0       -1.781495    0.858649   -0.470915
     13          6           0       -1.867552   -0.225536    0.512108
     14          6           0       -2.074129   -1.582560   -0.179648
     15          6           0       -3.443782   -1.661794   -0.869276
     16          6           0       -4.567548   -1.260274    0.090836
     17          7           0       -4.277769    0.066352    0.643898
     18          6           0       -3.054856    0.057434    1.447760
     19          1           0        6.678420   -0.596192    0.657308
     20          1           0        5.767310   -1.237914   -0.750185
     21          1           0        5.410870   -1.847617    0.881532
     22          1           0        1.557496   -2.321456   -1.106511
     23          1           0        2.956430    1.908863    0.771989
     24          1           0        0.771238    2.653863    0.265777
     25          1           0       -2.694042    1.146709   -0.811629
     26          1           0       -0.941986   -0.242834    1.085725
     27          1           0       -1.261260   -1.738133   -0.891539
     28          1           0       -2.006321   -2.367738    0.586564
     29          1           0       -3.460232   -0.989352   -1.735716
     30          1           0       -3.620275   -2.675842   -1.246709
     31          1           0       -5.526660   -1.215772   -0.436428
     32          1           0       -4.658877   -2.028555    0.884056
     33          1           0       -5.061621    0.398935    1.198838
     34          1           0       -3.070756   -0.709906    2.245652
     35          1           0       -2.933499    1.037304    1.921430
 ---------------------------------------------------------------------

 SCF Done:  E(UB3LYP) =  -853.937214436     A.U. after   33 cycles
 SCF Done:  E(UB3LYP) =  -853.937214436     a.u. after    1 cycles

 The electronic state is 2-A.
 Alpha  occ. eigenvalues --  -19.07240 -18.99140 -14.25154 -14.23041 -14.20478
 Alpha  occ. eigenvalues --  -14.20169 -14.19936 -10.20586 -10.17288 -10.15729
 Alpha  occ. eigenvalues --  -10.13762 -10.12287 -10.10930 -10.09595 -10.09416
 Alpha  occ. eigenvalues --  -10.07224 -10.06865 -10.06258  -0.99604  -0.95888
 Alpha  occ. eigenvalues --   -0.88594  -0.84320  -0.83314  -0.80345  -0.76864
 Alpha  occ. eigenvalues --   -0.69109  -0.68443  -0.65455  -0.62977  -0.56470
 Alpha  occ. eigenvalues --   -0.55425  -0.54221  -0.53385  -0.50704  -0.47281
 Alpha  occ. eigenvalues --   -0.46393  -0.44111  -0.41663  -0.39949  -0.39129
 Alpha  occ. eigenvalues --   -0.38979  -0.37440  -0.37073  -0.35639  -0.35273
 Alpha  occ. eigenvalues --   -0.34558  -0.33695  -0.33532  -0.32868  -0.31924
 Alpha  occ. eigenvalues --   -0.31078  -0.30606  -0.29248  -0.28433  -0.26927
 Alpha  occ. eigenvalues --   -0.26623  -0.24434  -0.23622  -0.22577  -0.21966
 Alpha  occ. eigenvalues --   -0.19924  -0.18785  -0.16854  -0.16319  -0.15447
 Alpha  occ. eigenvalues --   -0.14368  -0.13789   0.04180
 Alpha virt. eigenvalues --    0.05583   0.05894   0.07362   0.07740   0.08027
 Alpha virt. eigenvalues --    0.08181   0.08685   0.09555   0.09949   0.10124
 Alpha virt. eigenvalues --    0.10498   0.11237   0.11464   0.12033   0.12217

  Beta  occ. eigenvalues --  -19.07241 -18.99136 -14.25158 -14.23039 -14.20455
  Beta  occ. eigenvalues --  -14.20120 -14.19943 -10.20583 -10.17269 -10.15645
  Beta  occ. eigenvalues --  -10.13749 -10.12043 -10.10931 -10.09572 -10.09389
  Beta  occ. eigenvalues --  -10.07117 -10.06858 -10.06248  -0.99584  -0.95877
  Beta  occ. eigenvalues --   -0.88431  -0.84271  -0.83245  -0.80314  -0.76762
  Beta  occ. eigenvalues --   -0.68943  -0.68406  -0.65423  -0.62909  -0.56130
  Beta  occ. eigenvalues --   -0.55352  -0.54167  -0.53350  -0.50657  -0.47226
  Beta  occ. eigenvalues --   -0.46330  -0.44049  -0.41582  -0.39908  -0.39070
  Beta  occ. eigenvalues --   -0.38904  -0.37403  -0.36937  -0.35586  -0.35225
  Beta  occ. eigenvalues --   -0.34499  -0.33592  -0.33392  -0.32724  -0.31848
  Beta  occ. eigenvalues --   -0.31039  -0.30484  -0.29201  -0.28404  -0.26888
  Beta  occ. eigenvalues --   -0.26460  -0.24371  -0.23221  -0.22535  -0.21910
  Beta  occ. eigenvalues --   -0.19853  -0.18720  -0.16680  -0.16193  -0.15418
  Beta  occ. eigenvalues --   -0.13928  -0.13701
  Beta virt. eigenvalues --    0.05882   0.06620   0.07618   0.07686   0.08220
  Beta virt. eigenvalues --    0.08329   0.08457   0.08920   0.09821   0.10019
  Beta virt. eigenvalues --    0.10298   0.10718   0.11411   0.11684   0.12155

 Mulliken charges and spin densities:
               1          2
     1  C    0.041836  -0.353025
     2  O   -0.175140   0.019265
     3  C   -0.141381  -0.537326
     4  N   -0.129052   0.029116
     5  C   -0.252782   0.318574
     6  N   -0.151084  -0.001270
     7  C    0.277785  -0.837377
     8  C   -0.490395   1.285083
     9  N   -0.155464   0.025918
    10  C    0.441631  -0.195777
    11  O   -0.344509   0.000789
    12  N   -0.097211  -0.025262
    13  C   -0.921803   1.219092
    14  C   -0.027147  -0.507653
    15  C   -0.759249   0.422485
    16  C    0.881467  -1.242999
    17  N   -0.431720   0.242124
    18  C    1.375638  -2.092555
    19  H   -0.007056   0.149062
    20  H    0.067431   0.107653
    21  H    0.078255   0.100012
    22  H    0.053560   0.122237
    23  H    0.005286   0.174212
    24  H    0.312056  -0.003201
    25  H    0.391384  -0.049541
    26  H    0.060564   0.209339
    27  H    0.232316  -0.043133
    28  H   -0.079345   0.214206
    29  H    0.143466  -0.008554
    30  H   -0.118024   0.281738
    31  H   -0.392253   0.560851
    32  H   -0.205300   0.328678
    33  H   -0.091052   0.356992
    34  H   -0.252197   0.395980
    35  H   -0.140513   0.334266
 Sum of Mulliken charges =  -1.00000   1.00000

 Dipole moment (field-independent basis, Debye):
    X=              5.8942    Y=              0.4160    Z=             -1.5637  Tot=              6.1123
 Quadrupole moment (field-independent basis, Debye-Ang):
   XX=           -200.2238   YY=           -147.3945   ZZ=           -135.7399
   XY=             -0.9225   XZ=              6.7345   YZ=              5.6909

 Summary of Natural Population Analysis:

                                       Natural Population
                Natural  -----------------------------------------------
    Atom  No    Charge         Core      Valence    Rydberg      Total
 -----------------------------------------------------------------------
      C    1   -0.10088      0.99959     2.09317    0.00812     3.10088
      O    2   -0.27296      0.99985     3.26414    0.00897     4.27296
      C    3    0.28447      0.99947     1.69896    0.01710     2.71553
      N    4   -0.28978      0.99967     2.78042    0.00970     3.78978
      C    5    0.19685      0.99967     1.78497    0.01851     2.80315
      N    6   -0.28491      0.99967     2.77520    0.01003     3.78491
      C    7    0.22434      0.99953     1.76181    0.01433     2.77566
      C    8   -0.16557      0.99947     2.15751    0.00858     3.16557
      N    9   -0.32342      0.99964     2.81479    0.00899     3.82342
      C   10    0.41503      0.99969     1.56301    0.02227     2.58497
      O   11   -0.33393      0.99988     3.32911    0.00495     4.33393
      N   12   -0.32016      0.99964     2.81097    0.00954     3.82016
      C   13   -0.01581      0.99957     2.00250    0.01374     3.01581
      C   14   -0.19394      0.99960     2.18522    0.00912     3.19394
      C   15   -0.19618      0.99963     2.18796    0.00860     3.19618
      C   16   -0.08716      0.99962     2.07566    0.01188     3.08716
      N   17   -0.35048      0.99974     2.83795    0.01279     3.85048
      C   18   -0.09016      0.99960     2.07882    0.01174     3.09016
      H   19    0.08691      0.00000     0.41202    0.00107     0.41309
      H   20    0.09027      0.00000     0.40821    0.00152     0.40973
      H   21    0.09069      0.00000     0.40765    0.00166     0.40931
      H   22    0.07740      0.00000     0.42142    0.00118     0.42260
      H   23    0.10618      0.00000     0.39264    0.00118     0.39382
      H   24    0.19699      0.00000     0.30093    0.00207     0.30301
      H   25    0.20183      0.00000     0.29553    0.00263     0.29817
      H   26    0.11089      0.00000     0.38700    0.00211     0.38911
      H   27    0.11376      0.00000     0.38486    0.00138     0.38624
      H   28    0.09641      0.00000     0.40229    0.00130     0.40359
      H   29    0.09502      0.00000     0.40362    0.00136     0.40498
      H   30    0.09964      0.00000     0.39950    0.00086     0.40036
      H   31    0.09570      0.00000     0.40302    0.00128     0.40430
      H   32    0.07878      0.00000     0.41903    0.00219     0.42122
      H   33    0.18092      0.00000     0.31566    0.00342     0.31908
      H   34    0.08476      0.00000     0.41345    0.00180     0.41524
      H   35    0.09852      0.00000     0.40029    0.00119     0.40148
 =======================================================================
   * Total *    0.00000     17.99353    48.76929    0.23718    67.00000

 Normal termination of Gaussian 16 at Fri Dec 11 21:03:09 2020.
