 Gaussian 16, Revision A.03,

 -----------------------------------------------------------
 # opt freq B3LYP/6-31G(d) empiricaldispersion=gd3bj scf=xqc
 -----------------------------------------------------------

 ------------------------------
 CID_53977947_JID_8960_neutraal
 ------------------------------
 Symbolic Z-matrix:
 Charge =  0 Multiplicity = 1

 SCF Done:  E(RB3LYP) =  -747.515878713     A.U. after   14 cycles
 SCF Done:  E(RB3LYP) =  -747.522894528     A.U. after   12 cycles
 SCF Done:  E(RB3LYP) =  -747.523640743     A.U. after   12 cycles
 SCF Done:  E(RB3LYP) =  -747.523959541     A.U. after   11 cycles
 SCF Done:  E(RB3LYP) =  -747.524112576     A.U. after   11 cycles
 SCF Done:  E(RB3LYP) =  -747.524254505     A.U. after   11 cycles
 SCF Done:  E(RB3LYP) =  -747.524497307     A.U. after   12 cycles
 SCF Done:  E(RB3LYP) =  -747.524365417     A.U. after   13 cycles
 SCF Done:  E(RB3LYP) =  -747.524635760     A.U. after   12 cycles
 SCF Done:  E(RB3LYP) =  -747.524537261     A.U. after   12 cycles
 SCF Done:  E(RB3LYP) =  -747.524713542     A.U. after   11 cycles
 SCF Done:  E(RB3LYP) =  -747.524693406     A.U. after   11 cycles
 SCF Done:  E(RB3LYP) =  -747.524715635     A.U. after   11 cycles
 SCF Done:  E(RB3LYP) =  -747.524715969     A.U. after    8 cycles
 SCF Done:  E(RB3LYP) =  -747.524715900     A.U. after    8 cycles
 SCF Done:  E(RB3LYP) =  -747.524716060     A.U. after    8 cycles
 Optimization completed.
    -- Stationary point found.
 Normal termination of Gaussian 16 at Fri Dec 11 23:16:33 2020.

 --------------------------------------------------------------------
 #N Geom=AllCheck Guess=TCheck SCRF=Check GenChk RB3LYP/6-31G(d) Freq
 --------------------------------------------------------------------

 Structure from the checkpoint file:  "JID_8960.chk"
 ------------------------------
 CID_53977947_JID_8960_neutraal
 ------------------------------
 Charge =  0 Multiplicity = 1

 SCF Done:  E(RB3LYP) =  -747.524716060     A.U. after    1 cycles

  Exact polarizability: 214.041 -18.846 206.915   2.163   5.501  97.172
 Approx polarizability: 332.101 -35.316 359.557   8.046  14.854 169.134

                      1                      2                      3
                      A                      A                      A
 Frequencies --     50.7107                68.3579                90.7383
 Red. masses --      4.1601                 4.9141                 3.8766
 Frc consts  --      0.0063                 0.0135                 0.0188
 IR Inten    --      0.0393                 0.6423                 1.3310

                      4                      5                      6
                      A                      A                      A
 Frequencies --    130.6701               159.6722               182.2078
 Red. masses --      3.4157                 5.8176                 3.8380
 Frc consts  --      0.0344                 0.0874                 0.0751
 IR Inten    --      1.7549                 0.4131                 1.4483

                      7                      8                      9
                      A                      A                      A
 Frequencies --    254.3569               272.2175               301.6502
 Red. masses --      3.3055                 4.0555                 6.1734
 Frc consts  --      0.1260                 0.1771                 0.3310
 IR Inten    --      0.2385                 0.8817                 2.3299

                     10                     11                     12
                      A                      A                      A
 Frequencies --    348.8385               356.2883               367.6417
 Red. masses --      2.3555                 2.8825                 2.2395
 Frc consts  --      0.1689                 0.2156                 0.1783
 IR Inten    --     32.0797                24.5460                29.5420

                     13                     14                     15
                      A                      A                      A
 Frequencies --    415.2031               443.9669               453.0043
 Red. masses --      2.1652                 2.9952                 5.2409
 Frc consts  --      0.2199                 0.3478                 0.6337
 IR Inten    --      6.4824                10.9022                 0.8713

                     16                     17                     18
                      A                      A                      A
 Frequencies --    482.7329               519.9691               531.8768
 Red. masses --      3.2825                 4.4463                 4.7306
 Frc consts  --      0.4507                 0.7083                 0.7885
 IR Inten    --      2.9948                 3.9190                 1.6747

                     19                     20                     21
                      A                      A                      A
 Frequencies --    568.6213               586.4805               616.4987
 Red. masses --      6.2779                 3.7785                 4.6851
 Frc consts  --      1.1959                 0.7657                 1.0491
 IR Inten    --      2.6386                 6.4208                 3.3259

                     22                     23                     24
                      A                      A                      A
 Frequencies --    631.2883               652.7152               666.8588
 Red. masses --      5.9987                 3.3082                 2.8351
 Frc consts  --      1.4085                 0.8304                 0.7428
 IR Inten    --      4.6855                 8.1636                24.6583

                     25                     26                     27
                      A                      A                      A
 Frequencies --    686.3822               738.2215               743.3884
 Red. masses --      3.6697                 1.4512                 2.0012
 Frc consts  --      1.0186                 0.4660                 0.6516
 IR Inten    --      7.0209                34.1814                 4.8515

                     28                     29                     30
                      A                      A                      A
 Frequencies --    757.7109               773.1503               778.9017
 Red. masses --      1.7627                 1.5289                 4.0008
 Frc consts  --      0.5963                 0.5384                 1.4301
 IR Inten    --     34.7458                 8.9230                 2.6403

                     31                     32                     33
                      A                      A                      A
 Frequencies --    804.9786               859.1458               865.0158
 Red. masses --      3.1995                 1.5017                 2.5662
 Frc consts  --      1.2215                 0.6531                 1.1313
 IR Inten    --     18.0965                 0.9984                10.9005

                     34                     35                     36
                      A                      A                      A
 Frequencies --    872.0523               892.9107               914.2082
 Red. masses --      4.0204                 5.2634                 1.2971
 Frc consts  --      1.8014                 2.4725                 0.6387
 IR Inten    --      9.4982                 5.8508                 0.0690

                     37                     38                     39
                      A                      A                      A
 Frequencies --    925.2269               956.6496               970.1153
 Red. masses --      1.3292                 1.4320                 1.7398
 Frc consts  --      0.6704                 0.7722                 0.9647
 IR Inten    --      0.5971                 1.8430                 4.8069

                     40                     41                     42
                      A                      A                      A
 Frequencies --    970.2793               974.9293              1000.0925
 Red. masses --      1.2841                 1.4422                 3.4147
 Frc consts  --      0.7123                 0.8076                 2.0123
 IR Inten    --      0.7300                 6.2671                 6.9952

                     43                     44                     45
                      A                      A                      A
 Frequencies --   1006.6263              1011.7944              1049.3760
 Red. masses --      4.6472                 3.3798                 2.1505
 Frc consts  --      2.7744                 2.0386                 1.3952
 IR Inten    --     20.1463                 9.3231                11.7260

                     46                     47                     48
                      A                      A                      A
 Frequencies --   1082.7688              1108.9283              1134.6453
 Red. masses --      2.7337                 1.8004                 2.7945
 Frc consts  --      1.8883                 1.3044                 2.1197
 IR Inten    --     12.3402                66.5452                17.9588

                     49                     50                     51
                      A                      A                      A
 Frequencies --   1147.4609              1181.4997              1195.9043
 Red. masses --      1.7716                 1.4224                 1.2363
 Frc consts  --      1.3744                 1.1698                 1.0418
 IR Inten    --      0.7150                10.4183                12.4082

                     52                     53                     54
                      A                      A                      A
 Frequencies --   1203.9576              1213.4441              1241.1346
 Red. masses --      1.2140                 1.5599                 1.5308
 Frc consts  --      1.0368                 1.3532                 1.3893
 IR Inten    --      7.4454                 8.9286                 2.9583

                     55                     56                     57
                      A                      A                      A
 Frequencies --   1269.2059              1286.3888              1297.0507
 Red. masses --      1.4706                 2.0395                 1.7155
 Frc consts  --      1.3958                 1.9885                 1.7004
 IR Inten    --      8.6907                28.3018                58.9729

                     58                     59                     60
                      A                      A                      A
 Frequencies --   1330.1338              1359.8063              1388.7454
 Red. masses --      3.1233                 1.7791                 2.3633
 Frc consts  --      3.2557                 1.9383                 2.6854
 IR Inten    --      8.2576                25.3434                20.4618

                     61                     62                     63
                      A                      A                      A
 Frequencies --   1395.7568              1401.1402              1439.4564
 Red. masses --      3.0685                 1.4406                 2.0772
 Frc consts  --      3.5221                 1.6663                 2.5359
 IR Inten    --     11.5867                 6.3047                 2.1524

                     64                     65                     66
                      A                      A                      A
 Frequencies --   1466.5516              1488.1600              1493.3565
 Red. masses --      1.8191                 2.7168                 1.1168
 Frc consts  --      2.3052                 3.5449                 1.4674
 IR Inten    --      7.4775                22.6557                 7.3340

                     67                     68                     69
                      A                      A                      A
 Frequencies --   1503.0958              1544.4033              1597.7293
 Red. masses --      3.6865                 3.2001                 6.4165
 Frc consts  --      4.9073                 4.4972                 9.6506
 IR Inten    --     23.6215                 0.9857                10.0550

                     70                     71                     72
                      A                      A                      A
 Frequencies --   1629.1798              1652.4275              1674.3324
 Red. masses --      5.5228                 7.4461                 6.4943
 Frc consts  --      8.6367                11.9791                10.7267
 IR Inten    --      4.6238                37.2965                 0.5018

                     73                     74                     75
                      A                      A                      A
 Frequencies --   1693.4320              1724.7594              3016.5012
 Red. masses --      6.0893                 5.6847                 1.0694
 Frc consts  --     10.2885                 9.9636                 5.7333
 IR Inten    --     16.1781                36.9329                13.6469

                     76                     77                     78
                      A                      A                      A
 Frequencies --   3096.3299              3181.4810              3182.1593
 Red. masses --      1.0924                 1.0855                 1.0859
 Frc consts  --      6.1708                 6.4737                 6.4785
 IR Inten    --     21.2131                 0.5254                 7.2186

                     79                     80                     81
                      A                      A                      A
 Frequencies --   3183.5553              3190.5726              3203.9227
 Red. masses --      1.0852                 1.0900                 1.0972
 Frc consts  --      6.4800                 6.5375                 6.6356
 IR Inten    --     10.5223                22.7835                29.6282

                     82                     83                     84
                      A                      A                      A
 Frequencies --   3204.6969              3205.9769              3211.0413
 Red. masses --      1.0961                 1.0950                 1.0892
 Frc consts  --      6.6322                 6.6309                 6.6166
 IR Inten    --     17.9501                30.4922                 9.3776

                     85                     86                     87
                      A                      A                      A
 Frequencies --   3222.0375              3238.6672              3662.3799
 Red. masses --      1.0934                 1.0982                 1.0796
 Frc consts  --      6.6881                 6.7869                 8.5319
 IR Inten    --     11.5491                16.6397                55.7000

 - Thermochemistry -
 -------------------
 Temperature   298.150 Kelvin.  Pressure   1.00000 Atm.
 Atom     1 has atomic number  6 and mass  12.00000

 Molecular mass:   235.09971 amu.
 Principal axes and moments of inertia in atomic units:
                           1         2         3
     Eigenvalues --  2790.281844116.427146175.83145
           X            0.99984  -0.01774  -0.00132
           Y            0.01774   0.99984   0.00041
           Z            0.00132  -0.00043   1.00000
 This molecule is an asymmetric top.
 Rotational symmetry number  1.
 Warning -- assumption of classical behavior for rotation
           may cause significant error
 Rotational temperatures (Kelvin)      0.03104     0.02104     0.01402
 Rotational constants (GHZ):           0.64680     0.43842     0.29223
 Zero-point vibrational energy     655840.1 (Joules/Mol)
                                  156.74954 (Kcal/Mol)
 Warning -- explicit consideration of  21 degrees of freedom as
           vibrations may cause significant error
 Vibrational temperatures:     72.96    98.35   130.55   188.01   229.73
          (Kelvin)            262.16   365.96   391.66   434.01   501.90
                              512.62   528.95   597.38   638.77   651.77
                              694.54   748.12   765.25   818.12   843.81
                              887.00   908.28   939.11   959.46   987.55
                             1062.14  1069.57  1090.18  1112.39  1120.67
                             1158.18  1236.12  1244.56  1254.69  1284.70
                             1315.34  1331.20  1376.41  1395.78  1396.02
                             1402.71  1438.91  1448.31  1455.75  1509.82
                             1557.86  1595.50  1632.50  1650.94  1699.91
                             1720.64  1732.23  1745.88  1785.72  1826.10
                             1850.83  1866.17  1913.77  1956.46  1998.09
                             2008.18  2015.93  2071.06  2110.04  2141.13
                             2148.61  2162.62  2222.05  2298.78  2344.03
                             2377.47  2408.99  2436.47  2481.54  4340.07
                             4454.93  4577.44  4578.42  4580.43  4590.52
                             4609.73  4610.84  4612.69  4619.97  4635.79
                             4659.72  5269.35

 Zero-point correction=                           0.249796 (Hartree/Particle)
 Thermal correction to Energy=                    0.263289
 Thermal correction to Enthalpy=                  0.264233
 Thermal correction to Gibbs Free Energy=         0.209843
 Sum of electronic and zero-point Energies=           -747.274920
 Sum of electronic and thermal Energies=              -747.261427
 Sum of electronic and thermal Enthalpies=            -747.260483
 Sum of electronic and thermal Free Energies=         -747.314873

                     E (Thermal)             CV                S
                      KCal/Mol        Cal/Mol-Kelvin    Cal/Mol-Kelvin
 Total                  165.216             56.292            114.474
 Electronic               0.000              0.000              0.000
 Translational            0.889              2.981             42.266
 Rotational               0.889              2.981             32.628
 Vibrational            163.439             50.331             39.580
 Vibration     1          0.595              1.977              4.789
 Vibration     2          0.598              1.969              4.200
 Vibration     3          0.602              1.956              3.644
 Vibration     4          0.612              1.923              2.936
 Vibration     5          0.622              1.892              2.554
 Vibration     6          0.630              1.864              2.306
 Vibration     7          0.665              1.755              1.700
 Vibration     8          0.675              1.725              1.582
 Vibration     9          0.694              1.671              1.408
 Vibration    10          0.726              1.578              1.171
 Vibration    11          0.732              1.562              1.138
 Vibration    12          0.740              1.539              1.090
 Vibration    13          0.779              1.437              0.908
 Vibration    14          0.803              1.374              0.814
 Vibration    15          0.812              1.354              0.787
 Vibration    16          0.839              1.288              0.703
 Vibration    17          0.875              1.206              0.610
 Vibration    18          0.887              1.179              0.583
 Vibration    19          0.925              1.099              0.507
 Vibration    20          0.944              1.061              0.473
 Vibration    21          0.976              0.997              0.422

                           ! Non-Optimized Parameters !
 Normal termination of Gaussian 16 at Fri Dec 11 23:29:40 2020.

 ----------------------------------------------------------------------
 # B3LYP/6-311++G(d,p) empiricaldispersion=gd3bj scf=xqc pop=npa geom=c
 heck
 ----------------------------------------------------------------------

 --------------------------------------
 CID_53977947_JID_8960_Energie_neutraal
 --------------------------------------
 Structure from the checkpoint file:  "JID_8960.chk"
 Charge =  0 Multiplicity = 1

 SCF Done:  E(RB3LYP) =  -747.718456001     A.U. after   16 cycles
 Normal termination of Gaussian 16 at Fri Dec 11 23:35:49 2020.

 ----------------------------------------------------------------------
 # B3LYP/6-311++G(d,p) empiricaldispersion=gd3bj scf=xqc pop=npa geom=c
 heck
 ----------------------------------------------------------------------

 ------------------------------------
 CID_53977947_JID_8960_Energie_kation
 ------------------------------------
 Structure from the checkpoint file:  "JID_8960.chk"
 Charge =  1 Multiplicity = 2

 SCF Done:  E(UB3LYP) =  -747.463039204     A.U. after   27 cycles
 Normal termination of Gaussian 16 at Fri Dec 11 23:50:08 2020.
 Gaussian 16:  ES64L-G16RevA.03 25-Dec-2016

 ----------------------------------------------------------------------
 # B3LYP/6-311++G(d,p) empiricaldispersion=gd3bj scf=xqc pop=npa geom=c
 heck
 ----------------------------------------------------------------------

 -----------------------------------
 CID_53977947_JID_8960_Energie_anion
 -----------------------------------
 Structure from the checkpoint file:  "JID_8960.chk"
 Charge = -1 Multiplicity = 2

                         Standard orientation:
 ---------------------------------------------------------------------
 Center     Atomic      Atomic             Coordinates (Angstroms)
 Number     Number       Type             X           Y           Z
 ---------------------------------------------------------------------
      1          6           0       -2.428050    1.252501   -0.636814
      2          6           0       -2.053399    2.619600   -0.118669
      3          6           0       -0.777040    2.929480    0.170178
      4          6           0        0.218981    1.887308    0.054710
      5          6           0       -0.077624    0.552353   -0.150343
      6          6           0       -1.514560    0.091476   -0.169216
      7          6           0       -1.899100   -0.410131    1.206622
      8          6           0       -2.069963   -1.713301    1.470506
      9          6           0       -1.974647   -2.691849    0.399044
     10          6           0       -1.814402   -2.241626   -0.856554
     11          8           0       -1.698606   -0.937030   -1.198133
     12          6           0        1.160894   -0.172067   -0.115494
     13          6           0        1.521179   -1.526707   -0.227456
     14          6           0        2.864016   -1.873510   -0.160619
     15          6           0        3.866571   -0.898417    0.014262
     16          6           0        3.544373    0.448575    0.136324
     17          6           0        2.193455    0.796204    0.077540
     18          7           0        1.587357    2.034326    0.193916
     19          1           0       -3.464191    1.003581   -0.385808
     20          1           0       -2.366790    1.268213   -1.736174
     21          1           0       -2.832989    3.373529   -0.057448
     22          1           0       -0.486997    3.927022    0.490001
     23          1           0       -1.976707    0.354942    1.973664
     24          1           0       -2.303164   -2.047728    2.477894
     25          1           0       -2.070551   -3.754039    0.588005
     26          1           0       -1.787170   -2.873829   -1.738627
     27          1           0        0.757996   -2.287523   -0.349056
     28          1           0        3.150962   -2.917978   -0.244146
     29          1           0        4.908132   -1.203389    0.058462
     30          1           0        4.314637    1.201847    0.278496
     31          1           0        2.070076    2.911960    0.308254
 ---------------------------------------------------------------------

 SCF Done:  E(UB3LYP) =  -747.719673256     A.U. after   31 cycles

 The electronic state is 2-A.
 Alpha  occ. eigenvalues --  -19.01448 -14.21465 -10.10710 -10.08922 -10.07100
 Alpha  occ. eigenvalues --  -10.05390 -10.03727 -10.03584 -10.03547 -10.03408
 Alpha  occ. eigenvalues --  -10.03373 -10.03114 -10.03022 -10.02880 -10.02396
 Alpha  occ. eigenvalues --  -10.02383 -10.01619 -10.01137  -0.92803  -0.84265
 Alpha  occ. eigenvalues --   -0.70626  -0.70141  -0.67138  -0.63949  -0.63274
 Alpha  occ. eigenvalues --   -0.60036  -0.58248  -0.55813  -0.50999  -0.49609
 Alpha  occ. eigenvalues --   -0.47731  -0.46296  -0.44617  -0.41528  -0.38927
 Alpha  occ. eigenvalues --   -0.37834  -0.36838  -0.35656  -0.34451  -0.32500
 Alpha  occ. eigenvalues --   -0.31895  -0.30159  -0.29710  -0.29503  -0.29033
 Alpha  occ. eigenvalues --   -0.28290  -0.27847  -0.25581  -0.24706  -0.24093
 Alpha  occ. eigenvalues --   -0.22916  -0.22537  -0.21004  -0.20464  -0.19705
 Alpha  occ. eigenvalues --   -0.18518  -0.17275  -0.15267  -0.13228  -0.09093
 Alpha  occ. eigenvalues --   -0.06927  -0.05890   0.05037
 Alpha virt. eigenvalues --    0.07967   0.08758   0.08877   0.09803   0.10172
 Alpha virt. eigenvalues --    0.10215   0.10775   0.11758   0.12115   0.12513
 Alpha virt. eigenvalues --    0.12794   0.13241   0.13989   0.14377   0.14589

  Beta  occ. eigenvalues --  -19.01390 -14.21349 -10.10704 -10.08767 -10.07149
  Beta  occ. eigenvalues --  -10.05156 -10.03615 -10.03607 -10.03461 -10.03397
  Beta  occ. eigenvalues --  -10.03351 -10.03119 -10.03050 -10.02795 -10.02372
  Beta  occ. eigenvalues --  -10.02255 -10.01155 -10.01081  -0.92659  -0.84054
  Beta  occ. eigenvalues --   -0.70456  -0.69851  -0.66957  -0.63594  -0.63019
  Beta  occ. eigenvalues --   -0.59871  -0.57896  -0.55663  -0.50808  -0.49335
  Beta  occ. eigenvalues --   -0.47508  -0.45994  -0.44443  -0.41277  -0.38757
  Beta  occ. eigenvalues --   -0.37652  -0.36702  -0.35516  -0.34305  -0.32307
  Beta  occ. eigenvalues --   -0.31781  -0.29959  -0.29605  -0.29401  -0.28639
  Beta  occ. eigenvalues --   -0.28043  -0.27723  -0.25290  -0.24405  -0.23935
  Beta  occ. eigenvalues --   -0.22801  -0.22376  -0.20382  -0.20312  -0.19476
  Beta  occ. eigenvalues --   -0.18330  -0.16764  -0.14371  -0.12497  -0.08468
  Beta  occ. eigenvalues --   -0.06485  -0.04652
  Beta virt. eigenvalues --    0.07915   0.08722   0.08834   0.09707   0.09830
  Beta virt. eigenvalues --    0.10198   0.10656   0.11410   0.11851   0.12046
  Beta virt. eigenvalues --    0.12514   0.12769   0.13870   0.14179   0.14356

 Mulliken charges and spin densities:
               1          2
     1  C   -0.571124  -0.019205
     2  C   -0.426938   0.359006
     3  C   -0.013175   0.016445
     4  C   -0.638860   0.165069
     5  C   -0.006980  -0.026843
     6  C    0.959135   0.007055
     7  C   -0.641130   0.023384
     8  C   -0.129595   0.083146
     9  C   -0.207057   0.004849
    10  C   -0.234577   0.111204
    11  O   -0.013591   0.007104
    12  C    1.145521  -0.045040
    13  C   -0.300866   0.095678
    14  C   -0.410028   0.012189
    15  C   -0.171095   0.040538
    16  C   -0.785489   0.105967
    17  C   -0.133401  -0.045919
    18  N   -0.087811   0.040817
    19  H    0.137841   0.005959
    20  H    0.158803   0.014213
    21  H    0.124164  -0.023567
    22  H    0.044327   0.048521
    23  H    0.137119   0.002912
    24  H    0.131863  -0.003032
    25  H    0.111147   0.001807
    26  H    0.114440   0.002188
    27  H    0.169112  -0.016394
    28  H    0.116378   0.002712
    29  H    0.106315  -0.004847
    30  H    0.079617   0.005440
    31  H    0.235937   0.028646
 Sum of Mulliken charges =  -1.00000   1.00000

 Dipole moment (field-independent basis, Debye):
    X=              0.6163    Y=              0.5703    Z=              0.5685  Tot=              1.0140
 Quadrupole moment (field-independent basis, Debye-Ang):
   XX=           -137.1507   YY=           -122.7119   ZZ=           -119.0765
   XY=              7.2789   XZ=              1.0329   YZ=              2.6745

 Summary of Natural Population Analysis:

                                       Natural Population
                Natural  -----------------------------------------------
    Atom  No    Charge         Core      Valence    Rydberg      Total
 -----------------------------------------------------------------------
      C    1   -0.20983      0.99959     2.20041    0.00983     3.20983
      C    2    0.01638      0.99957     1.97460    0.00945     2.98362
      C    3   -0.14033      0.99951     2.13143    0.00939     3.14033
      C    4    0.11151      0.99951     1.87340    0.01559     2.88849
      C    5   -0.00566      0.99938     1.99438    0.01191     3.00566
      C    6    0.11797      0.99946     1.85990    0.02267     2.88203
      C    7   -0.08961      0.99950     2.07976    0.01034     3.08961
      C    8   -0.10286      0.99952     2.09332    0.01001     3.10286
      C    9   -0.19290      0.99955     2.18326    0.01008     3.19290
      C   10    0.12573      0.99947     1.86044    0.01436     2.87427
      O   11   -0.27720      0.99986     3.26532    0.01202     4.27720
      C   12   -0.05630      0.99951     2.04233    0.01446     3.05630
      C   13   -0.07750      0.99954     2.06945    0.00851     3.07750
      C   14   -0.12324      0.99958     2.11424    0.00941     3.12324
      C   15   -0.11217      0.99959     2.10189    0.01069     3.11217
      C   16   -0.11073      0.99953     2.10232    0.00889     3.11073
      C   17    0.07122      0.99949     1.91870    0.01059     2.92878
      N   18   -0.26088      0.99963     2.75356    0.00769     3.76088
      H   19    0.09958      0.00000     0.39922    0.00120     0.40042
      H   20    0.11148      0.00000     0.38713    0.00139     0.38852
      H   21    0.08269      0.00000     0.41636    0.00094     0.41731
      H   22    0.09064      0.00000     0.40780    0.00156     0.40936
      H   23    0.10037      0.00000     0.39862    0.00101     0.39963
      H   24    0.09092      0.00000     0.40728    0.00180     0.40908
      H   25    0.09815      0.00000     0.40085    0.00100     0.40185
      H   26    0.08116      0.00000     0.41773    0.00111     0.41884
      H   27    0.10341      0.00000     0.39482    0.00177     0.39659
      H   28    0.09030      0.00000     0.40868    0.00101     0.40970
      H   29    0.08880      0.00000     0.41016    0.00104     0.41120
      H   30    0.09047      0.00000     0.40806    0.00147     0.40953
      H   31    0.18950      0.00000     0.30858    0.00191     0.31050
 =======================================================================
   * Total *    0.00109     17.99180    43.78401    0.22310    61.99891

 Normal termination of Gaussian 16 at Sat Dec 12 00:06:38 2020.
