 Gaussian 16, Revision A.03,

 -----------------------------------------------------------
 # opt freq B3LYP/6-31G(d) empiricaldispersion=gd3bj scf=xqc
 -----------------------------------------------------------

 ------------------------------
 CID_69538592_JID_6474_neutraal
 ------------------------------
 Symbolic Z-matrix:
 Charge =  0 Multiplicity = 1

 SCF Done:  E(RB3LYP) =  -817.405025843     A.U. after   15 cycles
 SCF Done:  E(RB3LYP) =  -817.411212667     A.U. after   14 cycles
 SCF Done:  E(RB3LYP) =  -817.414179786     A.U. after   13 cycles
 SCF Done:  E(RB3LYP) =  -817.415654388     A.U. after   13 cycles
 SCF Done:  E(RB3LYP) =  -817.415266803     A.U. after   13 cycles
 SCF Done:  E(RB3LYP) =  -817.416789295     A.U. after   13 cycles
 SCF Done:  E(RB3LYP) =  -817.416551909     A.U. after   13 cycles
 SCF Done:  E(RB3LYP) =  -817.417197560     A.U. after   12 cycles
 SCF Done:  E(RB3LYP) =  -817.417175790     A.U. after   12 cycles
 SCF Done:  E(RB3LYP) =  -817.417237158     A.U. after   11 cycles
 SCF Done:  E(RB3LYP) =  -817.417255730     A.U. after   10 cycles
 SCF Done:  E(RB3LYP) =  -817.417257168     A.U. after    9 cycles
 SCF Done:  E(RB3LYP) =  -817.417257611     A.U. after    8 cycles
 SCF Done:  E(RB3LYP) =  -817.417257785     A.U. after    8 cycles
 SCF Done:  E(RB3LYP) =  -817.417257832     A.U. after    8 cycles
 Optimization completed.
    -- Stationary point found.
 Normal termination of Gaussian 16 at Thu Dec 10 23:11:42 2020.

 --------------------------------------------------------------------
 #N Geom=AllCheck Guess=TCheck SCRF=Check GenChk RB3LYP/6-31G(d) Freq
 --------------------------------------------------------------------

 Structure from the checkpoint file:  "JID_6474.chk"
 ------------------------------
 CID_69538592_JID_6474_neutraal
 ------------------------------
 Charge =  0 Multiplicity = 1

 SCF Done:  E(RB3LYP) =  -817.417257832     A.U. after    1 cycles

  Exact polarizability: 165.434  -5.867 142.080 -12.561  -8.709  71.092
 Approx polarizability: 244.735 -10.723 255.516 -22.269 -19.198 112.093

                      1                      2                      3
                      A                      A                      A
 Frequencies --     27.9926                33.8087                42.5574
 Red. masses --      8.4041                11.1193                10.2662
 Frc consts  --      0.0039                 0.0075                 0.0110
 IR Inten    --      0.0898                 1.4150                 2.1111

                      4                      5                      6
                      A                      A                      A
 Frequencies --     56.8445                65.2728               130.2515
 Red. masses --      6.1958                 7.7070                 4.7003
 Frc consts  --      0.0118                 0.0193                 0.0470
 IR Inten    --      1.3582                 1.0116                 0.5064

                      7                      8                      9
                      A                      A                      A
 Frequencies --    161.8460               200.5984               213.4492
 Red. masses --      5.9371                 6.0204                 5.8568
 Frc consts  --      0.0916                 0.1427                 0.1572
 IR Inten    --      0.3096                 0.3967                 2.8737

                     10                     11                     12
                      A                      A                      A
 Frequencies --    278.8597               301.2545               329.9192
 Red. masses --      6.4869                 4.4419                 5.2212
 Frc consts  --      0.2972                 0.2375                 0.3348
 IR Inten    --      1.8505                 2.4946                 2.0353

                     13                     14                     15
                      A                      A                      A
 Frequencies --    393.9470               397.7110               438.9480
 Red. masses --      7.5644                 7.3124                 3.9712
 Frc consts  --      0.6917                 0.6815                 0.4508
 IR Inten    --      2.6687                 3.4906                 2.1049

                     16                     17                     18
                      A                      A                      A
 Frequencies --    455.1461               502.8268               534.2598
 Red. masses --      3.4632                 2.7116                 2.8808
 Frc consts  --      0.4227                 0.4039                 0.4845
 IR Inten    --      1.6849                13.1994                 4.1668

                     19                     20                     21
                      A                      A                      A
 Frequencies --    558.6576               585.1910               617.6417
 Red. masses --      4.3527                 2.7547                 1.5705
 Frc consts  --      0.8004                 0.5558                 0.3530
 IR Inten    --     43.4549                 3.5940               133.5294

                     22                     23                     24
                      A                      A                      A
 Frequencies --    626.7022               647.8515               668.7899
 Red. masses --      1.8649                 2.5712                 2.0067
 Frc consts  --      0.4316                 0.6358                 0.5288
 IR Inten    --     12.5428               129.6032                79.6604

                     25                     26                     27
                      A                      A                      A
 Frequencies --    703.0717               715.5190               727.8163
 Red. masses --      2.7608                 2.2654                 4.1006
 Frc consts  --      0.8040                 0.6833                 1.2798
 IR Inten    --     58.1574                62.5092                14.3672

                     28                     29                     30
                      A                      A                      A
 Frequencies --    764.6547               769.3070               822.7516
 Red. masses --      3.0802                 1.5422                 4.8411
 Frc consts  --      1.0611                 0.5378                 1.9308
 IR Inten    --     63.8433                11.1471                 2.0852

                     31                     32                     33
                      A                      A                      A
 Frequencies --    834.6015               861.2597               864.7502
 Red. masses --      4.5718                 3.7441                 1.8742
 Frc consts  --      1.8763                 1.6363                 0.8257
 IR Inten    --     12.4473                 9.4602                 2.9215

                     34                     35                     36
                      A                      A                      A
 Frequencies --    959.1285               978.4139               989.9012
 Red. masses --      1.3374                 7.7428                 1.2857
 Frc consts  --      0.7249                 4.3671                 0.7423
 IR Inten    --      1.5966                51.2440                 0.4878

                     37                     38                     39
                      A                      A                      A
 Frequencies --   1019.6514              1088.0006              1126.1995
 Red. masses --      2.4169                 2.2156                 3.6798
 Frc consts  --      1.4805                 1.5453                 2.7498
 IR Inten    --      5.9405                 6.1633                74.9425

                     40                     41                     42
                      A                      A                      A
 Frequencies --   1171.7949              1193.2392              1202.0509
 Red. masses --      2.3196                 1.9343                 2.1006
 Frc consts  --      1.8766                 1.6227                 1.7883
 IR Inten    --    131.9771               372.6422                93.4248

                     43                     44                     45
                      A                      A                      A
 Frequencies --   1211.0136              1271.5272              1297.1695
 Red. masses --      1.1540                 1.6791                 1.6558
 Frc consts  --      0.9971                 1.5995                 1.6415
 IR Inten    --     17.7183                61.6174                85.7677

                     46                     47                     48
                      A                      A                      A
 Frequencies --   1305.9194              1363.2891              1372.8784
 Red. masses --      1.5569                 1.6082                 4.2325
 Frc consts  --      1.5644                 1.7611                 4.7002
 IR Inten    --     15.3092                97.8263                 3.9394

                     49                     50                     51
                      A                      A                      A
 Frequencies --   1392.6884              1399.8056              1417.9191
 Red. masses --      2.0046                 1.7571                 4.3366
 Frc consts  --      2.2908                 2.0286                 5.1369
 IR Inten    --     30.7196                18.1360                23.6298

                     52                     53                     54
                      A                      A                      A
 Frequencies --   1483.6712              1495.6884              1518.5280
 Red. masses --      2.1604                 1.2413                 2.0528
 Frc consts  --      2.8019                 1.6360                 2.7889
 IR Inten    --     58.2095                 5.5581                27.3155

                     55                     56                     57
                      A                      A                      A
 Frequencies --   1583.1238              1640.8179              1673.8325
 Red. masses --      2.8268                 2.5866                 5.4532
 Frc consts  --      4.1742                 4.1030                 9.0018
 IR Inten    --    139.0673               234.6744                65.6804

                     58                     59                     60
                      A                      A                      A
 Frequencies --   1708.1388              1828.6793              1849.6099
 Red. masses --      8.7941                10.4725                10.0335
 Frc consts  --     15.1178                20.6337                20.2239
 IR Inten    --    295.1501               225.0231               261.1245

                     61                     62                     63
                      A                      A                      A
 Frequencies --   3074.2887              3118.2623              3192.5792
 Red. masses --      1.0598                 1.1053                 1.0876
 Frc consts  --      5.9015                 6.3323                 6.5312
 IR Inten    --     29.3287                 5.5006                 8.1579

                     64                     65                     66
                      A                      A                      A
 Frequencies --   3215.9613              3226.6420              3249.0104
 Red. masses --      1.0914                 1.0927                 1.0921
 Frc consts  --      6.6506                 6.7026                 6.7922
 IR Inten    --     15.0837                 8.7555                 3.0401

                     67                     68                     69
                      A                      A                      A
 Frequencies --   3504.8551              3671.8210              3687.4219
 Red. masses --      1.0794                 1.0639                 1.0641
 Frc consts  --      7.8120                 8.4509                 8.5246
 IR Inten    --    113.2401                62.9070                56.6909

 - Thermochemistry -
 -------------------
 Temperature   298.150 Kelvin.  Pressure   1.00000 Atm.
 Atom     1 has atomic number  6 and mass  12.00000

 Molecular mass:   223.04807 amu.
 Principal axes and moments of inertia in atomic units:
                           1         2         3
     Eigenvalues --  1990.936125480.672336812.60475
           X            0.99997   0.00356  -0.00713
           Y           -0.00363   0.99995  -0.00961
           Z            0.00710   0.00964   0.99993
 This molecule is an asymmetric top.
 Rotational symmetry number  1.
 Warning -- assumption of classical behavior for rotation
           may cause significant error
 Rotational temperatures (Kelvin)      0.04350     0.01580     0.01271
 Rotational constants (GHZ):           0.90648     0.32929     0.26491
 Zero-point vibrational energy     489377.8 (Joules/Mol)
                                  116.96410 (Kcal/Mol)
 Warning -- explicit consideration of  21 degrees of freedom as
           vibrations may cause significant error
 Vibrational temperatures:     40.28    48.64    61.23    81.79    93.91
          (Kelvin)            187.40   232.86   288.62   307.11   401.22
                              433.44   474.68   566.80   572.22   631.55
                              654.85   723.46   768.68   803.78   841.96
                              888.65   901.68   932.11   962.24  1011.56
                             1029.47  1047.17  1100.17  1106.86  1183.76
                             1200.81  1239.16  1244.18  1379.97  1407.72
                             1424.25  1467.05  1565.39  1620.35  1685.95
                             1716.81  1729.48  1742.38  1829.44  1866.34
                             1878.93  1961.47  1975.27  2003.77  2014.01
                             2040.07  2134.67  2151.96  2184.82  2277.76
                             2360.77  2408.27  2457.63  2631.06  2661.18
                             4423.22  4486.48  4593.41  4627.05  4642.42
                             4674.60  5042.70  5282.93  5305.38

 Zero-point correction=                           0.186394 (Hartree/Particle)
 Thermal correction to Energy=                    0.200732
 Thermal correction to Enthalpy=                  0.201676
 Thermal correction to Gibbs Free Energy=         0.142539
 Sum of electronic and zero-point Energies=           -817.230864
 Sum of electronic and thermal Energies=              -817.216526
 Sum of electronic and thermal Enthalpies=            -817.215582
 Sum of electronic and thermal Free Energies=         -817.274719

                     E (Thermal)             CV                S
                      KCal/Mol        Cal/Mol-Kelvin    Cal/Mol-Kelvin
 Total                  125.961             52.949            124.465
 Electronic               0.000              0.000              0.000
 Translational            0.889              2.981             42.109
 Rotational               0.889              2.981             32.675
 Vibrational            124.184             46.988             49.681
 Vibration     1          0.593              1.984              5.967
 Vibration     2          0.594              1.983              5.592
 Vibration     3          0.595              1.980              5.136
 Vibration     4          0.596              1.975              4.564
 Vibration     5          0.597              1.971              4.291
 Vibration     6          0.612              1.923              2.942
 Vibration     7          0.622              1.889              2.528
 Vibration     8          0.638              1.839              2.128
 Vibration     9          0.644              1.820              2.014
 Vibration    10          0.679              1.713              1.541
 Vibration    11          0.693              1.671              1.410
 Vibration    12          0.713              1.616              1.260
 Vibration    13          0.761              1.483              0.985
 Vibration    14          0.764              1.475              0.971
 Vibration    15          0.799              1.385              0.830
 Vibration    16          0.813              1.350              0.780
 Vibration    17          0.858              1.244              0.651
 Vibration    18          0.889              1.174              0.578
 Vibration    19          0.914              1.121              0.527
 Vibration    20          0.942              1.063              0.476
 Vibration    21          0.977              0.995              0.420

 Optimization completed.
    -- Stationary point found.
 Normal termination of Gaussian 16 at Thu Dec 10 23:19:12 2020.

 ----------------------------------------------------------------------
 # B3LYP/6-311++G(d,p) empiricaldispersion=gd3bj scf=xqc pop=npa geom=c
 heck
 ----------------------------------------------------------------------

 --------------------------------------
 CID_69538592_JID_6474_Energie_neutraal
 --------------------------------------
 Structure from the checkpoint file:  "JID_6474.chk"
 Charge =  0 Multiplicity = 1

 SCF Done:  E(RB3LYP) =  -817.671545715     A.U. after   15 cycles
 Normal termination of Gaussian 16 at Thu Dec 10 23:21:44 2020.

 ----------------------------------------------------------------------
 # B3LYP/6-311++G(d,p) empiricaldispersion=gd3bj scf=xqc pop=npa geom=c
 heck
 ----------------------------------------------------------------------

 ------------------------------------
 CID_69538592_JID_6474_Energie_kation
 ------------------------------------
 Structure from the checkpoint file:  "JID_6474.chk"
 Charge =  1 Multiplicity = 2

 SCF Done:  E(UB3LYP) =  -817.378191023     A.U. after   23 cycles
 Normal termination of Gaussian 16 at Thu Dec 10 23:26:58 2020.
 Gaussian 16:  ES64L-G16RevA.03 25-Dec-2016

 ----------------------------------------------------------------------
 # B3LYP/6-311++G(d,p) empiricaldispersion=gd3bj scf=xqc pop=npa geom=c
 heck
 ----------------------------------------------------------------------

 -----------------------------------
 CID_69538592_JID_6474_Energie_anion
 -----------------------------------
 Structure from the checkpoint file:  "JID_6474.chk"
 Charge = -1 Multiplicity = 2

                         Standard orientation:
 ---------------------------------------------------------------------
 Center     Atomic      Atomic             Coordinates (Angstroms)
 Number     Number       Type             X           Y           Z
 ---------------------------------------------------------------------
      1          6           0        0.720156    2.843922   -0.362834
      2          6           0       -0.655775    2.781601   -0.096784
      3          6           0       -1.259927    1.598177    0.291155
      4          6           0       -0.501931    0.413063    0.436104
      5          6           0        0.905164    0.464334    0.152297
      6          6           0        1.478470    1.695188   -0.239277
      7          6           0        1.710880   -0.747023    0.211738
      8          8           0        1.292428   -1.871569    0.503872
      9          6           0        3.219641   -0.656263   -0.070475
     10          8           0        3.979563    0.129498    0.451615
     11          8           0        3.609436   -1.621252   -0.921997
     12          7           0       -1.085168   -0.749276    0.844638
     13          6           0       -2.502880   -0.903489    1.023453
     14          6           0       -3.344500   -0.771596   -0.247152
     15          8           0       -4.459990   -0.303951   -0.276405
     16          8           0       -2.712619   -1.267864   -1.330846
     17          1           0        1.182895    3.778020   -0.662650
     18          1           0       -1.266971    3.674425   -0.197625
     19          1           0       -2.327077    1.583464    0.479459
     20          1           0        2.542704    1.734065   -0.432989
     21          1           0        4.580157   -1.542473   -0.996352
     22          1           0       -0.487235   -1.569384    0.804490
     23          1           0       -2.683296   -1.904233    1.430138
     24          1           0       -2.906910   -0.186398    1.745434
     25          1           0       -3.324439   -1.148930   -2.081627
 ---------------------------------------------------------------------

 SCF Done:  E(UB3LYP) =  -817.702223155     A.U. after   26 cycles

 The electronic state is 2-A.
 Alpha  occ. eigenvalues --  -19.08316 -19.03641 -19.02739 -18.97079 -18.92440
 Alpha  occ. eigenvalues --  -14.18899 -10.21405 -10.15035 -10.11680 -10.07570
 Alpha  occ. eigenvalues --  -10.06855 -10.02847 -10.02820 -10.02757 -10.02447
 Alpha  occ. eigenvalues --  -10.02256  -1.02319  -0.97482  -0.93442  -0.88253
 Alpha  occ. eigenvalues --   -0.86698  -0.81488  -0.70633  -0.64442  -0.61633
 Alpha  occ. eigenvalues --   -0.58475  -0.53971  -0.52312  -0.49152  -0.46139
 Alpha  occ. eigenvalues --   -0.43822  -0.40585  -0.39853  -0.38684  -0.37143
 Alpha  occ. eigenvalues --   -0.36328  -0.35145  -0.34220  -0.32166  -0.31753
 Alpha  occ. eigenvalues --   -0.31417  -0.30571  -0.29049  -0.27917  -0.27035
 Alpha  occ. eigenvalues --   -0.25765  -0.25320  -0.23930  -0.22877  -0.21988
 Alpha  occ. eigenvalues --   -0.21174  -0.20291  -0.18928  -0.17123  -0.16199
 Alpha  occ. eigenvalues --   -0.11901  -0.08719  -0.07340   0.03145
 Alpha virt. eigenvalues --    0.07263   0.08256   0.09165   0.09379   0.09731
 Alpha virt. eigenvalues --    0.11188   0.12189   0.12327   0.13501   0.13945
 Alpha virt. eigenvalues --    0.14360   0.15394   0.15872   0.16208   0.16982

  Beta  occ. eigenvalues --  -19.08313 -19.03599 -19.02737 -18.96918 -18.91713
  Beta  occ. eigenvalues --  -14.18829 -10.21395 -10.14947 -10.11683 -10.07411
  Beta  occ. eigenvalues --  -10.06436 -10.02901 -10.02892 -10.02561 -10.02456
  Beta  occ. eigenvalues --  -10.02024  -1.02310  -0.97308  -0.93436  -0.88008
  Beta  occ. eigenvalues --   -0.85463  -0.81256  -0.70382  -0.64322  -0.61193
  Beta  occ. eigenvalues --   -0.58287  -0.53445  -0.52185  -0.48659  -0.46029
  Beta  occ. eigenvalues --   -0.43497  -0.40482  -0.39823  -0.38515  -0.36977
  Beta  occ. eigenvalues --   -0.36168  -0.34945  -0.34050  -0.31890  -0.31356
  Beta  occ. eigenvalues --   -0.31181  -0.30391  -0.28937  -0.27798  -0.26702
  Beta  occ. eigenvalues --   -0.24867  -0.24770  -0.23900  -0.22623  -0.21195
  Beta  occ. eigenvalues --   -0.20354  -0.19261  -0.18012  -0.16565  -0.15641
  Beta  occ. eigenvalues --   -0.10492  -0.08134  -0.06708
  Beta virt. eigenvalues --    0.07249   0.08271   0.09155   0.09354   0.09631
  Beta virt. eigenvalues --    0.10213   0.11197   0.12242   0.13134   0.13764
  Beta virt. eigenvalues --    0.14063   0.14959   0.15381   0.15902   0.16238

 Mulliken charges and spin densities:
               1          2
     1  C   -0.674201  -0.105359
     2  C   -0.272333   0.250225
     3  C    0.091254  -0.052423
     4  C   -0.275072   0.128783
     5  C    1.298173  -0.021635
     6  C   -0.663978   0.182031
     7  C   -0.390555   0.223834
     8  O   -0.376647   0.253582
     9  C   -0.126823   0.080805
    10  O   -0.328788   0.052116
    11  O   -0.120035  -0.001638
    12  N   -0.061285   0.018502
    13  C   -0.448483   0.005481
    14  C   -0.013316  -0.009090
    15  O   -0.264153   0.001774
    16  O   -0.098625   0.001498
    17  H    0.104083   0.005377
    18  H    0.112227  -0.018222
    19  H    0.111537   0.001557
    20  H    0.131407  -0.008120
    21  H    0.228700   0.003151
    22  H    0.385230  -0.005626
    23  H    0.162414   0.000746
    24  H    0.217225   0.009838
    25  H    0.272044   0.002815
 Sum of Mulliken charges =  -1.00000   1.00000

 Dipole moment (field-independent basis, Debye):
    X=             -3.9867    Y=             -0.9318    Z=             -1.8876  Tot=              4.5084
 Quadrupole moment (field-independent basis, Debye-Ang):
   XX=           -130.4361   YY=           -111.8171   ZZ=            -96.5744
   XY=              5.4782   XZ=             -4.9765   YZ=             -0.1646

 Summary of Natural Population Analysis:

                                       Natural Population
                Natural  -----------------------------------------------
    Atom  No    Charge         Core      Valence    Rydberg      Total
 -----------------------------------------------------------------------
      C    1   -0.16385      0.99957     2.15399    0.01028     3.16385
      C    2   -0.02939      0.99958     2.02017    0.00963     3.02939
      C    3   -0.16740      0.99954     2.15945    0.00840     3.16740
      C    4    0.14237      0.99951     1.84747    0.01065     2.85763
      C    5   -0.10333      0.99947     2.09540    0.00845     3.10333
      C    6   -0.02806      0.99955     2.02030    0.00821     3.02806
      C    7    0.27365      0.99956     1.70684    0.01995     2.72635
      O    8   -0.23686      0.99987     3.23043    0.00656     4.23686
      C    9    0.39119      0.99972     1.58122    0.02786     2.60881
      O   10   -0.30868      0.99987     3.30136    0.00746     4.30868
      O   11   -0.33845      0.99987     3.33051    0.00806     4.33845
      N   12   -0.30819      0.99965     2.79804    0.01051     3.80819
      C   13   -0.13497      0.99958     2.12479    0.01060     3.13497
      C   14    0.40154      0.99975     1.57273    0.02598     2.59846
      O   15   -0.31518      0.99987     3.30776    0.00755     4.31518
      O   16   -0.33415      0.99987     3.32758    0.00670     4.33415
      H   17    0.09134      0.00000     0.40758    0.00107     0.40866
      H   18    0.08554      0.00000     0.41338    0.00108     0.41446
      H   19    0.09438      0.00000     0.40401    0.00162     0.40562
      H   20    0.10166      0.00000     0.39711    0.00123     0.39834
      H   21    0.22391      0.00000     0.27029    0.00580     0.27609
      H   22    0.21708      0.00000     0.28094    0.00198     0.28292
      H   23    0.10907      0.00000     0.39003    0.00090     0.39093
      H   24    0.10265      0.00000     0.39578    0.00158     0.39735
      H   25    0.23411      0.00000     0.26123    0.00466     0.26589
 =======================================================================
   * Total *    0.00000     15.99485    41.79838    0.20677    58.00000

 Normal termination of Gaussian 16 at Thu Dec 10 23:32:51 2020.
