 Gaussian 16, Revision A.03,

 -----------------------------------------------------------
 # opt freq B3LYP/6-31G(d) empiricaldispersion=gd3bj scf=xqc
 -----------------------------------------------------------

 -------------------------------
 CID_115013473_JID_1586_neutraal
 -------------------------------
 Symbolic Z-matrix:
 Charge =  0 Multiplicity = 1

 SCF Done:  E(RB3LYP) =  -823.636197932     A.U. after   14 cycles
 SCF Done:  E(RB3LYP) =  -823.637899792     A.U. after   12 cycles
 SCF Done:  E(RB3LYP) =  -823.637870894     A.U. after   12 cycles
 SCF Done:  E(RB3LYP) =  -823.638137921     A.U. after   11 cycles
 SCF Done:  E(RB3LYP) =  -823.638179499     A.U. after   10 cycles
 SCF Done:  E(RB3LYP) =  -823.638183994     A.U. after   10 cycles
 SCF Done:  E(RB3LYP) =  -823.638185173     A.U. after    9 cycles
 SCF Done:  E(RB3LYP) =  -823.638185610     A.U. after    8 cycles
 SCF Done:  E(RB3LYP) =  -823.638185698     A.U. after    7 cycles
 Optimization completed.
    -- Stationary point found.
 Normal termination of Gaussian 16 at Tue Dec  8 20:25:58 2020.

 --------------------------------------------------------------------
 #N Geom=AllCheck Guess=TCheck SCRF=Check GenChk RB3LYP/6-31G(d) Freq
 --------------------------------------------------------------------

 Structure from the checkpoint file:  "JID_1586.chk"
 -------------------------------
 CID_115013473_JID_1586_neutraal
 -------------------------------
 Charge =  0 Multiplicity = 1

 SCF Done:  E(RB3LYP) =  -823.638185698     A.U. after    1 cycles

  Exact polarizability: 145.310  -0.269  97.980   7.494  13.772  90.791
 Approx polarizability: 211.920  -1.389 159.370  17.960  33.501 147.812

                      1                      2                      3
                      A                      A                      A
 Frequencies --     33.6277                59.4404                86.9380
 Red. masses --      3.5266                 3.3172                 3.8083
 Frc consts  --      0.0023                 0.0069                 0.0170
 IR Inten    --      0.2383                 0.7274                 1.4247

                      4                      5                      6
                      A                      A                      A
 Frequencies --    170.2275               181.3108               200.0273
 Red. masses --      1.1500                 5.5418                 3.1621
 Frc consts  --      0.0196                 0.1073                 0.0745
 IR Inten    --      1.2334                 0.6107                 0.2837

                      7                      8                      9
                      A                      A                      A
 Frequencies --    257.5744               280.5317               305.3651
 Red. masses --      3.5262                 1.1141                 3.0325
 Frc consts  --      0.1378                 0.0517                 0.1666
 IR Inten    --      3.0802                 0.0358                 0.5658

                     10                     11                     12
                      A                      A                      A
 Frequencies --    362.0079               382.7387               404.4661
 Red. masses --      1.1016                 5.2907                 4.5839
 Frc consts  --      0.0851                 0.4566                 0.4418
 IR Inten    --    116.6568                 8.7069                 8.3636

                     13                     14                     15
                      A                      A                      A
 Frequencies --    421.2433               446.4772               529.0429
 Red. masses --      3.1811                 3.9686                 2.7980
 Frc consts  --      0.3326                 0.4661                 0.4614
 IR Inten    --      0.3451                 0.6964                 5.2924

                     16                     17                     18
                      A                      A                      A
 Frequencies --    558.7885               629.5708               659.5419
 Red. masses --      3.9869                 3.3508                 6.6986
 Frc consts  --      0.7335                 0.7825                 1.7168
 IR Inten    --      7.3789                16.2771                 0.6868

                     19                     20                     21
                      A                      A                      A
 Frequencies --    715.8488               739.2707               755.3120
 Red. masses --      5.3832                 4.2757                 3.7194
 Frc consts  --      1.6253                 1.3768                 1.2502
 IR Inten    --      0.6428                 5.4995                 1.3206

                     22                     23                     24
                      A                      A                      A
 Frequencies --    811.7758               846.3551               859.9776
 Red. masses --      1.3402                 1.5568                 5.7114
 Frc consts  --      0.5203                 0.6570                 2.4887
 IR Inten    --     12.7183                26.4389                11.8591

                     25                     26                     27
                      A                      A                      A
 Frequencies --    932.0297               961.1274               978.6211
 Red. masses --      1.2978                 1.3066                 1.2669
 Frc consts  --      0.6642                 0.7112                 0.7149
 IR Inten    --      0.3622                 0.1993                 7.2993

                     28                     29                     30
                      A                      A                      A
 Frequencies --    992.9071              1017.7821              1035.9610
 Red. masses --      1.1889                 1.9767                 2.5303
 Frc consts  --      0.6906                 1.2064                 1.6000
 IR Inten    --      4.7411                10.9783                 3.4501

                     31                     32                     33
                      A                      A                      A
 Frequencies --   1077.9979              1091.2364              1150.0268
 Red. masses --      1.4779                 2.1279                 1.3717
 Frc consts  --      1.0119                 1.4929                 1.0688
 IR Inten    --     14.6630                 2.5561                11.7857

                     34                     35                     36
                      A                      A                      A
 Frequencies --   1207.7047              1212.9483              1233.5547
 Red. masses --      1.4786                 1.1615                 1.8941
 Frc consts  --      1.2707                 1.0069                 1.6981
 IR Inten    --    179.8960                 3.6056                17.0143

                     37                     38                     39
                      A                      A                      A
 Frequencies --   1267.4492              1314.3777              1334.7741
 Red. masses --      1.3457                 3.3810                 1.8074
 Frc consts  --      1.2736                 3.4414                 1.8973
 IR Inten    --     11.1051                89.5709                 8.5399

                     40                     41                     42
                      A                      A                      A
 Frequencies --   1375.5386              1384.4992              1389.0788
 Red. masses --      1.3619                 1.2139                 2.5804
 Frc consts  --      1.5182                 1.3709                 2.9335
 IR Inten    --     17.6922                 1.5063                34.4854

                     43                     44                     45
                      A                      A                      A
 Frequencies --   1437.7842              1488.1051              1497.5356
 Red. masses --      1.2352                 2.6644                 1.0590
 Frc consts  --      1.5044                 3.4763                 1.3993
 IR Inten    --      9.0402                17.5541                 7.0403

                     46                     47                     48
                      A                      A                      A
 Frequencies --   1515.7053              1522.6718              1535.2027
 Red. masses --      1.0532                 1.0475                 1.0505
 Frc consts  --      1.4256                 1.4310                 1.4587
 IR Inten    --      7.6368                12.5459                 3.4696

                     49                     50                     51
                      A                      A                      A
 Frequencies --   1569.3305              1651.9818              1678.7622
 Red. masses --      2.6047                 5.8713                 5.8993
 Frc consts  --      3.7795                 9.4406                 9.7956
 IR Inten    --     83.4154                24.5893                52.3243

                     52                     53                     54
                      A                      A                      A
 Frequencies --   3054.0468              3062.9217              3065.0637
 Red. masses --      1.0379                 1.0308                 1.0849
 Frc consts  --      5.7039                 5.6975                 6.0050
 IR Inten    --     20.8636                23.4342                 4.9067

                     55                     56                     57
                      A                      A                      A
 Frequencies --   3118.8860              3142.8380              3145.3169
 Red. masses --      1.0998                 1.1049                 1.1028
 Frc consts  --      6.3034                 6.4301                 6.4280
 IR Inten    --     26.7881                19.3253                15.0049

                     58                     59                     60
                      A                      A                      A
 Frequencies --   3157.9064              3167.6221              3189.3114
 Red. masses --      1.1046                 1.0893                 1.0887
 Frc consts  --      6.4900                 6.4394                 6.5245
 IR Inten    --      6.3636                23.2078                 7.2937

                     61                     62                     63
                      A                      A                      A
 Frequencies --   3212.2378              3218.5899              3751.0577
 Red. masses --      1.0909                 1.0934                 1.0659
 Frc consts  --      6.6320                 6.6739                 8.8363
 IR Inten    --     13.6650                 5.8783                44.9518

 - Thermochemistry -
 -------------------
 Temperature   298.150 Kelvin.  Pressure   1.00000 Atm.
 Atom     1 has atomic number  6 and mass  12.00000

 Molecular mass:   168.06089 amu.
 Principal axes and moments of inertia in atomic units:
                           1         2         3
     Eigenvalues --   925.506823441.307143570.14447
           X            0.99990  -0.01364  -0.00298
           Y            0.01372   0.99944   0.03055
           Z            0.00256  -0.03059   0.99953
 This molecule is an asymmetric top.
 Rotational symmetry number  1.
 Warning -- assumption of classical behavior for rotation
           may cause significant error
 Rotational temperatures (Kelvin)      0.09359     0.02517     0.02426
 Rotational constants (GHZ):           1.95000     0.52443     0.50551
 Zero-point vibrational energy     501462.3 (Joules/Mol)
                                  119.85237 (Kcal/Mol)
 Warning -- explicit consideration of  16 degrees of freedom as
           vibrations may cause significant error
 Vibrational temperatures:     48.38    85.52   125.08   244.92   260.87
          (Kelvin)            287.79   370.59   403.62   439.35   520.85
                              550.68   581.94   606.08   642.38   761.17
                              803.97   905.81   948.93  1029.95  1063.65
                             1086.73  1167.96  1217.72  1237.32  1340.98
                             1382.85  1408.02  1428.57  1464.36  1490.52
                             1551.00  1570.05  1654.63  1737.62  1745.16
                             1774.81  1823.58  1891.10  1920.44  1979.09
                             1991.99  1998.57  2068.65  2141.05  2154.62
                             2180.76  2190.79  2208.81  2257.92  2376.83
                             2415.36  4394.09  4406.86  4409.94  4487.38
                             4521.84  4525.41  4543.52  4557.50  4588.71
                             4621.69  4630.83  5396.94

 Zero-point correction=                           0.190997 (Hartree/Particle)
 Thermal correction to Energy=                    0.202518
 Thermal correction to Enthalpy=                  0.203462
 Thermal correction to Gibbs Free Energy=         0.152873
 Sum of electronic and zero-point Energies=           -823.447189
 Sum of electronic and thermal Energies=              -823.435668
 Sum of electronic and thermal Enthalpies=            -823.434724
 Sum of electronic and thermal Free Energies=         -823.485313

                     E (Thermal)             CV                S
                      KCal/Mol        Cal/Mol-Kelvin    Cal/Mol-Kelvin
 Total                  127.082             43.268            106.475
 Electronic               0.000              0.000              0.000
 Translational            0.889              2.981             41.266
 Rotational               0.889              2.981             30.809
 Vibrational            125.304             37.306             34.400
 Vibration     1          0.594              1.983              5.603
 Vibration     2          0.597              1.974              4.476
 Vibration     3          0.601              1.958              3.728
 Vibration     4          0.625              1.879              2.433
 Vibration     5          0.630              1.865              2.315
 Vibration     6          0.638              1.840              2.133
 Vibration     7          0.667              1.750              1.678
 Vibration     8          0.680              1.710              1.530
 Vibration     9          0.696              1.664              1.387
 Vibration    10          0.736              1.551              1.113
 Vibration    11          0.752              1.507              1.028
 Vibration    12          0.770              1.460              0.946
 Vibration    13          0.784              1.424              0.888
 Vibration    14          0.806              1.369              0.806
 Vibration    15          0.884              1.186              0.589
 Vibration    16          0.914              1.120              0.526

 Optimization completed.
    -- Stationary point found.
 Normal termination of Gaussian 16 at Tue Dec  8 20:32:13 2020.

 ----------------------------------------------------------------------
 # B3LYP/6-311++G(d,p) empiricaldispersion=gd3bj scf=xqc pop=npa geom=c
 heck
 ----------------------------------------------------------------------

 ---------------------------------------
 CID_115013473_JID_1586_Energie_neutraal
 ---------------------------------------
 Structure from the checkpoint file:  "JID_1586.chk"
 Charge =  0 Multiplicity = 1

 SCF Done:  E(RB3LYP) =  -823.789889842     A.U. after   14 cycles
 Normal termination of Gaussian 16 at Tue Dec  8 20:37:19 2020.

 ----------------------------------------------------------------------
 # B3LYP/6-311++G(d,p) empiricaldispersion=gd3bj scf=xqc pop=npa geom=c
 heck
 ----------------------------------------------------------------------

 -------------------------------------
 CID_115013473_JID_1586_Energie_kation
 -------------------------------------
 Structure from the checkpoint file:  "JID_1586.chk"
 Charge =  1 Multiplicity = 2

 SCF Done:  E(UB3LYP) =  -823.505727766     A.U. after   22 cycles
 Normal termination of Gaussian 16 at Tue Dec  8 20:44:49 2020.
 Gaussian 16:  ES64L-G16RevA.03 25-Dec-2016

 ----------------------------------------------------------------------
 # B3LYP/6-311++G(d,p) empiricaldispersion=gd3bj scf=xqc pop=npa geom=c
 heck
 ----------------------------------------------------------------------

 ------------------------------------
 CID_115013473_JID_1586_Energie_anion
 ------------------------------------
 Structure from the checkpoint file:  "JID_1586.chk"
 Charge = -1 Multiplicity = 2

                         Standard orientation:
 ---------------------------------------------------------------------
 Center     Atomic      Atomic             Coordinates (Angstroms)
 Number     Number       Type             X           Y           Z
 ---------------------------------------------------------------------
      1          6           0       -2.121306    1.768222   -0.624822
      2          6           0       -1.521806    0.378945   -0.847546
      3          6           0       -0.051834    0.251772   -0.513415
      4          6           0        0.597666    1.117235    0.370686
      5          6           0        1.951094    0.958940    0.677584
      6          6           0        2.679852   -0.079743    0.097970
      7          6           0        2.046411   -0.959630   -0.788310
      8          6           0        0.700709   -0.789444   -1.080266
      9          8           0        4.007096   -0.289124    0.352556
     10         16           0       -2.528253   -0.940802    0.004087
     11          6           0       -2.075944   -0.646994    1.746251
     12          1           0       -2.142915    2.039369    0.435445
     13          1           0       -3.149562    1.795976   -0.993538
     14          1           0       -1.535413    2.528959   -1.154499
     15          1           0       -1.658433    0.108128   -1.900688
     16          1           0        0.054202    1.936050    0.830392
     17          1           0        2.436316    1.647264    1.367128
     18          1           0        2.624096   -1.763064   -1.233443
     19          1           0        0.211133   -1.485394   -1.756488
     20          1           0        4.316169    0.386110    0.976083
     21          1           0       -0.995251   -0.732079    1.886262
     22          1           0       -2.417927    0.331010    2.096751
     23          1           0       -2.576183   -1.422323    2.331972
 ---------------------------------------------------------------------

 SCF Done:  E(UB3LYP) =  -823.777781147     A.U. after   32 cycles

 The electronic state is 2-A.
 Alpha  occ. eigenvalues --  -88.73740 -19.04634 -10.13330 -10.11466 -10.08895
 Alpha  occ. eigenvalues --  -10.07917 -10.07785 -10.07458 -10.07228 -10.06988
 Alpha  occ. eigenvalues --  -10.06844  -7.82346  -5.78743  -5.78390  -5.77703
 Alpha  occ. eigenvalues --   -0.95701  -0.76286  -0.71476  -0.65433  -0.65009
 Alpha  occ. eigenvalues --   -0.62511  -0.56081  -0.52648  -0.51045  -0.46645
 Alpha  occ. eigenvalues --   -0.44394  -0.40007  -0.36526  -0.35582  -0.34460
 Alpha  occ. eigenvalues --   -0.32967  -0.32479  -0.32081  -0.30889  -0.30592
 Alpha  occ. eigenvalues --   -0.28931  -0.27858  -0.26497  -0.25741  -0.23881
 Alpha  occ. eigenvalues --   -0.23013  -0.20908  -0.15844  -0.13246  -0.11592
 Alpha  occ. eigenvalues --    0.04596
 Alpha virt. eigenvalues --    0.06672   0.07394   0.07933   0.08378   0.08801
 Alpha virt. eigenvalues --    0.09158   0.09979   0.10452   0.11174   0.12124
 Alpha virt. eigenvalues --    0.12631   0.13076   0.13657   0.14302   0.15155

  Beta  occ. eigenvalues --  -88.73736 -19.04578 -10.13331 -10.11460 -10.08851
  Beta  occ. eigenvalues --  -10.07917 -10.07782 -10.07445 -10.07217 -10.06961
  Beta  occ. eigenvalues --  -10.06800  -7.82343  -5.78732  -5.78386  -5.77700
  Beta  occ. eigenvalues --   -0.95595  -0.76262  -0.71443  -0.65389  -0.64967
  Beta  occ. eigenvalues --   -0.62467  -0.56022  -0.52573  -0.51004  -0.46602
  Beta  occ. eigenvalues --   -0.44300  -0.39969  -0.36477  -0.35546  -0.34419
  Beta  occ. eigenvalues --   -0.32929  -0.32439  -0.32022  -0.30849  -0.30555
  Beta  occ. eigenvalues --   -0.28885  -0.27807  -0.26461  -0.25704  -0.23843
  Beta  occ. eigenvalues --   -0.22979  -0.20877  -0.15821  -0.13224  -0.11569
  Beta virt. eigenvalues --    0.06865   0.07646   0.08120   0.08297   0.08641
  Beta virt. eigenvalues --    0.08899   0.09770   0.10300   0.10984   0.11424
  Beta virt. eigenvalues --    0.12633   0.12846   0.13441   0.13883   0.14332

 Mulliken charges and spin densities:
               1          2
     1  C    0.420275  -1.022091
     2  C    0.121382  -0.186985
     3  C    0.289349   0.436522
     4  C   -0.218741   0.417451
     5  C    0.061915  -0.144212
     6  C    2.457658  -2.954585
     7  C    0.280750  -0.481484
     8  C   -1.710132   1.031050
     9  O   -0.291202   0.055872
    10  S   -0.199544   0.173276
    11  C    0.090851  -0.809393
    12  H   -0.202600   0.369946
    13  H   -0.021340   0.164485
    14  H   -0.074463   0.208745
    15  H    0.201225   0.045620
    16  H    0.021900   0.143216
    17  H   -1.824840   2.026742
    18  H    0.079758   0.094924
    19  H    0.066730   0.063144
    20  H   -0.297324   0.586011
    21  H    0.099190   0.094708
    22  H   -0.225069   0.400874
    23  H   -0.125728   0.286161
 Sum of Mulliken charges =  -1.00000   1.00000

 Dipole moment (field-independent basis, Debye):
    X=             -5.3468    Y=             -4.5447    Z=             -5.8755  Tot=              9.1523
 Quadrupole moment (field-independent basis, Debye-Ang):
   XX=           -151.0798   YY=           -111.5753   ZZ=           -107.2480
   XY=             -9.7228   XZ=             -8.6445   YZ=             -7.0036

 Summary of Natural Population Analysis:

                                       Natural Population
                Natural  -----------------------------------------------
    Atom  No    Charge         Core      Valence    Rydberg      Total
 -----------------------------------------------------------------------
      C    1   -0.29106      0.99964     2.28438    0.00704     3.29106
      C    2   -0.16190      0.99953     2.14918    0.01318     3.16190
      C    3   -0.04687      0.99948     2.03533    0.01206     3.04687
      C    4   -0.09269      0.99951     2.08219    0.01099     3.09269
      C    5   -0.13094      0.99951     2.11885    0.01259     3.13094
      C    6    0.15969      0.99939     1.82707    0.01386     2.84031
      C    7   -0.12512      0.99952     2.11519    0.01042     3.12512
      C    8   -0.08645      0.99952     2.07874    0.00819     3.08645
      O    9   -0.34159      0.99988     3.33457    0.00715     4.34159
      S   10    0.08055      4.99963     2.90143    0.01839     7.91945
      C   11   -0.35384      0.99962     2.34781    0.00641     3.35384
      H   12    0.10256      0.00000     0.39597    0.00147     0.39744
      H   13    0.10243      0.00000     0.39616    0.00141     0.39757
      H   14    0.10277      0.00000     0.39607    0.00116     0.39723
      H   15    0.10303      0.00000     0.39533    0.00165     0.39697
      H   16    0.10610      0.00000     0.39184    0.00205     0.39390
      H   17    0.10970      0.00000     0.38176    0.00855     0.39030
      H   18    0.10380      0.00000     0.39535    0.00084     0.39620
      H   19    0.09900      0.00000     0.39984    0.00117     0.40100
      H   20    0.24313      0.00000     0.24170    0.01517     0.25687
      H   21    0.10860      0.00000     0.38974    0.00166     0.39140
      H   22    0.10252      0.00000     0.39558    0.00190     0.39748
      H   23    0.10659      0.00000     0.39243    0.00099     0.39341
 =======================================================================
   * Total *   -0.00000     14.99522    29.84648    0.15830    45.00000

 Normal termination of Gaussian 16 at Tue Dec  8 20:53:59 2020.
