 Gaussian 16, Revision A.03,

 -----------------------------------------------------------
 # opt freq B3LYP/6-31G(d) empiricaldispersion=gd3bj scf=xqc
 -----------------------------------------------------------

 ------------------------------
 CID_12553576_JID_5623_neutraal
 ------------------------------
 Symbolic Z-matrix:
 Charge =  0 Multiplicity = 1

 SCF Done:  E(RB3LYP) =  -630.571094414     A.U. after   16 cycles
 SCF Done:  E(RB3LYP) =  -630.598606401     A.U. after   13 cycles
 SCF Done:  E(RB3LYP) =  -630.599732618     A.U. after   13 cycles
 SCF Done:  E(RB3LYP) =  -630.600387391     A.U. after   13 cycles
 SCF Done:  E(RB3LYP) =  -630.600635765     A.U. after   13 cycles
 SCF Done:  E(RB3LYP) =  -630.600949684     A.U. after   12 cycles
 SCF Done:  E(RB3LYP) =  -630.600995775     A.U. after   11 cycles
 SCF Done:  E(RB3LYP) =  -630.601003222     A.U. after   11 cycles
 SCF Done:  E(RB3LYP) =  -630.601012275     A.U. after    9 cycles
 SCF Done:  E(RB3LYP) =  -630.601014127     A.U. after   10 cycles
 SCF Done:  E(RB3LYP) =  -630.601014678     A.U. after    8 cycles
 SCF Done:  E(RB3LYP) =  -630.601014898     A.U. after    8 cycles
 SCF Done:  E(RB3LYP) =  -630.601014944     A.U. after    7 cycles
 Optimization completed.
    -- Stationary point found.
 Normal termination of Gaussian 16 at Thu Dec 10 15:58:34 2020.

 --------------------------------------------------------------------
 #N Geom=AllCheck Guess=TCheck SCRF=Check GenChk RB3LYP/6-31G(d) Freq
 --------------------------------------------------------------------

 Structure from the checkpoint file:  "JID_5623.chk"
 ------------------------------
 CID_12553576_JID_5623_neutraal
 ------------------------------
 Charge =  0 Multiplicity = 1

 SCF Done:  E(RB3LYP) =  -630.601014944     A.U. after    1 cycles

  Exact polarizability: 205.914  18.929 126.727   5.476 -10.588  99.471
 Approx polarizability: 308.267  40.338 206.002   1.843 -25.801 158.368

                      1                      2                      3
                      A                      A                      A
 Frequencies --     37.8155                46.6632                70.6882
 Red. masses --      4.4444                 3.7298                 4.9068
 Frc consts  --      0.0037                 0.0048                 0.0144
 IR Inten    --      1.4909                 2.2630                 1.2121

                      4                      5                      6
                      A                      A                      A
 Frequencies --     87.0756               135.7159               150.6936
 Red. masses --      3.0364                 5.5866                 6.2558
 Frc consts  --      0.0136                 0.0606                 0.0837
 IR Inten    --      1.7384                 4.0848                 4.9903

                      7                      8                      9
                      A                      A                      A
 Frequencies --    190.3699               215.8408               249.0972
 Red. masses --      3.6951                 1.7193                 1.5170
 Frc consts  --      0.0789                 0.0472                 0.0555
 IR Inten    --      0.2569                 1.9063                 2.0522

                     10                     11                     12
                      A                      A                      A
 Frequencies --    251.9572               266.0118               288.2116
 Red. masses --      1.3868                 2.2733                 2.9821
 Frc consts  --      0.0519                 0.0948                 0.1459
 IR Inten    --      2.4522                 1.2450                 6.3409

                     13                     14                     15
                      A                      A                      A
 Frequencies --    316.8299               346.8622               368.5003
 Red. masses --      2.8466                 3.0215                 2.5976
 Frc consts  --      0.1684                 0.2142                 0.2078
 IR Inten    --      8.0907                 0.9370                 6.4466

                     16                     17                     18
                      A                      A                      A
 Frequencies --    379.7123               458.1250               478.4179
 Red. masses --      1.3552                 3.6553                 2.9378
 Frc consts  --      0.1151                 0.4520                 0.3962
 IR Inten    --     17.2166                 2.8157                 7.4271

                     19                     20                     21
                      A                      A                      A
 Frequencies --    494.9462               530.5163               545.4055
 Red. masses --      3.3181                 4.3163                 3.3791
 Frc consts  --      0.4789                 0.7157                 0.5922
 IR Inten    --      9.3832                14.3571                36.1242

                     22                     23                     24
                      A                      A                      A
 Frequencies --    564.8852               586.1372               629.1175
 Red. masses --      4.7173                 2.2161                 3.1715
 Frc consts  --      0.8869                 0.4486                 0.7396
 IR Inten    --      2.7547                52.0126                58.4311

                     25                     26                     27
                      A                      A                      A
 Frequencies --    640.8293               668.2817               703.6752
 Red. masses --      1.9347                 2.3161                 3.3114
 Frc consts  --      0.4681                 0.6094                 0.9661
 IR Inten    --    170.3395                21.5604                17.0079

                     28                     29                     30
                      A                      A                      A
 Frequencies --    720.0992               764.8820               782.2984
 Red. masses --      3.1296                 1.5133                 2.4770
 Frc consts  --      0.9561                 0.5216                 0.8931
 IR Inten    --      4.1600                66.5313                 7.1402

                     31                     32                     33
                      A                      A                      A
 Frequencies --    801.4024               826.5175               863.2751
 Red. masses --      1.7762                 2.9827                 1.6735
 Frc consts  --      0.6721                 1.2005                 0.7348
 IR Inten    --     65.9376                 4.5969                 7.6493

                     34                     35                     36
                      A                      A                      A
 Frequencies --    885.3516               931.6301               950.3694
 Red. masses --      4.2233                 2.4077                 1.1936
 Frc consts  --      1.9504                 1.2312                 0.6352
 IR Inten    --      4.2849                 1.8505                 1.1716

                     37                     38                     39
                      A                      A                      A
 Frequencies --    952.7746               974.5735               983.0379
 Red. masses --      1.3376                 1.2414                 1.4716
 Frc consts  --      0.7154                 0.6947                 0.8379
 IR Inten    --      1.3987                 0.2155                 0.0012

                     40                     41                     42
                      A                      A                      A
 Frequencies --   1061.3218              1077.4715              1092.4707
 Red. masses --      2.3644                 2.9360                 1.8110
 Frc consts  --      1.5691                 2.0083                 1.2735
 IR Inten    --      0.3856                 7.0230                 5.3639

                     43                     44                     45
                      A                      A                      A
 Frequencies --   1129.4297              1136.2734              1169.6764
 Red. masses --      1.6597                 2.3225                 1.2403
 Frc consts  --      1.2474                 1.7668                 0.9998
 IR Inten    --     38.0608                 2.7859                 5.0993

                     46                     47                     48
                      A                      A                      A
 Frequencies --   1195.2066              1209.0716              1243.5480
 Red. masses --      1.1091                 1.9887                 2.6306
 Frc consts  --      0.9335                 1.7129                 2.3968
 IR Inten    --      6.5551                 2.4986                 4.7603

                     49                     50                     51
                      A                      A                      A
 Frequencies --   1288.0953              1317.9772              1348.1022
 Red. masses --      1.7120                 1.7553                 2.2291
 Frc consts  --      1.6736                 1.7965                 2.3868
 IR Inten    --     52.8727                50.8764                33.5668

                     52                     53                     54
                      A                      A                      A
 Frequencies --   1366.1687              1369.6971              1395.4468
 Red. masses --      1.3212                 3.8985                 3.8073
 Frc consts  --      1.4529                 4.3093                 4.3681
 IR Inten    --      1.4924                12.6368               101.1810

                     55                     56                     57
                      A                      A                      A
 Frequencies --   1411.0172              1426.5014              1451.2183
 Red. masses --      1.2727                 1.2172                 1.2775
 Frc consts  --      1.4929                 1.4594                 1.5851
 IR Inten    --      3.4159                 4.8164                14.2888

                     58                     59                     60
                      A                      A                      A
 Frequencies --   1501.1432              1510.4129              1518.4767
 Red. masses --      1.4414                 2.4272                 1.0677
 Frc consts  --      1.9137                 3.2625                 1.4505
 IR Inten    --      7.6385                15.1787                 1.4137

                     61                     62                     63
                      A                      A                      A
 Frequencies --   1527.9621              1533.2597              1545.5539
 Red. masses --      1.0510                 1.0620                 1.0737
 Frc consts  --      1.4457                 1.4710                 1.5112
 IR Inten    --      0.3012                12.2523                24.8391

                     64                     65                     66
                      A                      A                      A
 Frequencies --   1553.1302              1637.9425              1651.3003
 Red. masses --      2.6519                 5.7910                 4.8232
 Frc consts  --      3.7690                 9.1538                 7.7488
 IR Inten    --     64.9698                11.4593               163.6894

                     67                     68                     69
                      A                      A                      A
 Frequencies --   1670.7892              1701.6728              2323.7583
 Red. masses --      2.9025                 1.4194                12.5970
 Frc consts  --      4.7738                 2.4217                40.0775
 IR Inten    --     85.6682               109.4334               113.4560

                     70                     71                     72
                      A                      A                      A
 Frequencies --   3060.2322              3064.0190              3082.7536
 Red. masses --      1.0364                 1.0375                 1.0843
 Frc consts  --      5.7184                 5.7386                 6.0711
 IR Inten    --     25.6297                18.6374                 1.7541

                     73                     74                     75
                      A                      A                      A
 Frequencies --   3122.5724              3127.1172              3152.5947
 Red. masses --      1.1025                 1.1024                 1.1010
 Frc consts  --      6.3337                 6.3515                 6.4474
 IR Inten    --     18.9993                26.5872                 3.1357

                     76                     77                     78
                      A                      A                      A
 Frequencies --   3156.8601              3169.9237              3178.2204
 Red. masses --      1.0998                 1.0873                 1.0875
 Frc consts  --      6.4574                 6.4372                 6.4724
 IR Inten    --     30.8198                10.0408                 9.5502

                     79                     80                     81
                      A                      A                      A
 Frequencies --   3197.0502              3206.2961              3220.9748
 Red. masses --      1.0893                 1.0913                 1.0970
 Frc consts  --      6.5599                 6.6102                 6.7053
 IR Inten    --      8.4430                19.8264                14.9146

                     82                     83                     84
                      A                      A                      A
 Frequencies --   3514.2590              3553.0015              3654.3141
 Red. masses --      1.0738                 1.0482                 1.0987
 Frc consts  --      7.8134                 7.7962                 8.6445
 IR Inten    --     13.9919                31.6254                33.7389

 - Thermochemistry -
 -------------------
 Temperature   298.150 Kelvin.  Pressure   1.00000 Atm.
 Atom     1 has atomic number  6 and mass  12.00000

 Molecular mass:   201.12660 amu.
 Principal axes and moments of inertia in atomic units:
                           1         2         3
     Eigenvalues --  1505.209434750.649205221.69072
           X            0.99998  -0.00595   0.00122
           Y            0.00595   0.99998  -0.00226
           Z           -0.00120   0.00227   1.00000
 This molecule is an asymmetric top.
 Rotational symmetry number  1.
 Warning -- assumption of classical behavior for rotation
           may cause significant error
 Rotational temperatures (Kelvin)      0.05754     0.01823     0.01659
 Rotational constants (GHZ):           1.19900     0.37989     0.34562
 Zero-point vibrational energy     663705.4 (Joules/Mol)
                                  158.62940 (Kcal/Mol)
 Warning -- explicit consideration of  23 degrees of freedom as
           vibrations may cause significant error
 Vibrational temperatures:     54.41    67.14   101.70   125.28   195.26
          (Kelvin)            216.81   273.90   310.55   358.40   362.51
                              382.73   414.67   455.85   499.06   530.19
                              546.32   659.14   688.34   712.12   763.29
                              784.72   812.74   843.32   905.16   922.01
                              961.51  1012.43  1036.06  1100.49  1125.55
                             1153.04  1189.17  1242.06  1273.82  1340.41
                             1367.37  1370.83  1402.19  1414.37  1527.01
                             1550.24  1571.82  1625.00  1634.84  1682.90
                             1719.64  1739.58  1789.19  1853.28  1896.28
                             1939.62  1965.61  1970.69  2007.74  2030.14
                             2052.42  2087.98  2159.81  2173.15  2184.75
                             2198.40  2206.02  2223.71  2234.61  2356.63
                             2375.85  2403.89  2448.33  3343.37  4402.99
                             4408.44  4435.39  4492.69  4499.22  4535.88
                             4542.02  4560.81  4572.75  4599.84  4613.14
                             4634.26  5056.23  5111.98  5257.74

 Zero-point correction=                           0.252792 (Hartree/Particle)
 Thermal correction to Energy=                    0.267668
 Thermal correction to Enthalpy=                  0.268613
 Thermal correction to Gibbs Free Energy=         0.210936
 Sum of electronic and zero-point Energies=           -630.348223
 Sum of electronic and thermal Energies=              -630.333346
 Sum of electronic and thermal Enthalpies=            -630.332402
 Sum of electronic and thermal Free Energies=         -630.390079

                     E (Thermal)             CV                S
                      KCal/Mol        Cal/Mol-Kelvin    Cal/Mol-Kelvin
 Total                  167.965             57.155            121.391
 Electronic               0.000              0.000              0.000
 Translational            0.889              2.981             41.801
 Rotational               0.889              2.981             31.990
 Vibrational            166.187             51.193             47.599
 Vibration     1          0.594              1.982              5.370
 Vibration     2          0.595              1.979              4.954
 Vibration     3          0.598              1.968              4.134
 Vibration     4          0.601              1.958              3.725
 Vibration     5          0.614              1.918              2.863
 Vibration     6          0.618              1.902              2.663
 Vibration     7          0.634              1.853              2.224
 Vibration     8          0.645              1.817              1.994
 Vibration     9          0.662              1.764              1.737
 Vibration    10          0.664              1.759              1.717
 Vibration    11          0.672              1.735              1.622
 Vibration    12          0.685              1.696              1.484
 Vibration    13          0.704              1.641              1.326
 Vibration    14          0.725              1.582              1.180
 Vibration    15          0.741              1.537              1.086
 Vibration    16          0.750              1.513              1.040
 Vibration    17          0.816              1.343              0.772
 Vibration    18          0.835              1.298              0.714
 Vibration    19          0.851              1.261              0.671
 Vibration    20          0.885              1.182              0.586
 Vibration    21          0.901              1.150              0.554
 Vibration    22          0.921              1.107              0.514
 Vibration    23          0.943              1.061              0.474

 Optimization completed.
    -- Stationary point found.
 Normal termination of Gaussian 16 at Thu Dec 10 16:09:48 2020.

 ----------------------------------------------------------------------
 # B3LYP/6-311++G(d,p) empiricaldispersion=gd3bj scf=xqc pop=npa geom=c
 heck
 ----------------------------------------------------------------------

 --------------------------------------
 CID_12553576_JID_5623_Energie_neutraal
 --------------------------------------
 Structure from the checkpoint file:  "JID_5623.chk"
 Charge =  0 Multiplicity = 1

 SCF Done:  E(RB3LYP) =  -630.779923112     A.U. after   16 cycles
 Normal termination of Gaussian 16 at Thu Dec 10 16:15:08 2020.

 ----------------------------------------------------------------------
 # B3LYP/6-311++G(d,p) empiricaldispersion=gd3bj scf=xqc pop=npa geom=c
 heck
 ----------------------------------------------------------------------

 ------------------------------------
 CID_12553576_JID_5623_Energie_kation
 ------------------------------------
 Structure from the checkpoint file:  "JID_5623.chk"
 Charge =  1 Multiplicity = 2

 SCF Done:  E(UB3LYP) =  -630.487336023     A.U. after   24 cycles
 Normal termination of Gaussian 16 at Thu Dec 10 16:26:48 2020.
 Gaussian 16:  ES64L-G16RevA.03 25-Dec-2016

 ----------------------------------------------------------------------
 # B3LYP/6-311++G(d,p) empiricaldispersion=gd3bj scf=xqc pop=npa geom=c
 heck
 ----------------------------------------------------------------------

 -----------------------------------
 CID_12553576_JID_5623_Energie_anion
 -----------------------------------
 Structure from the checkpoint file:  "JID_5623.chk"
 Charge = -1 Multiplicity = 2

                         Standard orientation:
 ---------------------------------------------------------------------
 Center     Atomic      Atomic             Coordinates (Angstroms)
 Number     Number       Type             X           Y           Z
 ---------------------------------------------------------------------
      1          6           0       -0.695958    0.520173    1.917661
      2          6           0       -1.422741    1.003245    0.647275
      3          6           0       -0.979414    2.420692    0.250577
      4          6           0       -1.342640    0.029730   -0.516792
      5          6           0       -2.428369   -0.707242   -0.898720
      6          6           0       -3.706136   -0.591168   -0.298718
      7          7           0       -4.760609   -0.518661    0.195575
      8          7           0       -0.177987   -0.061644   -1.259943
      9          6           0        1.141921   -0.042931   -0.693803
     10          6           0        2.008093    1.012103   -0.971931
     11          6           0        3.302393    1.029627   -0.455433
     12          6           0        3.727137   -0.037176    0.339721
     13          6           0        2.879232   -1.107280    0.608017
     14          6           0        1.574845   -1.136474    0.087895
     15          7           0        0.743524   -2.234271    0.284298
     16          1           0        0.390078    0.541151    1.802469
     17          1           0       -1.000535   -0.496776    2.185958
     18          1           0       -0.960428    1.178589    2.751941
     19          1           0       -2.486308    1.052103    0.899838
     20          1           0        0.100263    2.476512    0.093983
     21          1           0       -1.480099    2.750194   -0.665361
     22          1           0       -1.240306    3.120150    1.052094
     23          1           0       -2.348120   -1.408970   -1.726451
     24          1           0       -0.262792   -0.699567   -2.046932
     25          1           0        1.643217    1.819741   -1.598644
     26          1           0        3.967767    1.859190   -0.670674
     27          1           0        4.730767   -0.039533    0.755547
     28          1           0        3.223928   -1.938377    1.218534
     29          1           0        0.989546   -2.821398    1.070736
     30          1           0       -0.251652   -2.050770    0.242954
 ---------------------------------------------------------------------

 SCF Done:  E(UB3LYP) =  -630.775497041     A.U. after   33 cycles
 SCF Done:  E(UB3LYP) =  -630.775497041     a.u. after    1 cycles

 The electronic state is 2-A.
 Alpha  occ. eigenvalues --  -14.22730 -14.21788 -14.17678 -10.11354 -10.11235
 Alpha  occ. eigenvalues --  -10.09689 -10.08313 -10.08198 -10.07037 -10.06896
 Alpha  occ. eigenvalues --  -10.06597 -10.06551 -10.06446 -10.06255 -10.05874
 Alpha  occ. eigenvalues --   -0.85202  -0.81040  -0.77729  -0.73883  -0.70568
 Alpha  occ. eigenvalues --   -0.66203  -0.63460  -0.61819  -0.58795  -0.53590
 Alpha  occ. eigenvalues --   -0.51364  -0.50584  -0.46898  -0.43848  -0.41756
 Alpha  occ. eigenvalues --   -0.40864  -0.38513  -0.37262  -0.34811  -0.34207
 Alpha  occ. eigenvalues --   -0.33712  -0.33070  -0.32643  -0.31658  -0.29565
 Alpha  occ. eigenvalues --   -0.28262  -0.27275  -0.25850  -0.25460  -0.24528
 Alpha  occ. eigenvalues --   -0.24295  -0.24102  -0.23660  -0.21584  -0.20646
 Alpha  occ. eigenvalues --   -0.20359  -0.15325  -0.11207  -0.11130   0.04275
 Alpha virt. eigenvalues --    0.06467   0.07242   0.07666   0.07950   0.08780
 Alpha virt. eigenvalues --    0.09083   0.09506   0.09990   0.10735   0.11332
 Alpha virt. eigenvalues --    0.11649   0.12081   0.12984   0.13579   0.14092

  Beta  occ. eigenvalues --  -14.22710 -14.21757 -14.17579 -10.11363 -10.10981
  Beta  occ. eigenvalues --  -10.09608 -10.08303 -10.08209 -10.06965 -10.06837
  Beta  occ. eigenvalues --  -10.06614 -10.06506 -10.06389 -10.06244 -10.05831
  Beta  occ. eigenvalues --   -0.85015  -0.80941  -0.77580  -0.73763  -0.70430
  Beta  occ. eigenvalues --   -0.66033  -0.63334  -0.61690  -0.58737  -0.53285
  Beta  occ. eigenvalues --   -0.51213  -0.50512  -0.46774  -0.43736  -0.41668
  Beta  occ. eigenvalues --   -0.40761  -0.38377  -0.37164  -0.34764  -0.34115
  Beta  occ. eigenvalues --   -0.33628  -0.33010  -0.32540  -0.31488  -0.29481
  Beta  occ. eigenvalues --   -0.28145  -0.27138  -0.25694  -0.25314  -0.24387
  Beta  occ. eigenvalues --   -0.24098  -0.23940  -0.23560  -0.21444  -0.20413
  Beta  occ. eigenvalues --   -0.20088  -0.14886  -0.11003  -0.10629
  Beta virt. eigenvalues --    0.06760   0.07609   0.07806   0.07945   0.08547
  Beta virt. eigenvalues --    0.09431   0.09714   0.09765   0.10053   0.11011
  Beta virt. eigenvalues --    0.11485   0.11952   0.11970   0.13017   0.13677

 Mulliken charges and spin densities:
               1          2
     1  C   -0.295310  -0.441687
     2  C   -0.280326   0.728561
     3  C   -0.625503  -0.070103
     4  C    0.328151  -0.939634
     5  C   -0.118778   1.023396
     6  C    0.275670  -0.927704
     7  N   -0.363661   0.070221
     8  N    0.091129  -0.056760
     9  C    0.033978  -0.070951
    10  C   -0.780888   0.653232
    11  C   -0.270174  -0.191196
    12  C    0.851112  -1.031399
    13  C   -0.315680   0.093186
    14  C    0.908377  -0.671114
    15  N   -0.369781   0.046429
    16  H    0.179378  -0.026646
    17  H    0.035283   0.118565
    18  H   -0.012083   0.156559
    19  H    0.171621   0.044168
    20  H    0.154068  -0.013070
    21  H    0.079586   0.072242
    22  H    0.125219  -0.001437
    23  H   -0.204651   0.374154
    24  H   -0.001444   0.308359
    25  H   -0.057768   0.217626
    26  H    0.052473   0.092232
    27  H   -0.058234   0.204914
    28  H   -0.785839   0.941089
    29  H   -0.044853   0.308377
    30  H    0.298927  -0.011610
 Sum of Mulliken charges =  -1.00000   1.00000

 Dipole moment (field-independent basis, Debye):
    X=              2.6929    Y=              3.5320    Z=             -0.1990  Tot=              4.4459
 Quadrupole moment (field-independent basis, Debye-Ang):
   XX=           -174.4396   YY=           -116.9593   ZZ=           -120.0930
   XY=              4.3020   XZ=             -2.6575   YZ=              4.0945

 Summary of Natural Population Analysis:

                                       Natural Population
                Natural  -----------------------------------------------
    Atom  No    Charge         Core      Valence    Rydberg      Total
 -----------------------------------------------------------------------
      C    1   -0.28087      0.99964     2.27497    0.00626     3.28087
      C    2   -0.13474      0.99956     2.12693    0.00825     3.13474
      C    3   -0.27962      0.99965     2.27497    0.00501     3.27962
      C    4    0.18441      0.99947     1.80193    0.01420     2.81559
      C    5   -0.22936      0.99938     2.22129    0.00869     3.22936
      C    6    0.14419      0.99966     1.83858    0.01758     2.85581
      N    7   -0.20304      0.99979     2.69232    0.01093     3.70304
      N    8   -0.31444      0.99965     2.80031    0.01448     3.81444
      C    9    0.05273      0.99940     1.93480    0.01306     2.94727
      C   10   -0.08546      0.99951     2.07623    0.00972     3.08546
      C   11   -0.12934      0.99956     2.12024    0.00954     3.12934
      C   12   -0.08242      0.99957     2.07237    0.01047     3.08242
      C   13   -0.11912      0.99952     2.10933    0.01027     3.11912
      C   14    0.08328      0.99944     1.90548    0.01180     2.91672
      N   15   -0.39585      0.99971     2.88689    0.00926     3.89585
      H   16    0.10375      0.00000     0.39515    0.00109     0.39625
      H   17    0.10081      0.00000     0.39810    0.00109     0.39919
      H   18    0.09722      0.00000     0.40210    0.00068     0.40278
      H   19    0.10839      0.00000     0.38973    0.00189     0.39161
      H   20    0.10235      0.00000     0.39666    0.00099     0.39765
      H   21    0.10068      0.00000     0.39863    0.00069     0.39932
      H   22    0.09490      0.00000     0.40438    0.00072     0.40510
      H   23    0.10952      0.00000     0.38900    0.00148     0.39048
      H   24    0.19037      0.00000     0.30544    0.00419     0.30963
      H   25    0.10414      0.00000     0.39485    0.00101     0.39586
      H   26    0.09763      0.00000     0.40161    0.00077     0.40237
      H   27    0.09763      0.00000     0.40153    0.00084     0.40237
      H   28    0.10034      0.00000     0.39741    0.00225     0.39966
      H   29    0.18726      0.00000     0.31049    0.00225     0.31274
      H   30    0.19463      0.00000     0.30296    0.00240     0.30537
 =======================================================================
   * Total *   -0.00000     14.99350    38.82466    0.18184    54.00000

 Normal termination of Gaussian 16 at Thu Dec 10 16:43:14 2020.
