 Gaussian 16, Revision A.03,

 -----------------------------------------------------------
 # opt freq B3LYP/6-31G(d) empiricaldispersion=gd3bj scf=xqc
 -----------------------------------------------------------

 -------------------------------
 CID_130251836_JID_1341_neutraal
 -------------------------------
 Symbolic Z-matrix:
 Charge =  0 Multiplicity = 1

 SCF Done:  E(RB3LYP) =  -527.691300445     A.U. after   15 cycles
 SCF Done:  E(RB3LYP) =  -527.694392667     A.U. after   12 cycles
 SCF Done:  E(RB3LYP) =  -527.694594370     A.U. after   11 cycles
 SCF Done:  E(RB3LYP) =  -527.694589852     A.U. after   11 cycles
 SCF Done:  E(RB3LYP) =  -527.694683542     A.U. after   11 cycles
 SCF Done:  E(RB3LYP) =  -527.694713855     A.U. after   11 cycles
 SCF Done:  E(RB3LYP) =  -527.694743271     A.U. after   11 cycles
 SCF Done:  E(RB3LYP) =  -527.694760880     A.U. after   10 cycles
 SCF Done:  E(RB3LYP) =  -527.694779119     A.U. after   10 cycles
 SCF Done:  E(RB3LYP) =  -527.694786420     A.U. after    9 cycles
 SCF Done:  E(RB3LYP) =  -527.695703931     A.U. after   10 cycles
 SCF Done:  E(RB3LYP) =  -527.695716263     A.U. after   10 cycles
 SCF Done:  E(RB3LYP) =  -527.695734430     A.U. after   10 cycles
 SCF Done:  E(RB3LYP) =  -527.695739551     A.U. after    9 cycles
 SCF Done:  E(RB3LYP) =  -527.695739640     A.U. after    7 cycles
 Optimization completed.
    -- Stationary point found.
 Normal termination of Gaussian 16 at Tue Dec  8 19:57:33 2020.

 --------------------------------------------------------------------
 #N Geom=AllCheck Guess=TCheck SCRF=Check GenChk RB3LYP/6-31G(d) Freq
 --------------------------------------------------------------------

 Structure from the checkpoint file:  "JID_1341.chk"
 -------------------------------
 CID_130251836_JID_1341_neutraal
 -------------------------------
 Charge =  0 Multiplicity = 1

 SCF Done:  E(RB3LYP) =  -527.695739640     A.U. after    1 cycles

  Exact polarizability: 100.907   1.069 100.079  -0.001   0.001  49.188
 Approx polarizability: 147.238  -8.870 166.436  -0.001   0.006  75.694

                      1                      2                      3
                      A                      A                      A
 Frequencies --     54.3014                89.2976               100.3866
 Red. masses --      3.3844                 1.3374                 2.9420
 Frc consts  --      0.0059                 0.0063                 0.0175
 IR Inten    --      9.7738                 0.0402                 0.3100

                      4                      5                      6
                      A                      A                      A
 Frequencies --    151.7364               213.3594               239.0126
 Red. masses --      2.2243                 3.4993                 3.2847
 Frc consts  --      0.0302                 0.0939                 0.1106
 IR Inten    --     10.3043                 3.3185                 0.0472

                      7                      8                      9
                      A                      A                      A
 Frequencies --    288.5706               416.8699               430.2297
 Red. masses --      3.8036                 7.2254                10.1660
 Frc consts  --      0.1866                 0.7398                 1.1087
 IR Inten    --      0.2912                15.5359                 1.0404

                     10                     11                     12
                      A                      A                      A
 Frequencies --    476.0479               513.0857               599.1575
 Red. masses --      5.0652                 1.6656                 4.3223
 Frc consts  --      0.6763                 0.2584                 0.9142
 IR Inten    --      1.0061                20.3081                10.3658

                     13                     14                     15
                      A                      A                      A
 Frequencies --    640.2105               671.8132               700.6206
 Red. masses --      2.3873                 2.5226                 8.2168
 Frc consts  --      0.5765                 0.6708                 2.3764
 IR Inten    --     34.4862                57.7288                 0.5350

                     16                     17                     18
                      A                      A                      A
 Frequencies --    710.7639               746.4073               821.3754
 Red. masses --      5.7840                 5.7279                 3.2315
 Frc consts  --      1.7216                 1.8802                 1.2845
 IR Inten    --      3.4670                 8.0509                 1.2537

                     19                     20                     21
                      A                      A                      A
 Frequencies --    898.9261               981.6782              1017.9194
 Red. masses --      5.4727                 2.2058                 2.7021
 Frc consts  --      2.6055                 1.2525                 1.6496
 IR Inten    --     10.1456                 2.5243                30.1461

                     22                     23                     24
                      A                      A                      A
 Frequencies --   1038.7072              1090.1009              1123.4508
 Red. masses --      1.6513                 2.6670                 5.3130
 Frc consts  --      1.0497                 1.8673                 3.9510
 IR Inten    --      1.7601                38.0677                 1.9056

                     25                     26                     27
                      A                      A                      A
 Frequencies --   1159.5349              1220.2632              1222.3930
 Red. masses --      1.3038                 1.1188                 2.3149
 Frc consts  --      1.0328                 0.9815                 2.0380
 IR Inten    --      0.1093                 1.0119                 4.6788

                     28                     29                     30
                      A                      A                      A
 Frequencies --   1240.1881              1270.8315              1307.7065
 Red. masses --      1.0724                 3.8550                 2.9174
 Frc consts  --      0.9719                 3.6681                 2.9395
 IR Inten    --      0.6229                27.4131                 0.4112

                     31                     32                     33
                      A                      A                      A
 Frequencies --   1317.8335              1344.8108              1403.2580
 Red. masses --      4.3822                 2.6830                 2.1426
 Frc consts  --      4.4840                 2.8588                 2.4858
 IR Inten    --     67.5884                 5.4218                77.4134

                     34                     35                     36
                      A                      A                      A
 Frequencies --   1433.7949              1466.3808              1488.5166
 Red. masses --      4.2758                 1.2667                 1.1340
 Frc consts  --      5.1790                 1.6048                 1.4804
 IR Inten    --     40.1694                 0.0064                 4.6855

                     37                     38                     39
                      A                      A                      A
 Frequencies --   1510.5150              1512.4960              1527.3555
 Red. masses --      2.0129                 1.0417                 1.1815
 Frc consts  --      2.7060                 1.4040                 1.6240
 IR Inten    --     27.4119                11.1980                 6.9863

                     40                     41                     42
                      A                      A                      A
 Frequencies --   1546.5900              1553.0754              1663.6116
 Red. masses --      1.3143                 2.3815                 8.2630
 Frc consts  --      1.8522                 3.3844                13.4739
 IR Inten    --      0.3330                38.8046                 3.6708

                     43                     44                     45
                      A                      A                      A
 Frequencies --   1797.8858              3027.9919              3050.3579
 Red. masses --      8.2617                 1.0573                 1.0600
 Frc consts  --     15.7342                 5.7115                 5.8108
 IR Inten    --    390.1517                45.6652                12.4780

                     46                     47                     48
                      A                      A                      A
 Frequencies --   3051.3164              3068.9574              3079.8229
 Red. masses --      1.1069                 1.0344                 1.1020
 Frc consts  --      6.0721                 5.7401                 6.1585
 IR Inten    --     23.9704                30.7907                 4.9826

                     49                     50                     51
                      A                      A                      A
 Frequencies --   3132.7107              3186.0303              3601.8361
 Red. masses --      1.1064                 1.1020                 1.0759
 Frc consts  --      6.3976                 6.5904                 8.2239
 IR Inten    --     14.3746                 1.0943                26.7215

 - Thermochemistry -
 -------------------
 Temperature   298.150 Kelvin.  Pressure   1.00000 Atm.
 Atom     1 has atomic number  6 and mass  12.00000

 Molecular mass:   152.06981 amu.
 Principal axes and moments of inertia in atomic units:
                           1         2         3
     Eigenvalues --   829.377852005.166612800.79341
           X            0.99776   0.06687  -0.00000
           Y           -0.06687   0.99776  -0.00001
           Z            0.00000   0.00001   1.00000
 This molecule is an asymmetric top.
 Rotational symmetry number  1.
 Warning -- assumption of classical behavior for rotation
           may cause significant error
 Rotational temperatures (Kelvin)      0.10443     0.04320     0.03092
 Rotational constants (GHZ):           2.17602     0.90005     0.64437
 Zero-point vibrational energy     395964.5 (Joules/Mol)
                                   94.63778 (Kcal/Mol)
 Warning -- explicit consideration of  12 degrees of freedom as
           vibrations may cause significant error
 Vibrational temperatures:     78.13   128.48   144.43   218.31   306.98
          (Kelvin)            343.89   415.19   599.78   619.00   684.93
                              738.22   862.05   921.12   966.59  1008.04
                             1022.63  1073.91  1181.78  1293.35  1412.42
                             1464.56  1494.47  1568.41  1616.40  1668.31
                             1755.69  1758.75  1784.35  1828.44  1881.50
                             1896.07  1934.88  2018.98  2062.91  2109.79
                             2141.64  2173.29  2176.14  2197.52  2225.20
                             2234.53  2393.57  2586.76  4356.61  4388.78
                             4390.16  4415.55  4431.18  4507.27  4583.99
                             5182.24

 Zero-point correction=                           0.150815 (Hartree/Particle)
 Thermal correction to Energy=                    0.160290
 Thermal correction to Enthalpy=                  0.161235
 Thermal correction to Gibbs Free Energy=         0.115209
 Sum of electronic and zero-point Energies=           -527.544925
 Sum of electronic and thermal Energies=              -527.535449
 Sum of electronic and thermal Enthalpies=            -527.534505
 Sum of electronic and thermal Free Energies=         -527.580531

                     E (Thermal)             CV                S
                      KCal/Mol        Cal/Mol-Kelvin    Cal/Mol-Kelvin
 Total                  100.584             34.544             96.869
 Electronic               0.000              0.000              0.000
 Translational            0.889              2.981             40.967
 Rotational               0.889              2.981             29.922
 Vibrational             98.806             28.582             25.979
 Vibration     1          0.596              1.976              4.654
 Vibration     2          0.602              1.957              3.675
 Vibration     3          0.604              1.949              3.447
 Vibration     4          0.619              1.901              2.650
 Vibration     5          0.644              1.821              2.015
 Vibration     6          0.657              1.781              1.810
 Vibration     7          0.685              1.695              1.482
 Vibration     8          0.780              1.434              0.903
 Vibration     9          0.791              1.404              0.858
 Vibration    10          0.833              1.303              0.721
 Vibration    11          0.868              1.221              0.626
 Vibration    12          0.957              1.034              0.451

 Optimization completed.
    -- Stationary point found.
 Normal termination of Gaussian 16 at Tue Dec  8 20:01:25 2020.

 ----------------------------------------------------------------------
 # B3LYP/6-311++G(d,p) empiricaldispersion=gd3bj scf=xqc pop=npa geom=c
 heck
 ----------------------------------------------------------------------

 ---------------------------------------
 CID_130251836_JID_1341_Energie_neutraal
 ---------------------------------------
 Structure from the checkpoint file:  "JID_1341.chk"
 Charge =  0 Multiplicity = 1

 SCF Done:  E(RB3LYP) =  -527.843610332     A.U. after   15 cycles
 Normal termination of Gaussian 16 at Tue Dec  8 20:03:14 2020.

 ----------------------------------------------------------------------
 # B3LYP/6-311++G(d,p) empiricaldispersion=gd3bj scf=xqc pop=npa geom=c
 heck
 ----------------------------------------------------------------------

 -------------------------------------
 CID_130251836_JID_1341_Energie_kation
 -------------------------------------
 Structure from the checkpoint file:  "JID_1341.chk"
 Charge =  1 Multiplicity = 2

 SCF Done:  E(UB3LYP) =  -527.507723209     A.U. after   33 cycles
 SCF Done:  E(UB3LYP) =  -527.507723209     a.u. after    1 cycles
 Normal termination of Gaussian 16 at Tue Dec  8 20:07:58 2020.
 Gaussian 16:  ES64L-G16RevA.03 25-Dec-2016

 ----------------------------------------------------------------------
 # B3LYP/6-311++G(d,p) empiricaldispersion=gd3bj scf=xqc pop=npa geom=c
 heck
 ----------------------------------------------------------------------

 ------------------------------------
 CID_130251836_JID_1341_Energie_anion
 ------------------------------------
 Structure from the checkpoint file:  "JID_1341.chk"
 Charge = -1 Multiplicity = 2

                         Standard orientation:
 ---------------------------------------------------------------------
 Center     Atomic      Atomic             Coordinates (Angstroms)
 Number     Number       Type             X           Y           Z
 ---------------------------------------------------------------------
      1          6           0       -2.551408   -1.671094    0.000040
      2          7           0       -1.787832   -0.439367   -0.000168
      3          6           0       -0.441840   -0.260893   -0.000163
      4          6           0       -0.286787    1.101511    0.000044
      5          6           0        1.038725    1.780215   -0.000069
      6          7           0        2.101018    0.772040    0.000005
      7          6           0        2.035548   -0.595875    0.000006
      8          8           0        3.045269   -1.285564    0.000036
      9          6           0        0.652844   -1.263190    0.000024
     10          7           0       -1.511447    1.696462    0.000136
     11          7           0       -2.425345    0.762668    0.000036
     12          1           0       -3.605828   -1.394275   -0.000201
     13          1           0       -2.326943   -2.262638    0.892849
     14          1           0       -2.326626   -2.263052   -0.892406
     15          1           0        1.143102    2.426195    0.882345
     16          1           0        1.143014    2.425942   -0.882688
     17          1           0        3.055293    1.110323    0.000095
     18          1           0        0.619346   -1.922520   -0.876665
     19          1           0        0.619228   -1.922127    0.877014
 ---------------------------------------------------------------------

 SCF Done:  E(UB3LYP) =  -527.835952814     A.U. after   27 cycles

 The electronic state is 2-A.
 Alpha  occ. eigenvalues --  -18.99156 -14.30535 -14.27019 -14.24757 -14.23622
 Alpha  occ. eigenvalues --  -10.18538 -10.12958 -10.12243 -10.11577 -10.10278
 Alpha  occ. eigenvalues --  -10.10185  -0.99852  -0.94531  -0.83732  -0.82211
 Alpha  occ. eigenvalues --   -0.73227  -0.67101  -0.63689  -0.61077  -0.53641
 Alpha  occ. eigenvalues --   -0.49690  -0.46766  -0.42452  -0.40761  -0.40683
 Alpha  occ. eigenvalues --   -0.37292  -0.36843  -0.34976  -0.34944  -0.32043
 Alpha  occ. eigenvalues --   -0.31578  -0.31239  -0.30022  -0.27482  -0.23642
 Alpha  occ. eigenvalues --   -0.19269  -0.18197  -0.16533  -0.16344  -0.15303
 Alpha  occ. eigenvalues --    0.04095
 Alpha virt. eigenvalues --    0.06021   0.08270   0.08640   0.09024   0.09748
 Alpha virt. eigenvalues --    0.09798   0.11246   0.11300   0.12755   0.12928
 Alpha virt. eigenvalues --    0.14167   0.14605   0.15027   0.16426   0.17282

  Beta  occ. eigenvalues --  -18.99152 -14.30534 -14.27015 -14.24727 -14.23617
  Beta  occ. eigenvalues --  -10.18538 -10.12928 -10.12237 -10.11494 -10.10279
  Beta  occ. eigenvalues --  -10.10138  -0.99841  -0.94519  -0.83691  -0.82193
  Beta  occ. eigenvalues --   -0.73195  -0.67049  -0.63600  -0.61021  -0.53609
  Beta  occ. eigenvalues --   -0.49629  -0.46708  -0.42395  -0.40685  -0.40645
  Beta  occ. eigenvalues --   -0.37250  -0.36800  -0.34922  -0.34905  -0.31970
  Beta  occ. eigenvalues --   -0.31528  -0.31201  -0.29982  -0.27458  -0.23613
  Beta  occ. eigenvalues --   -0.19245  -0.18177  -0.16513  -0.16329  -0.15283
  Beta virt. eigenvalues --    0.06821   0.07621   0.08441   0.09485   0.09679
  Beta virt. eigenvalues --    0.10198   0.10448   0.11816   0.11849   0.13158
  Beta virt. eigenvalues --    0.13191   0.14500   0.14709   0.15020   0.16670

 Mulliken charges and spin densities:
               1          2
     1  C    1.705640  -1.981002
     2  N   -0.189812   0.328612
     3  C   -0.218745   0.099063
     4  C   -0.079333  -0.257865
     5  C    0.525493  -0.820224
     6  N   -0.382017   0.143560
     7  C   -1.044831   1.013794
     8  O   -0.375162   0.026894
     9  C    2.135185  -2.132866
    10  N   -0.160949  -0.070046
    11  N   -0.147007   0.195070
    12  H   -0.155441   0.324850
    13  H   -0.704971   0.889587
    14  H   -0.705013   0.889601
    15  H   -0.292686   0.487860
    16  H   -0.292941   0.488155
    17  H   -0.291466   0.612443
    18  H   -0.162971   0.381243
    19  H   -0.162973   0.381271
 Sum of Mulliken charges =  -1.00000   1.00000

 Dipole moment (field-independent basis, Debye):
    X=              0.2535    Y=              2.7526    Z=             -0.0006  Tot=              2.7643
 Quadrupole moment (field-independent basis, Debye-Ang):
   XX=           -124.2313   YY=           -116.1331   ZZ=            -89.4030
   XY=             -5.1329   XZ=              0.0019   YZ=              0.0017

 Summary of Natural Population Analysis:

                                       Natural Population
                Natural  -----------------------------------------------
    Atom  No    Charge         Core      Valence    Rydberg      Total
 -----------------------------------------------------------------------
      C    1   -0.17705      0.99963     2.16910    0.00832     3.17705
      N    2   -0.10048      0.99962     2.58733    0.01353     3.60048
      C    3    0.07249      0.99942     1.91631    0.01178     2.92751
      C    4    0.03764      0.99945     1.95001    0.01290     2.96236
      C    5   -0.08906      0.99958     2.07819    0.01129     3.08906
      N    6   -0.31355      0.99968     2.80442    0.00945     3.81355
      C    7    0.35066      0.99968     1.62814    0.02153     2.64934
      O    8   -0.32495      0.99988     3.31859    0.00648     4.32495
      C    9   -0.24481      0.99957     2.23654    0.00870     3.24481
      N   10   -0.13977      0.99971     2.62544    0.01462     3.63977
      N   11   -0.04468      0.99978     2.52969    0.01521     3.54468
      H   12    0.11086      0.00000     0.38711    0.00202     0.38914
      H   13    0.10569      0.00000     0.39039    0.00391     0.39431
      H   14    0.10569      0.00000     0.39039    0.00391     0.39431
      H   15    0.10260      0.00000     0.39551    0.00189     0.39740
      H   16    0.10260      0.00000     0.39551    0.00189     0.39740
      H   17    0.19954      0.00000     0.29482    0.00564     0.30046
      H   18    0.12329      0.00000     0.37498    0.00173     0.37671
      H   19    0.12329      0.00000     0.37498    0.00173     0.37671
 =======================================================================
   * Total *    0.00000     10.99600    28.84747    0.15652    40.00000

 Normal termination of Gaussian 16 at Tue Dec  8 20:12:13 2020.
