 Gaussian 16, Revision A.03,

 -----------------------------------------------------------
 # opt freq B3LYP/6-31G(d) empiricaldispersion=gd3bj scf=xqc
 -----------------------------------------------------------

 ------------------------------
 CID_153825907_JID_248_neutraal
 ------------------------------
 Symbolic Z-matrix:
 Charge =  0 Multiplicity = 1

 SCF Done:  E(RB3LYP) =  -547.895085909     A.U. after   15 cycles
 SCF Done:  E(RB3LYP) =  -547.900648879     A.U. after   13 cycles
 SCF Done:  E(RB3LYP) =  -547.901772349     A.U. after   13 cycles
 SCF Done:  E(RB3LYP) =  -547.901865736     A.U. after   10 cycles
 SCF Done:  E(RB3LYP) =  -547.901875686     A.U. after   10 cycles
 SCF Done:  E(RB3LYP) =  -547.901873345     A.U. after   10 cycles
 SCF Done:  E(RB3LYP) =  -547.901878502     A.U. after   10 cycles
 Optimization completed.
    -- Stationary point found.
 Normal termination of Gaussian 16 at Tue Dec  8 10:18:49 2020.

 --------------------------------------------------------------------
 #N Geom=AllCheck Guess=TCheck SCRF=Check GenChk RB3LYP/6-31G(d) Freq
 --------------------------------------------------------------------

 Structure from the checkpoint file:  "JID_248.chk"
 ------------------------------
 CID_153825907_JID_248_neutraal
 ------------------------------
 Charge =  0 Multiplicity = 1

 SCF Done:  E(RB3LYP) =  -547.901878502     A.U. after    1 cycles

  Exact polarizability: 126.636   1.897  68.791   0.000  -0.002  28.067
 Approx polarizability: 221.571   4.795 131.211  -0.004  -0.006  43.355

                      1                      2                      3
                      A                      A                      A
 Frequencies --     71.1012               104.6765               142.2558
 Red. masses --      8.4089                11.5428                10.1481
 Frc consts  --      0.0250                 0.0745                 0.1210
 IR Inten    --      0.1538                 0.0034                 0.5142

                      4                      5                      6
                      A                      A                      A
 Frequencies --    222.4283               265.9647               282.6472
 Red. masses --      7.7009                 7.4265                 7.1138
 Frc consts  --      0.2245                 0.3095                 0.3348
 IR Inten    --      1.3491                 2.9524                 0.4432

                      7                      8                      9
                      A                      A                      A
 Frequencies --    362.7488               490.6987               554.8557
 Red. masses --      9.8009                 8.5481                 1.5552
 Frc consts  --      0.7598                 1.2127                 0.2821
 IR Inten    --      5.3972                 4.6683                47.0023

                     10                     11                     12
                      A                      A                      A
 Frequencies --    585.6363               635.6112               654.9927
 Red. masses --      7.5100                 2.9296                 3.9088
 Frc consts  --      1.5176                 0.6973                 0.9880
 IR Inten    --     15.7786                20.1812                51.2161

                     13                     14                     15
                      A                      A                      A
 Frequencies --    707.9779               764.5850               766.5042
 Red. masses --      4.4267                 8.3147                 5.6309
 Frc consts  --      1.3073                 2.8638                 1.9492
 IR Inten    --     52.6579                61.6592                37.7561

                     16                     17                     18
                      A                      A                      A
 Frequencies --    840.9437               923.3740               974.9907
 Red. masses --      1.3371                 1.3608                 5.2153
 Frc consts  --      0.5571                 0.6836                 2.9210
 IR Inten    --     29.4652                 0.2601                 0.5130

                     19                     20                     21
                      A                      A                      A
 Frequencies --   1001.5250              1051.0054              1158.2364
 Red. masses --      6.6002                 1.2690                 3.7562
 Frc consts  --      3.9006                 0.8259                 2.9689
 IR Inten    --     16.4156                38.6182               137.5089

                     22                     23                     24
                      A                      A                      A
 Frequencies --   1191.5205              1264.1462              1303.3198
 Red. masses --      2.1389                 3.1029                 3.3043
 Frc consts  --      1.7891                 2.9216                 3.3070
 IR Inten    --    496.8701                14.7193                 5.5297

                     25                     26                     27
                      A                      A                      A
 Frequencies --   1380.8355              1434.6641              1490.6530
 Red. masses --      3.3243                 5.4820                 7.1343
 Frc consts  --      3.7345                 6.6480                 9.3402
 IR Inten    --    266.5473                48.9220                13.9443

                     28                     29                     30
                      A                      A                      A
 Frequencies --   1574.9277              1619.5335              1844.0582
 Red. masses --      7.8108                 9.0163                10.3951
 Frc consts  --     11.4148                13.9334                20.8271
 IR Inten    --    122.8592                13.8873               318.7915

                     31                     32                     33
                      A                      A                      A
 Frequencies --   3288.8222              3301.2089              3699.9726
 Red. masses --      1.0938                 1.1014                 1.0643
 Frc consts  --      6.9704                 7.0719                 8.5842
 IR Inten    --      0.1233                 2.2366               107.7688

 - Thermochemistry -
 -------------------
 Temperature   298.150 Kelvin.  Pressure   1.00000 Atm.
 Atom     1 has atomic number  6 and mass  12.00000

 Molecular mass:   141.00621 amu.
 Principal axes and moments of inertia in atomic units:
                           1         2         3
     Eigenvalues --   432.183642368.173192800.35675
           X            1.00000  -0.00166   0.00001
           Y            0.00166   1.00000  -0.00001
           Z           -0.00001   0.00001   1.00000
 This molecule is an asymmetric top.
 Rotational symmetry number  1.
 Rotational temperatures (Kelvin)      0.20041     0.03657     0.03093
 Rotational constants (GHZ):           4.17587     0.76208     0.64447
 Zero-point vibrational energy     215067.2 (Joules/Mol)
                                   51.40229 (Kcal/Mol)
 Warning -- explicit consideration of  10 degrees of freedom as
           vibrations may cause significant error
 Vibrational temperatures:    102.30   150.61   204.67   320.02   382.66
          (Kelvin)            406.67   521.91   706.01   798.31   842.60
                              914.50   942.39  1018.62  1100.07  1102.83
                             1209.93  1328.53  1402.79  1440.97  1512.16
                             1666.44  1714.33  1818.82  1875.19  1986.71
                             2064.16  2144.72  2265.97  2330.15  2653.19
                             4731.88  4749.70  5323.44

 Zero-point correction=                           0.081915 (Hartree/Particle)
 Thermal correction to Energy=                    0.090161
 Thermal correction to Enthalpy=                  0.091105
 Thermal correction to Gibbs Free Energy=         0.048038
 Sum of electronic and zero-point Energies=           -547.819964
 Sum of electronic and thermal Energies=              -547.811717
 Sum of electronic and thermal Enthalpies=            -547.810773
 Sum of electronic and thermal Free Energies=         -547.853841

                     E (Thermal)             CV                S
                      KCal/Mol        Cal/Mol-Kelvin    Cal/Mol-Kelvin
 Total                   56.577             29.483             90.644
 Electronic               0.000              0.000              0.000
 Translational            0.889              2.981             40.742
 Rotational               0.889              2.981             29.440
 Vibrational             54.800             23.521             20.462
 Vibration     1          0.598              1.968              4.123
 Vibration     2          0.605              1.945              3.365
 Vibration     3          0.616              1.911              2.773
 Vibration     4          0.648              1.807              1.939
 Vibration     5          0.672              1.735              1.622
 Vibration     6          0.682              1.706              1.518
 Vibration     7          0.737              1.549              1.110
 Vibration     8          0.846              1.271              0.682
 Vibration     9          0.910              1.129              0.534
 Vibration    10          0.943              1.062              0.475

 Optimization completed.
    -- Stationary point found.
 Normal termination of Gaussian 16 at Tue Dec  8 10:20:39 2020.

 ----------------------------------------------------------------------
 # B3LYP/6-311++G(d,p) empiricaldispersion=gd3bj scf=xqc pop=npa geom=c
 heck
 ----------------------------------------------------------------------

 --------------------------------------
 CID_153825907_JID_248_Energie_neutraal
 --------------------------------------
 Structure from the checkpoint file:  "JID_248.chk"
 Charge =  0 Multiplicity = 1

 SCF Done:  E(RB3LYP) =  -548.068610025     A.U. after   15 cycles
 Normal termination of Gaussian 16 at Tue Dec  8 10:21:16 2020.

 ----------------------------------------------------------------------
 # B3LYP/6-311++G(d,p) empiricaldispersion=gd3bj scf=xqc pop=npa geom=c
 heck
 ----------------------------------------------------------------------

 ------------------------------------
 CID_153825907_JID_248_Energie_kation
 ------------------------------------
 Structure from the checkpoint file:  "JID_248.chk"
 Charge =  1 Multiplicity = 2

 SCF Done:  E(UB3LYP) =  -547.738106599     A.U. after   25 cycles
 Normal termination of Gaussian 16 at Tue Dec  8 10:22:47 2020.
 Gaussian 16:  ES64L-G16RevA.03 25-Dec-2016

 ----------------------------------------------------------------------
 # B3LYP/6-311++G(d,p) empiricaldispersion=gd3bj scf=xqc pop=npa geom=c
 heck
 ----------------------------------------------------------------------

 -----------------------------------
 CID_153825907_JID_248_Energie_anion
 -----------------------------------
 Structure from the checkpoint file:  "JID_248.chk"
 Charge = -1 Multiplicity = 2

                         Standard orientation:
 ---------------------------------------------------------------------
 Center     Atomic      Atomic             Coordinates (Angstroms)
 Number     Number       Type             X           Y           Z
 ---------------------------------------------------------------------
      1          6           0        0.208938    1.454383   -0.000243
      2          6           0        0.736702    0.177973   -0.000232
      3          8           0       -0.248384   -0.747148   -0.000093
      4          6           0       -1.424996   -0.061973   -0.000010
      5          6           0       -1.193842    1.300953   -0.000108
      6          7           0       -2.568124   -0.866837    0.000175
      7          8           0       -3.613937   -0.217483    0.000201
      8          6           0        2.119332   -0.323804   -0.000492
      9          8           0        2.439833   -1.489783   -0.000057
     10          8           0        2.996707    0.709485    0.000543
     11          1           0        0.780083    2.370994   -0.000332
     12          1           0       -1.959901    2.061784   -0.000079
     13          1           0        3.886134    0.309314    0.000946
 ---------------------------------------------------------------------

 SCF Done:  E(UB3LYP) =  -548.137149717     A.U. after   24 cycles

 The electronic state is 2-A.
 Alpha  occ. eigenvalues --  -19.05093 -19.03909 -18.97841 -18.94227 -14.19157
 Alpha  occ. eigenvalues --  -10.17065 -10.08918 -10.08609 -10.05051 -10.03088
 Alpha  occ. eigenvalues --   -0.99054  -0.97674  -0.93259  -0.89435  -0.67220
 Alpha  occ. eigenvalues --   -0.64738  -0.56939  -0.49242  -0.46793  -0.41895
 Alpha  occ. eigenvalues --   -0.38343  -0.36175  -0.34439  -0.32287  -0.31101
 Alpha  occ. eigenvalues --   -0.29897  -0.28273  -0.27278  -0.25365  -0.24372
 Alpha  occ. eigenvalues --   -0.21100  -0.20736  -0.15847  -0.15615  -0.10483
 Alpha  occ. eigenvalues --   -0.03354   0.00370
 Alpha virt. eigenvalues --    0.08058   0.09909   0.10238   0.12550   0.15166
 Alpha virt. eigenvalues --    0.15698   0.16446   0.17924   0.18766   0.19138
 Alpha virt. eigenvalues --    0.20051   0.20615   0.20650   0.21345   0.22142

  Beta  occ. eigenvalues --  -19.05049 -19.03600 -18.97685 -18.93174 -14.18609
  Beta  occ. eigenvalues --  -10.16977 -10.08879 -10.08453 -10.05125 -10.02982
  Beta  occ. eigenvalues --   -0.98818  -0.97246  -0.91583  -0.89198  -0.67053
  Beta  occ. eigenvalues --   -0.64004  -0.55908  -0.48782  -0.46537  -0.41704
  Beta  occ. eigenvalues --   -0.37869  -0.35971  -0.33538  -0.31742  -0.30036
  Beta  occ. eigenvalues --   -0.29747  -0.27698  -0.27152  -0.24044  -0.21187
  Beta  occ. eigenvalues --   -0.20327  -0.19924  -0.15681  -0.14843  -0.08338
  Beta  occ. eigenvalues --   -0.02357
  Beta virt. eigenvalues --    0.08063   0.08109   0.10227   0.12200   0.12537
  Beta virt. eigenvalues --    0.15187   0.15724   0.16463   0.17946   0.19161
  Beta virt. eigenvalues --    0.19204   0.20051   0.20647   0.20870   0.22171

 Mulliken charges and spin densities:
               1          2
     1  C   -0.371993  -0.044166
     2  C   -0.099706   0.112756
     3  O   -0.072135   0.070490
     4  C   -0.198533   0.018942
     5  C    0.159314   0.109031
     6  N   -0.349518   0.260733
     7  O   -0.248468   0.361220
     8  C    0.189211   0.052867
     9  O   -0.361691   0.054943
    10  O   -0.218533   0.008624
    11  H    0.151331   0.004227
    12  H    0.154099  -0.008975
    13  H    0.266622  -0.000692
 Sum of Mulliken charges =  -1.00000   1.00000

 Dipole moment (field-independent basis, Debye):
    X=              7.0522    Y=              4.3308    Z=             -0.0004  Tot=              8.2758
 Quadrupole moment (field-independent basis, Debye-Ang):
   XX=            -94.5611   YY=            -69.1074   ZZ=            -59.8514
   XY=             -0.6809   XZ=              0.0040   YZ=             -0.0003

 Summary of Natural Population Analysis:

                                       Natural Population
                Natural  -----------------------------------------------
    Atom  No    Charge         Core      Valence    Rydberg      Total
 -----------------------------------------------------------------------
      C    1   -0.14446      0.99955     2.13710    0.00780     3.14446
      C    2    0.10826      0.99944     1.87775    0.01455     2.89174
      O    3   -0.18804      0.99984     3.17788    0.01032     4.18804
      C    4    0.22255      0.99948     1.75598    0.02199     2.77745
      C    5   -0.14187      0.99951     2.13246    0.00990     3.14187
      N    6    0.04005      0.99973     2.43074    0.02948     3.45995
      O    7   -0.07073      0.99991     3.05906    0.01177     4.07073
      C    8    0.38296      0.99967     1.59377    0.02360     2.61704
      O    9   -0.29861      0.99987     3.29170    0.00703     4.29861
      O   10   -0.35013      0.99988     3.34442    0.00583     4.35013
      H   11    0.10378      0.00000     0.39527    0.00096     0.39622
      H   12    0.10732      0.00000     0.39022    0.00245     0.39268
      H   13    0.22891      0.00000     0.26542    0.00567     0.27109
 =======================================================================
   * Total *    0.00000      9.99687    25.85177    0.15136    36.00000

 Normal termination of Gaussian 16 at Tue Dec  8 10:24:14 2020.
