 Gaussian 16, Revision A.03,

 -----------------------------------------------------------
 # opt freq B3LYP/6-31G(d) empiricaldispersion=gd3bj scf=xqc
 -----------------------------------------------------------

 -----------------------------
 CID_45090012_JID_648_neutraal
 -----------------------------
 Symbolic Z-matrix:
 Charge =  0 Multiplicity = 1

 SCF Done:  E(RB3LYP) =  -534.364355147     A.U. after   15 cycles
 SCF Done:  E(RB3LYP) =  -534.370159659     A.U. after   12 cycles
 SCF Done:  E(RB3LYP) =  -534.370440475     A.U. after   13 cycles
 SCF Done:  E(RB3LYP) =  -534.370533066     A.U. after   12 cycles
 SCF Done:  E(RB3LYP) =  -534.370763333     A.U. after   12 cycles
 SCF Done:  E(RB3LYP) =  -534.371071530     A.U. after   13 cycles
 SCF Done:  E(RB3LYP) =  -534.371705352     A.U. after   15 cycles
 SCF Done:  E(RB3LYP) =  -534.371983608     A.U. after   12 cycles
 SCF Done:  E(RB3LYP) =  -534.372360136     A.U. after   12 cycles
 SCF Done:  E(RB3LYP) =  -534.372090052     A.U. after   13 cycles
 SCF Done:  E(RB3LYP) =  -534.372552685     A.U. after   12 cycles
 SCF Done:  E(RB3LYP) =  -534.372564326     A.U. after   11 cycles
 SCF Done:  E(RB3LYP) =  -534.372566632     A.U. after    9 cycles
 SCF Done:  E(RB3LYP) =  -534.372566762     A.U. after    8 cycles
 Optimization completed.
    -- Stationary point found.
 Normal termination of Gaussian 16 at Tue Dec  8 12:22:26 2020.

 --------------------------------------------------------------------
 #N Geom=AllCheck Guess=TCheck SCRF=Check GenChk RB3LYP/6-31G(d) Freq
 --------------------------------------------------------------------

 Structure from the checkpoint file:  "JID_648.chk"
 -----------------------------
 CID_45090012_JID_648_neutraal
 -----------------------------
 Charge =  0 Multiplicity = 1

 SCF Done:  E(RB3LYP) =  -534.372566762     A.U. after    1 cycles

  Exact polarizability:  78.812   5.356  74.954  -1.303  -0.199  54.855
 Approx polarizability: 108.311  21.820 109.909  -1.011   0.101  82.907

                      1                      2                      3
                      A                      A                      A
 Frequencies --     42.1754                72.6835               123.3215
 Red. masses --      5.8345                 7.0549                 1.6798
 Frc consts  --      0.0061                 0.0220                 0.0151
 IR Inten    --      3.3004                 3.2051                 2.0486

                      4                      5                      6
                      A                      A                      A
 Frequencies --    136.0035               202.0962               224.3529
 Red. masses --      1.5682                 3.3011                 1.0819
 Frc consts  --      0.0171                 0.0794                 0.0321
 IR Inten    --      0.8205                 2.4587                 0.1944

                      7                      8                      9
                      A                      A                      A
 Frequencies --    281.9132               323.3986               329.9452
 Red. masses --      4.6449                 3.7731                 2.7168
 Frc consts  --      0.2175                 0.2325                 0.1743
 IR Inten    --      8.5704                12.2644                 3.9062

                     10                     11                     12
                      A                      A                      A
 Frequencies --    350.0636               433.2674               514.2128
 Red. masses --      4.1497                10.9714                 3.8004
 Frc consts  --      0.2996                 1.2135                 0.5921
 IR Inten    --      2.0809                 4.3343                 1.8333

                     13                     14                     15
                      A                      A                      A
 Frequencies --    522.3240               550.1750               749.8539
 Red. masses --      2.9850                 3.2104                 5.4672
 Frc consts  --      0.4798                 0.5725                 1.8112
 IR Inten    --      3.0244                 5.9274                 6.7427

                     16                     17                     18
                      A                      A                      A
 Frequencies --    757.7591               829.1040               875.0871
 Red. masses --      4.9283                 5.8590                 3.4991
 Frc consts  --      1.6673                 2.3730                 1.5787
 IR Inten    --      6.4936                37.7514                23.0564

                     19                     20                     21
                      A                      A                      A
 Frequencies --    897.0317               955.3993               975.8764
 Red. masses --      3.1869                 1.9937                 3.7571
 Frc consts  --      1.5109                 1.0722                 2.1081
 IR Inten    --     19.7382                11.8881                15.3702

                     22                     23                     24
                      A                      A                      A
 Frequencies --   1029.6765              1077.2979              1106.0070
 Red. masses --      4.5675                 2.3859                 1.4748
 Frc consts  --      2.8532                 1.6315                 1.0629
 IR Inten    --     27.3687                79.1216                24.3210

                     25                     26                     27
                      A                      A                      A
 Frequencies --   1185.9132              1188.0630              1212.0479
 Red. masses --      1.3618                 1.9762                 1.9753
 Frc consts  --      1.1284                 1.6434                 1.7097
 IR Inten    --     12.0118                39.0441                81.0405

                     28                     29                     30
                      A                      A                      A
 Frequencies --   1233.6876              1242.5172              1266.6699
 Red. masses --      2.2035                 2.8328                 2.7177
 Frc consts  --      1.9759                 2.5767                 2.5691
 IR Inten    --    122.4750               120.7899                36.6935

                     31                     32                     33
                      A                      A                      A
 Frequencies --   1352.3002              1444.5191              1478.7897
 Red. masses --      4.0654                 1.3056                 1.1110
 Frc consts  --      4.3803                 1.6051                 1.4314
 IR Inten    --    108.0801                 8.7260                13.9337

                     34                     35                     36
                      A                      A                      A
 Frequencies --   1494.3923              1510.0872              1513.2319
 Red. masses --      1.2149                 1.0544                 1.0474
 Frc consts  --      1.5986                 1.4167                 1.4131
 IR Inten    --      7.3003                 5.0824                 7.0700

                     37                     38                     39
                      A                      A                      A
 Frequencies --   1518.6535              1522.9620              1829.6234
 Red. masses --      1.0528                 1.0490                11.6800
 Frc consts  --      1.4306                 1.4335                23.0366
 IR Inten    --      7.5519                 7.0675               212.5880

                     40                     41                     42
                      A                      A                      A
 Frequencies --   1953.9976              3075.0933              3080.7789
 Red. masses --     12.8783                 1.0350                 1.0297
 Frc consts  --     28.9704                 5.7663                 5.7581
 IR Inten    --    476.8632                 8.2443                25.9582

                     43                     44                     45
                      A                      A                      A
 Frequencies --   3113.1109              3151.8452              3156.1626
 Red. masses --      1.0602                 1.1041                 1.1030
 Frc consts  --      6.0539                 6.4621                 6.4736
 IR Inten    --      3.1356                12.3135                 6.6266

                     46                     47                     48
                      A                      A                      A
 Frequencies --   3157.4287              3174.7440              3193.6628
 Red. masses --      1.1077                 1.1076                 1.1073
 Frc consts  --      6.5066                 6.5773                 6.6544
 IR Inten    --     18.0928                 2.2851                11.8742

 - Thermochemistry -
 -------------------
 Temperature   298.150 Kelvin.  Pressure   1.00000 Atm.
 Atom     1 has atomic number  6 and mass  12.00000

 Molecular mass:   144.04226 amu.
 Principal axes and moments of inertia in atomic units:
                           1         2         3
     Eigenvalues --   862.424111654.499442220.74860
           X            0.99642  -0.08385  -0.01063
           Y            0.08380   0.99647  -0.00486
           Z            0.01100   0.00396   0.99993
 This molecule is an asymmetric top.
 Rotational symmetry number  1.
 Warning -- assumption of classical behavior for rotation
           may cause significant error
 Rotational temperatures (Kelvin)      0.10043     0.05235     0.03900
 Rotational constants (GHZ):           2.09264     1.09081     0.81267
 Zero-point vibrational energy     367309.2 (Joules/Mol)
                                   87.78901 (Kcal/Mol)
 Warning -- explicit consideration of  14 degrees of freedom as
           vibrations may cause significant error
 Vibrational temperatures:     60.68   104.58   177.43   195.68   290.77
          (Kelvin)            322.79   405.61   465.30   474.72   503.66
                              623.38   739.84   751.51   791.58  1078.87
                             1090.25  1192.90  1259.06  1290.63  1374.61
                             1404.07  1481.47  1549.99  1591.30  1706.26
                             1709.36  1743.87  1775.00  1787.71  1822.46
                             1945.66  2078.34  2127.65  2150.10  2172.68
                             2177.20  2185.00  2191.20  2632.42  2811.37
                             4424.37  4432.55  4479.07  4534.80  4541.01
                             4542.84  4567.75  4594.97

 Zero-point correction=                           0.139901 (Hartree/Particle)
 Thermal correction to Energy=                    0.149960
 Thermal correction to Enthalpy=                  0.150904
 Thermal correction to Gibbs Free Energy=         0.103806
 Sum of electronic and zero-point Energies=           -534.232666
 Sum of electronic and thermal Energies=              -534.222606
 Sum of electronic and thermal Enthalpies=            -534.221662
 Sum of electronic and thermal Free Energies=         -534.268761

                     E (Thermal)             CV                S
                      KCal/Mol        Cal/Mol-Kelvin    Cal/Mol-Kelvin
 Total                   94.101             35.581             99.128
 Electronic               0.000              0.000              0.000
 Translational            0.889              2.981             40.806
 Rotational               0.889              2.981             29.540
 Vibrational             92.324             29.619             28.782
 Vibration     1          0.595              1.980              5.154
 Vibration     2          0.599              1.967              4.079
 Vibration     3          0.610              1.930              3.048
 Vibration     4          0.614              1.917              2.859
 Vibration     5          0.639              1.837              2.114
 Vibration     6          0.649              1.804              1.924
 Vibration     7          0.681              1.707              1.522
 Vibration     8          0.708              1.629              1.293
 Vibration     9          0.713              1.616              1.260
 Vibration    10          0.727              1.575              1.166
 Vibration    11          0.794              1.398              0.848
 Vibration    12          0.869              1.219              0.624
 Vibration    13          0.877              1.201              0.605
 Vibration    14          0.905              1.139              0.544

                           ! Non-Optimized Parameters !
 Normal termination of Gaussian 16 at Tue Dec  8 12:26:18 2020.

 ----------------------------------------------------------------------
 # B3LYP/6-311++G(d,p) empiricaldispersion=gd3bj scf=xqc pop=npa geom=c
 heck
 ----------------------------------------------------------------------

 -------------------------------------
 CID_45090012_JID_648_Energie_neutraal
 -------------------------------------
 Structure from the checkpoint file:  "JID_648.chk"
 Charge =  0 Multiplicity = 1

 SCF Done:  E(RB3LYP) =  -534.533039841     A.U. after   14 cycles
 Normal termination of Gaussian 16 at Tue Dec  8 12:27:37 2020.

 ----------------------------------------------------------------------
 # B3LYP/6-311++G(d,p) empiricaldispersion=gd3bj scf=xqc pop=npa geom=c
 heck
 ----------------------------------------------------------------------

 -----------------------------------
 CID_45090012_JID_648_Energie_kation
 -----------------------------------
 Structure from the checkpoint file:  "JID_648.chk"
 Charge =  1 Multiplicity = 2

 SCF Done:  E(UB3LYP) =  -534.158650450     A.U. after   25 cycles
 Normal termination of Gaussian 16 at Tue Dec  8 12:32:31 2020.
 Gaussian 16:  ES64L-G16RevA.03 25-Dec-2016

 ----------------------------------------------------------------------
 # B3LYP/6-311++G(d,p) empiricaldispersion=gd3bj scf=xqc pop=npa geom=c
 heck
 ----------------------------------------------------------------------

 ----------------------------------
 CID_45090012_JID_648_Energie_anion
 ----------------------------------
 Structure from the checkpoint file:  "JID_648.chk"
 Charge = -1 Multiplicity = 2

                         Standard orientation:
 ---------------------------------------------------------------------
 Center     Atomic      Atomic             Coordinates (Angstroms)
 Number     Number       Type             X           Y           Z
 ---------------------------------------------------------------------
      1          6           0       -0.548661    2.236624   -0.147462
      2          6           0       -0.348887    0.750115    0.040425
      3          6           0       -1.167727    0.053067    1.157016
      4          6           0       -1.836630   -0.673068   -0.006248
      5          8           0       -2.685053   -1.496510   -0.165538
      6          8           0       -1.098359   -0.027055   -0.972639
      7          6           0        1.125509    0.356134    0.006703
      8          8           0        2.041495    1.147940    0.006272
      9          8           0        1.272032   -0.978588    0.006743
     10          6           0        2.630473   -1.451114   -0.027497
     11          1           0       -0.121732    2.562360   -1.099402
     12          1           0       -0.048373    2.787131    0.653818
     13          1           0       -1.616756    2.471467   -0.136474
     14          1           0       -0.615236   -0.599720    1.834484
     15          1           0       -1.832155    0.711664    1.721422
     16          1           0        3.130824   -1.094589   -0.930937
     17          1           0        3.178597   -1.096962    0.849194
     18          1           0        2.559453   -2.538194   -0.028430
 ---------------------------------------------------------------------

 SCF Done:  E(UB3LYP) =  -534.520424444     A.U. after   33 cycles
 SCF Done:  E(UB3LYP) =  -534.520424444     a.u. after    1 cycles

 The electronic state is 2-A.
 Alpha  occ. eigenvalues --  -19.07916 -19.07375 -19.03000 -19.02608 -10.21362
 Alpha  occ. eigenvalues --  -10.21344 -10.16805 -10.12415 -10.10185 -10.07540
 Alpha  occ. eigenvalues --   -1.02859  -1.01284  -0.94917  -0.93461  -0.70996
 Alpha  occ. eigenvalues --   -0.64937  -0.64002  -0.55145  -0.47806  -0.45397
 Alpha  occ. eigenvalues --   -0.44152  -0.41451  -0.40145  -0.38394  -0.37680
 Alpha  occ. eigenvalues --   -0.35841  -0.33645  -0.32153  -0.31323  -0.29979
 Alpha  occ. eigenvalues --   -0.29254  -0.28953  -0.26834  -0.25424  -0.22948
 Alpha  occ. eigenvalues --   -0.21743  -0.19334  -0.18830   0.04525
 Alpha virt. eigenvalues --    0.06585   0.07375   0.08378   0.08815   0.09625
 Alpha virt. eigenvalues --    0.10264   0.10451   0.11163   0.12558   0.13197
 Alpha virt. eigenvalues --    0.13636   0.15138   0.16324   0.17477   0.17653

  Beta  occ. eigenvalues --  -19.07910 -19.07367 -19.02996 -19.02596 -10.21359
  Beta  occ. eigenvalues --  -10.21344 -10.16805 -10.12351 -10.10136 -10.07494
  Beta  occ. eigenvalues --   -1.02844  -1.01270  -0.94908  -0.93443  -0.70963
  Beta  occ. eigenvalues --   -0.64878  -0.63931  -0.55068  -0.47758  -0.45352
  Beta  occ. eigenvalues --   -0.44078  -0.41421  -0.40109  -0.38366  -0.37648
  Beta  occ. eigenvalues --   -0.35801  -0.33606  -0.32111  -0.31282  -0.29939
  Beta  occ. eigenvalues --   -0.29213  -0.28911  -0.26791  -0.25385  -0.22933
  Beta  occ. eigenvalues --   -0.21718  -0.19318  -0.18812
  Beta virt. eigenvalues --    0.07199   0.07410   0.07935   0.09026   0.09376
  Beta virt. eigenvalues --    0.10490   0.11037   0.11152   0.12121   0.12830
  Beta virt. eigenvalues --    0.13659   0.13870   0.15468   0.16267   0.17510

 Mulliken charges and spin densities:
               1          2
     1  C    1.145943  -1.677398
     2  C   -2.078595   2.156766
     3  C    0.962350  -1.213002
     4  C    0.782794  -0.625076
     5  O   -0.367129   0.031038
     6  O   -0.011299  -0.005753
     7  C    0.639908  -0.663878
     8  O   -0.307697   0.061488
     9  O   -0.187407   0.097226
    10  C    1.658564  -1.882538
    11  H   -0.107135   0.285691
    12  H   -0.407464   0.597246
    13  H   -0.371402   0.530882
    14  H   -0.414914   0.636914
    15  H   -0.498585   0.708209
    16  H   -0.357735   0.531631
    17  H   -0.665271   0.855099
    18  H   -0.414928   0.575456
 Sum of Mulliken charges =  -1.00000   1.00000

 Dipole moment (field-independent basis, Debye):
    X=             -1.5661    Y=              0.5230    Z=             -2.5703  Tot=              3.0549
 Quadrupole moment (field-independent basis, Debye-Ang):
   XX=           -114.0537   YY=           -103.0621   ZZ=            -90.3303
   XY=              4.8359   XZ=             -1.7162   YZ=             -2.3259

 Summary of Natural Population Analysis:

                                       Natural Population
                Natural  -----------------------------------------------
    Atom  No    Charge         Core      Valence    Rydberg      Total
 -----------------------------------------------------------------------
      C    1   -0.29332      0.99961     2.28611    0.00760     3.29332
      C    2    0.08818      0.99955     1.89458    0.01769     2.91182
      C    3   -0.24227      0.99956     2.23235    0.01037     3.24227
      C    4    0.41175      0.99973     1.56098    0.02754     2.58825
      O    5   -0.28265      0.99986     3.27635    0.00645     4.28265
      O    6   -0.27503      0.99988     3.26818    0.00697     4.27503
      C    7    0.40238      0.99960     1.57231    0.02572     2.59762
      O    8   -0.29336      0.99987     3.28748    0.00601     4.29336
      O    9   -0.27330      0.99986     3.26372    0.00972     4.27330
      C   10   -0.10241      0.99959     2.09386    0.00895     3.10241
      H   11    0.11001      0.00000     0.38882    0.00117     0.38999
      H   12    0.11520      0.00000     0.38314    0.00166     0.38480
      H   13    0.10549      0.00000     0.39280    0.00171     0.39451
      H   14    0.12496      0.00000     0.37238    0.00266     0.37504
      H   15    0.12022      0.00000     0.37735    0.00243     0.37978
      H   16    0.09219      0.00000     0.40620    0.00160     0.40781
      H   17    0.09602      0.00000     0.40097    0.00301     0.40398
      H   18    0.09595      0.00000     0.40200    0.00205     0.40405
 =======================================================================
   * Total *   -0.00000      9.99711    27.85957    0.14332    38.00000

 Normal termination of Gaussian 16 at Tue Dec  8 12:40:05 2020.
