 Gaussian 16, Revision A.03,

 -----------------------------------------------------------
 # opt freq B3LYP/6-31G(d) empiricaldispersion=gd3bj scf=xqc
 -----------------------------------------------------------

 -----------------------------
 CID_88639669_JID_886_neutraal
 -----------------------------
 Symbolic Z-matrix:
 Charge =  0 Multiplicity = 1

 SCF Done:  E(RB3LYP) =  -479.791154518     A.U. after   15 cycles
 SCF Done:  E(RB3LYP) =  -479.793058165     A.U. after   13 cycles
 SCF Done:  E(RB3LYP) =  -479.793377697     A.U. after   12 cycles
 SCF Done:  E(RB3LYP) =  -479.793744836     A.U. after   12 cycles
 SCF Done:  E(RB3LYP) =  -479.793927642     A.U. after   13 cycles
 SCF Done:  E(RB3LYP) =  -479.794073371     A.U. after   12 cycles
 SCF Done:  E(RB3LYP) =  -479.794174130     A.U. after   12 cycles
 SCF Done:  E(RB3LYP) =  -479.794234215     A.U. after   12 cycles
 SCF Done:  E(RB3LYP) =  -479.794238925     A.U. after   10 cycles
 SCF Done:  E(RB3LYP) =  -479.794239873     A.U. after    8 cycles
 SCF Done:  E(RB3LYP) =  -479.794240630     A.U. after    8 cycles
 SCF Done:  E(RB3LYP) =  -479.794241012     A.U. after    8 cycles
 SCF Done:  E(RB3LYP) =  -479.794241120     A.U. after    7 cycles
 SCF Done:  E(RB3LYP) =  -479.794241196     A.U. after    7 cycles
 SCF Done:  E(RB3LYP) =  -479.794241230     A.U. after    7 cycles
 SCF Done:  E(RB3LYP) =  -479.794241239     A.U. after    7 cycles
 Optimization completed.
    -- Stationary point found.
 Normal termination of Gaussian 16 at Sun Dec 13 12:23:04 2020.

 --------------------------------------------------------------------
 #N Geom=AllCheck Guess=TCheck SCRF=Check GenChk RB3LYP/6-31G(d) Freq
 --------------------------------------------------------------------

 Structure from the checkpoint file:  "JID_886.chk"
 -----------------------------
 CID_88639669_JID_886_neutraal
 -----------------------------
 Charge =  0 Multiplicity = 1

 SCF Done:  E(RB3LYP) =  -479.794241239     A.U. after    1 cycles

  Exact polarizability: 104.360   1.500  76.917  -4.254   0.902  71.712
 Approx polarizability: 136.722  -1.694 115.075  -8.159   5.658 106.300

                      1                      2                      3
                      A                      A                      A
 Frequencies --     43.7980                53.3767                66.8436
 Red. masses --      4.0608                 5.1762                 2.7174
 Frc consts  --      0.0046                 0.0087                 0.0072
 IR Inten    --      1.9205                 6.0100                 0.0217

                      4                      5                      6
                      A                      A                      A
 Frequencies --     92.4159               170.8514               211.6474
 Red. masses --      3.5820                 2.7129                 1.3096
 Frc consts  --      0.0180                 0.0467                 0.0346
 IR Inten    --      1.1555                 3.3139               206.4524

                      7                      8                      9
                      A                      A                      A
 Frequencies --    218.2723               242.0999               321.3570
 Red. masses --      3.0169                 3.4640                 2.5427
 Frc consts  --      0.0847                 0.1196                 0.1547
 IR Inten    --     20.7143                 4.5272                 4.1670

                     10                     11                     12
                      A                      A                      A
 Frequencies --    352.9127               405.6534               422.7977
 Red. masses --      3.5173                 2.4876                 2.1611
 Frc consts  --      0.2581                 0.2412                 0.2276
 IR Inten    --      4.0611                 1.5762                 1.8532

                     13                     14                     15
                      A                      A                      A
 Frequencies --    496.2835               512.6011               528.3108
 Red. masses --      2.0293                 2.4512                 1.8306
 Frc consts  --      0.2945                 0.3795                 0.3010
 IR Inten    --      1.0090                 4.0322                17.9756

                     16                     17                     18
                      A                      A                      A
 Frequencies --    627.9177               651.5764               683.3708
 Red. masses --      1.0689                 1.4497                 1.7218
 Frc consts  --      0.2483                 0.3626                 0.4737
 IR Inten    --    133.2506                24.3868                10.8299

                     19                     20                     21
                      A                      A                      A
 Frequencies --    726.0223               798.4557               834.9935
 Red. masses --      2.7412                 2.5461                 2.2166
 Frc consts  --      0.8513                 0.9564                 0.9105
 IR Inten    --     10.7747                 1.2743                 7.5659

                     22                     23                     24
                      A                      A                      A
 Frequencies --    882.9462               916.6047               941.2699
 Red. masses --      2.3657                 2.2103                 1.3774
 Frc consts  --      1.0866                 1.0941                 0.7190
 IR Inten    --      0.7664                 8.3098                32.9745

                     25                     26                     27
                      A                      A                      A
 Frequencies --    942.2932              1013.8211              1030.6442
 Red. masses --      1.7062                 1.7533                 1.2012
 Frc consts  --      0.8926                 1.0617                 0.7517
 IR Inten    --      2.3833                 4.9531                13.7066

                     28                     29                     30
                      A                      A                      A
 Frequencies --   1051.4388              1079.9734              1102.6885
 Red. masses --      1.5206                 2.3866                 2.7262
 Frc consts  --      0.9904                 1.6401                 1.9530
 IR Inten    --      2.7868                29.8393                32.2905

                     31                     32                     33
                      A                      A                      A
 Frequencies --   1123.2892              1157.1830              1197.1572
 Red. masses --      2.3361                 1.6956                 1.3081
 Frc consts  --      1.7367                 1.3378                 1.1045
 IR Inten    --     22.8670                 6.2860                20.4059

                     34                     35                     36
                      A                      A                      A
 Frequencies --   1250.4708              1275.6682              1290.3325
 Red. masses --      1.2922                 1.2694                 1.4463
 Frc consts  --      1.1905                 1.2171                 1.4187
 IR Inten    --     83.0167                 1.9996                13.0154

                     37                     38                     39
                      A                      A                      A
 Frequencies --   1338.0596              1349.8951              1364.6591
 Red. masses --      1.2512                 1.5264                 1.3675
 Frc consts  --      1.3199                 1.6388                 1.5005
 IR Inten    --      2.2605                26.7472                34.2096

                     40                     41                     42
                      A                      A                      A
 Frequencies --   1371.9430              1420.7687              1429.6782
 Red. masses --      1.3828                 1.4934                 1.8880
 Frc consts  --      1.5335                 1.7761                 2.2736
 IR Inten    --      0.2712                18.6793                75.9871

                     43                     44                     45
                      A                      A                      A
 Frequencies --   1476.4588              1486.6166              1504.3295
 Red. masses --      1.1806                 1.1607                 1.2092
 Frc consts  --      1.5164                 1.5114                 1.6122
 IR Inten    --      6.1978                52.3062                55.2232

                     46                     47                     48
                      A                      A                      A
 Frequencies --   1520.0384              1526.4834              1645.4793
 Red. masses --      1.0948                 1.1027                 1.2893
 Frc consts  --      1.4904                 1.5138                 2.0568
 IR Inten    --     17.1916                 6.5732                99.3611

                     49                     50                     51
                      A                      A                      A
 Frequencies --   1735.1735              1770.4099              3021.7171
 Red. masses --      4.4860                 7.3754                 1.0666
 Frc consts  --      7.9578                13.6201                 5.7381
 IR Inten    --      5.9309               254.8475                29.5372

                     52                     53                     54
                      A                      A                      A
 Frequencies --   3054.1598              3059.6742              3070.2353
 Red. masses --      1.0660                 1.0633                 1.0801
 Frc consts  --      5.8585                 5.8650                 5.9989
 IR Inten    --     14.3177                 7.8088                30.6745

                     55                     56                     57
                      A                      A                      A
 Frequencies --   3076.6379              3104.3622              3105.7110
 Red. masses --      1.0915                 1.1036                 1.1036
 Frc consts  --      6.0871                 6.2664                 6.2716
 IR Inten    --     33.6825                28.3903                37.9967

                     58                     59                     60
                      A                      A                      A
 Frequencies --   3140.1525              3156.6774              3235.6398
 Red. masses --      1.0818                 1.0674                 1.1156
 Frc consts  --      6.2850                 6.2666                 6.8817
 IR Inten    --     30.5057                 5.6093                20.4229

                     61                     62                     63
                      A                      A                      A
 Frequencies --   3591.9986              3610.1772              3722.1650
 Red. masses --      1.0457                 1.0654                 1.1048
 Frc consts  --      7.9494                 8.1812                 9.0183
 IR Inten    --     53.7807               120.1988                34.2283

 - Thermochemistry -
 -------------------
 Temperature   298.150 Kelvin.  Pressure   1.00000 Atm.
 Atom     1 has atomic number  6 and mass  12.00000

 Molecular mass:   143.09463 amu.
 Principal axes and moments of inertia in atomic units:
                           1         2         3
     Eigenvalues --   871.258972397.692092854.14474
           X            0.99996   0.00674   0.00541
           Y           -0.00678   0.99995   0.00726
           Z           -0.00537  -0.00729   0.99996
 This molecule is an asymmetric top.
 Rotational symmetry number  1.
 Warning -- assumption of classical behavior for rotation
           may cause significant error
 Rotational temperatures (Kelvin)      0.09941     0.03612     0.03035
 Rotational constants (GHZ):           2.07142     0.75270     0.63232
 Zero-point vibrational energy     524004.1 (Joules/Mol)
                                  125.23998 (Kcal/Mol)
 Warning -- explicit consideration of  15 degrees of freedom as
           vibrations may cause significant error
 Vibrational temperatures:     63.02    76.80    96.17   132.97   245.82
          (Kelvin)            304.51   314.05   348.33   462.36   507.76
                              583.64   608.31   714.04   737.52   760.12
                              903.43   937.47   983.22  1044.58  1148.80
                             1201.37  1270.36  1318.79  1354.28  1355.75
                             1458.66  1482.87  1512.79  1553.84  1586.52
                             1616.16  1664.93  1722.44  1799.15  1835.40
                             1856.50  1925.17  1942.20  1963.44  1973.92
                             2044.17  2056.99  2124.29  2138.91  2164.39
                             2187.00  2196.27  2367.48  2496.53  2547.22
                             4347.58  4394.25  4402.19  4417.38  4426.60
                             4466.48  4468.43  4517.98  4541.75  4655.36
                             5168.08  5194.24  5355.37

 Zero-point correction=                           0.199583 (Hartree/Particle)
 Thermal correction to Energy=                    0.210986
 Thermal correction to Enthalpy=                  0.211930
 Thermal correction to Gibbs Free Energy=         0.161544
 Sum of electronic and zero-point Energies=           -479.594659
 Sum of electronic and thermal Energies=              -479.583255
 Sum of electronic and thermal Enthalpies=            -479.582311
 Sum of electronic and thermal Free Energies=         -479.632697

                     E (Thermal)             CV                S
                      KCal/Mol        Cal/Mol-Kelvin    Cal/Mol-Kelvin
 Total                  132.396             41.521            106.047
 Electronic               0.000              0.000              0.000
 Translational            0.889              2.981             40.786
 Rotational               0.889              2.981             30.168
 Vibrational            130.618             35.559             35.093
 Vibration     1          0.595              1.980              5.079
 Vibration     2          0.596              1.976              4.688
 Vibration     3          0.598              1.970              4.244
 Vibration     4          0.602              1.955              3.608
 Vibration     5          0.626              1.878              2.426
 Vibration     6          0.643              1.823              2.029
 Vibration     7          0.646              1.813              1.973
 Vibration     8          0.658              1.776              1.787
 Vibration     9          0.707              1.633              1.303
 Vibration    10          0.729              1.569              1.153
 Vibration    11          0.771              1.458              0.942
 Vibration    12          0.785              1.421              0.883
 Vibration    13          0.852              1.258              0.667
 Vibration    14          0.868              1.222              0.627
 Vibration    15          0.883              1.187              0.591

 Optimization completed.
    -- Stationary point found.
 Normal termination of Gaussian 16 at Sun Dec 13 12:26:54 2020.

 ----------------------------------------------------------------------
 # B3LYP/6-311++G(d,p) empiricaldispersion=gd3bj scf=xqc pop=npa geom=c
 heck
 ----------------------------------------------------------------------

 -------------------------------------
 CID_88639669_JID_886_Energie_neutraal
 -------------------------------------
 Structure from the checkpoint file:  "JID_886.chk"
 Charge =  0 Multiplicity = 1

 SCF Done:  E(RB3LYP) =  -479.953956495     A.U. after   14 cycles
 Normal termination of Gaussian 16 at Sun Dec 13 12:28:16 2020.

 ----------------------------------------------------------------------
 # B3LYP/6-311++G(d,p) empiricaldispersion=gd3bj scf=xqc pop=npa geom=c
 heck
 ----------------------------------------------------------------------

 -----------------------------------
 CID_88639669_JID_886_Energie_kation
 -----------------------------------
 Structure from the checkpoint file:  "JID_886.chk"
 Charge =  1 Multiplicity = 2

 SCF Done:  E(UB3LYP) =  -479.621468238     A.U. after   29 cycles
 Normal termination of Gaussian 16 at Sun Dec 13 12:31:52 2020.
 Gaussian 16:  ES64L-G16RevA.03 25-Dec-2016

 ----------------------------------------------------------------------
 # B3LYP/6-311++G(d,p) empiricaldispersion=gd3bj scf=xqc pop=npa geom=c
 heck
 ----------------------------------------------------------------------

 ----------------------------------
 CID_88639669_JID_886_Energie_anion
 ----------------------------------
 Structure from the checkpoint file:  "JID_886.chk"
 Charge = -1 Multiplicity = 2

                         Standard orientation:
 ---------------------------------------------------------------------
 Center     Atomic      Atomic             Coordinates (Angstroms)
 Number     Number       Type             X           Y           Z
 ---------------------------------------------------------------------
      1          6           0        3.928235   -0.372201   -0.131816
      2          6           0        2.617470   -0.457947   -0.358531
      3          6           0        1.568651   -0.604267    0.709873
      4          6           0        0.658526    0.631825    0.864655
      5          6           0       -0.080388    1.079564   -0.406988
      6          6           0       -0.922045   -0.042708   -1.056431
      7          6           0       -1.966050   -0.576806   -0.089297
      8          8           0       -2.619669    0.166904    0.643106
      9          7           0       -2.130947   -1.927170   -0.063095
     10          8           0       -0.890886    2.211586   -0.143557
     11          1           0        4.334430   -0.419107    0.876772
     12          1           0        4.645170   -0.251852   -0.939377
     13          1           0        2.260458   -0.404434   -1.388077
     14          1           0        0.944251   -1.484637    0.497482
     15          1           0        2.057686   -0.801881    1.671316
     16          1           0       -0.086625    0.431395    1.644377
     17          1           0        1.255641    1.484100    1.207150
     18          1           0        0.656076    1.407183   -1.149287
     19          1           0       -1.452147    0.394336   -1.910830
     20          1           0       -0.284300   -0.847492   -1.438820
     21          1           0       -1.643881   -2.541651   -0.696684
     22          1           0       -2.853262   -2.312102    0.530136
     23          1           0       -1.658819    1.863662    0.352319
 ---------------------------------------------------------------------

 SCF Done:  E(UB3LYP) =  -479.946508503     A.U. after   30 cycles

 The electronic state is 2-A.
 Alpha  occ. eigenvalues --  -19.00469 -18.98969 -14.22254 -10.17417 -10.12072
 Alpha  occ. eigenvalues --  -10.08138 -10.07383 -10.07289 -10.07036 -10.06632
 Alpha  occ. eigenvalues --   -0.94088  -0.91070  -0.79800  -0.71367  -0.67002
 Alpha  occ. eigenvalues --   -0.62887  -0.56155  -0.51051  -0.47775  -0.45539
 Alpha  occ. eigenvalues --   -0.42372  -0.39692  -0.39069  -0.37142  -0.35355
 Alpha  occ. eigenvalues --   -0.33545  -0.32502  -0.30899  -0.30726  -0.29124
 Alpha  occ. eigenvalues --   -0.28044  -0.26596  -0.24382  -0.24140  -0.22196
 Alpha  occ. eigenvalues --   -0.17206  -0.17041  -0.16246  -0.15826   0.04579
 Alpha virt. eigenvalues --    0.07098   0.07878   0.08923   0.09150   0.09628
 Alpha virt. eigenvalues --    0.10329   0.11284   0.11500   0.12026   0.12557
 Alpha virt. eigenvalues --    0.12811   0.14052   0.14567   0.15784   0.16248

  Beta  occ. eigenvalues --  -19.00465 -18.98959 -14.22135 -10.17413 -10.12067
  Beta  occ. eigenvalues --  -10.08123 -10.07363 -10.07246 -10.07023 -10.06628
  Beta  occ. eigenvalues --   -0.94062  -0.91056  -0.79647  -0.71338  -0.66960
  Beta  occ. eigenvalues --   -0.62839  -0.56108  -0.50992  -0.47616  -0.45484
  Beta  occ. eigenvalues --   -0.42261  -0.39651  -0.39013  -0.37106  -0.35325
  Beta  occ. eigenvalues --   -0.33500  -0.32465  -0.30866  -0.30690  -0.29099
  Beta  occ. eigenvalues --   -0.28009  -0.26557  -0.24359  -0.24117  -0.22170
  Beta  occ. eigenvalues --   -0.17184  -0.16949  -0.16224  -0.15787
  Beta virt. eigenvalues --    0.07056   0.08221   0.08450   0.09019   0.09563
  Beta virt. eigenvalues --    0.10357   0.10658   0.11738   0.11878   0.12460
  Beta virt. eigenvalues --    0.12868   0.13188   0.14464   0.14989   0.16211

 Mulliken charges and spin densities:
               1          2
     1  C    0.546715  -1.175370
     2  C   -0.681407   1.000114
     3  C    0.446536  -0.908073
     4  C    0.184592  -0.185006
     5  C   -0.849349   0.409228
     6  C    1.120345  -1.429460
     7  C    0.638081  -0.694126
     8  O   -0.372353   0.011172
     9  N   -0.349568   0.077464
    10  O   -0.208677   0.010275
    11  H   -0.019726   0.122668
    12  H   -0.033158   0.144110
    13  H   -0.629128   0.791435
    14  H   -0.047354   0.207422
    15  H   -0.115058   0.268439
    16  H    0.162202  -0.012221
    17  H    0.057423   0.099265
    18  H    0.205608  -0.002154
    19  H   -0.164320   0.381463
    20  H   -0.031355   0.179533
    21  H   -0.701495   0.989558
    22  H   -0.446091   0.749352
    23  H    0.287537  -0.035089
 Sum of Mulliken charges =  -1.00000   1.00000

 Dipole moment (field-independent basis, Debye):
    X=              3.8274    Y=              5.9746    Z=              2.5340  Tot=              7.5344
 Quadrupole moment (field-independent basis, Debye-Ang):
   XX=           -110.8571   YY=           -116.1307   ZZ=            -88.4012
   XY=             -8.3725   XZ=              3.3418   YZ=             -5.7711

 Summary of Natural Population Analysis:

                                       Natural Population
                Natural  -----------------------------------------------
    Atom  No    Charge         Core      Valence    Rydberg      Total
 -----------------------------------------------------------------------
      C    1   -0.19730      0.99956     2.19128    0.00646     3.19730
      C    2   -0.07768      0.99956     2.06731    0.01081     3.07768
      C    3   -0.21290      0.99961     2.20345    0.00984     3.21290
      C    4   -0.19812      0.99960     2.18947    0.00906     3.19812
      C    5    0.06596      0.99957     1.91930    0.01518     2.93404
      C    6   -0.24816      0.99957     2.23807    0.01052     3.24816
      C    7    0.33891      0.99969     1.63762    0.02378     2.66109
      O    8   -0.34499      0.99987     3.33897    0.00614     4.34499
      N    9   -0.38965      0.99970     2.88099    0.00896     3.88965
      O   10   -0.38248      0.99990     3.37629    0.00630     4.38248
      H   11    0.08736      0.00000     0.41147    0.00117     0.41264
      H   12    0.09260      0.00000     0.40636    0.00103     0.40740
      H   13    0.09369      0.00000     0.40452    0.00179     0.40631
      H   14    0.10884      0.00000     0.38906    0.00210     0.39116
      H   15    0.09734      0.00000     0.40110    0.00156     0.40266
      H   16    0.10302      0.00000     0.39586    0.00112     0.39698
      H   17    0.09925      0.00000     0.39968    0.00108     0.40075
      H   18    0.08540      0.00000     0.41257    0.00203     0.41460
      H   19    0.11712      0.00000     0.38178    0.00110     0.38288
      H   20    0.11085      0.00000     0.38663    0.00252     0.38915
      H   21    0.20943      0.00000     0.24887    0.04169     0.29057
      H   22    0.19933      0.00000     0.29497    0.00570     0.30067
      H   23    0.24219      0.00000     0.25486    0.00295     0.25781
 =======================================================================
   * Total *    0.00000      9.99662    28.83050    0.17289    39.00000

 Normal termination of Gaussian 16 at Sun Dec 13 12:35:35 2020.
