 Gaussian 16, Revision A.03,

 -----------------------------------------------------------
 # opt freq B3LYP/6-31G(d) empiricaldispersion=gd3bj scf=xqc
 -----------------------------------------------------------

 ------------------------------
 CID_71422752_JID_3527_neutraal
 ------------------------------
 Symbolic Z-matrix:
 Charge =  0 Multiplicity = 1

 SCF Done:  E(RB3LYP) =  -546.993625405     A.U. after   13 cycles
 SCF Done:  E(RB3LYP) =  -546.995855094     A.U. after   10 cycles
 SCF Done:  E(RB3LYP) =  -546.996047689     A.U. after   10 cycles
 SCF Done:  E(RB3LYP) =  -546.996086105     A.U. after    9 cycles
 SCF Done:  E(RB3LYP) =  -546.996099624     A.U. after    9 cycles
 SCF Done:  E(RB3LYP) =  -546.996106127     A.U. after    9 cycles
 SCF Done:  E(RB3LYP) =  -546.996109901     A.U. after    8 cycles
 SCF Done:  E(RB3LYP) =  -546.996110734     A.U. after    7 cycles
 SCF Done:  E(RB3LYP) =  -546.996110884     A.U. after    7 cycles
 SCF Done:  E(RB3LYP) =  -546.996110981     A.U. after    6 cycles
 SCF Done:  E(RB3LYP) =  -546.996111024     A.U. after    6 cycles
 Optimization completed.
    -- Stationary point found.
 Normal termination of Gaussian 16 at Wed Dec  9 23:35:40 2020.

 --------------------------------------------------------------------
 #N Geom=AllCheck Guess=TCheck SCRF=Check GenChk RB3LYP/6-31G(d) Freq
 --------------------------------------------------------------------

 Structure from the checkpoint file:  "JID_3527.chk"
 ------------------------------
 CID_71422752_JID_3527_neutraal
 ------------------------------
 Charge =  0 Multiplicity = 1

 SCF Done:  E(RB3LYP) =  -546.996111024     A.U. after    1 cycles

  Exact polarizability: 174.326   3.401 112.384   0.143   0.149 113.638
 Approx polarizability: 206.294   4.342 160.742   1.944   0.842 166.797

                      1                      2                      3
                      A                      A                      A
 Frequencies --     17.3784                33.6051                48.4241
 Red. masses --      3.5471                 3.6464                 3.2492
 Frc consts  --      0.0006                 0.0024                 0.0045
 IR Inten    --      0.2155                 0.1379                 0.0183

                      4                      5                      6
                      A                      A                      A
 Frequencies --     62.6423                76.6514                89.3581
 Red. masses --      3.0661                 3.6038                 2.3332
 Frc consts  --      0.0071                 0.0125                 0.0110
 IR Inten    --      0.0356                 0.1066                 0.0259

                      7                      8                      9
                      A                      A                      A
 Frequencies --    105.4075               134.2791               181.2613
 Red. masses --      2.2438                 2.6063                 1.9707
 Frc consts  --      0.0147                 0.0277                 0.0381
 IR Inten    --      0.7514                 0.5101                 1.0583

                     10                     11                     12
                      A                      A                      A
 Frequencies --    207.0287               231.1552               240.0145
 Red. masses --      2.4300                 1.3586                 1.5225
 Frc consts  --      0.0614                 0.0428                 0.0517
 IR Inten    --      0.5169                 1.5347                 0.3071

                     13                     14                     15
                      A                      A                      A
 Frequencies --    287.5004               301.6546               315.1945
 Red. masses --      1.9201                 2.2335                 1.8679
 Frc consts  --      0.0935                 0.1197                 0.1093
 IR Inten    --      1.1395                 2.5721                12.2952

                     16                     17                     18
                      A                      A                      A
 Frequencies --    337.5622               351.2708               363.7432
 Red. masses --      1.9044                 1.4556                 1.8421
 Frc consts  --      0.1279                 0.1058                 0.1436
 IR Inten    --     22.1581                74.5807                 6.9174

                     19                     20                     21
                      A                      A                      A
 Frequencies --    395.1428               447.3893               478.6865
 Red. masses --      1.8708                 2.0193                 2.6044
 Frc consts  --      0.1721                 0.2381                 0.3516
 IR Inten    --      0.5486                 0.6505                 4.4759

                     22                     23                     24
                      A                      A                      A
 Frequencies --    513.5623               567.9665               610.6039
 Red. masses --      2.4451                 2.8767                 2.8406
 Frc consts  --      0.3800                 0.5468                 0.6240
 IR Inten    --      1.8540                 1.6133                 8.2864

                     25                     26                     27
                      A                      A                      A
 Frequencies --    715.7208               746.2079               791.1605
 Red. masses --      1.2554                 1.5423                 1.2800
 Frc consts  --      0.3789                 0.5060                 0.4721
 IR Inten    --     22.5204                 0.7848                 1.2348

                     28                     29                     30
                      A                      A                      A
 Frequencies --    805.5189               821.6869               845.3326
 Red. masses --      1.6658                 2.2280                 1.9809
 Frc consts  --      0.6368                 0.8863                 0.8340
 IR Inten    --      5.5245                 1.4373                 2.0998

                     31                     32                     33
                      A                      A                      A
 Frequencies --    878.4015               887.1865               902.7581
 Red. masses --      1.7669                 2.1250                 1.9037
 Frc consts  --      0.8032                 0.9855                 0.9141
 IR Inten    --      2.1456                 2.3145                 0.8744

                     34                     35                     36
                      A                      A                      A
 Frequencies --    954.0391               979.8564               985.2859
 Red. masses --      1.6675                 1.7871                 2.2264
 Frc consts  --      0.8942                 1.0109                 1.2734
 IR Inten    --      2.0121                 7.4842                48.8186

                     37                     38                     39
                      A                      A                      A
 Frequencies --   1001.3075              1022.0223              1029.0047
 Red. masses --      1.6144                 1.3072                 1.4224
 Frc consts  --      0.9537                 0.8045                 0.8873
 IR Inten    --     13.5368                10.1542                25.0747

                     40                     41                     42
                      A                      A                      A
 Frequencies --   1049.3301              1067.4712              1070.2227
 Red. masses --      1.4658                 1.5637                 2.2929
 Frc consts  --      0.9509                 1.0498                 1.5473
 IR Inten    --      1.4840                 1.1263                 7.9851

                     43                     44                     45
                      A                      A                      A
 Frequencies --   1081.9218              1117.4822              1121.5429
 Red. masses --      2.0026                 2.0301                 2.0629
 Frc consts  --      1.3811                 1.4936                 1.5288
 IR Inten    --     26.6272                 0.2563                14.9983

                     46                     47                     48
                      A                      A                      A
 Frequencies --   1145.2395              1156.2617              1173.2469
 Red. masses --      1.8180                 2.1201                 1.9982
 Frc consts  --      1.4049                 1.6700                 1.6206
 IR Inten    --      2.3405                 4.3991                 1.0391

                     49                     50                     51
                      A                      A                      A
 Frequencies --   1205.9210              1216.3483              1252.0287
 Red. masses --      1.4803                 1.3122                 1.2988
 Frc consts  --      1.2684                 1.1438                 1.1995
 IR Inten    --      1.0917                 0.2183                 8.2753

                     52                     53                     54
                      A                      A                      A
 Frequencies --   1265.4305              1288.8064              1306.7527
 Red. masses --      1.1793                 1.2936                 1.1954
 Frc consts  --      1.1126                 1.2659                 1.2027
 IR Inten    --     62.5300                 1.8010                 1.2998

                     55                     56                     57
                      A                      A                      A
 Frequencies --   1321.0417              1331.5784              1342.6088
 Red. masses --      1.1654                 1.1554                 1.3044
 Frc consts  --      1.1982                 1.2070                 1.3853
 IR Inten    --      7.9897                12.7697                 1.5292

                     58                     59                     60
                      A                      A                      A
 Frequencies --   1351.3290              1368.6266              1379.0521
 Red. masses --      1.1221                 1.3865                 1.3866
 Frc consts  --      1.2073                 1.5301                 1.5536
 IR Inten    --      4.6471                 0.9462                14.4197

                     61                     62                     63
                      A                      A                      A
 Frequencies --   1392.6107              1398.6247              1400.3543
 Red. masses --      1.2992                 1.4882                 1.4900
 Frc consts  --      1.4845                 1.7152                 1.7215
 IR Inten    --      2.6444                 2.5331                 4.5806

                     64                     65                     66
                      A                      A                      A
 Frequencies --   1404.7329              1422.8127              1423.0696
 Red. masses --      1.3590                 1.4360                 1.4044
 Frc consts  --      1.5799                 1.7127                 1.6757
 IR Inten    --      1.2048                 4.8950                 2.4832

                     67                     68                     69
                      A                      A                      A
 Frequencies --   1430.8929              1443.7596              1446.7692
 Red. masses --      1.3802                 1.2720                 1.3852
 Frc consts  --      1.6650                 1.5621                 1.7083
 IR Inten    --     21.6935                 4.9873                45.9020

                     70                     71                     72
                      A                      A                      A
 Frequencies --   1505.7237              1507.6601              1516.1477
 Red. masses --      1.0792                 1.0826                 1.0967
 Frc consts  --      1.4416                 1.4499                 1.4854
 IR Inten    --      0.9543                 3.0961                 9.2220

                     73                     74                     75
                      A                      A                      A
 Frequencies --   1518.2952              1523.6840              1530.6603
 Red. masses --      1.0813                 1.0653                 1.0412
 Frc consts  --      1.4686                 1.4571                 1.4372
 IR Inten    --      2.5974                 4.7366                 3.8138

                     76                     77                     78
                      A                      A                      A
 Frequencies --   1532.1329              1533.3469              1537.1186
 Red. masses --      1.0613                 1.0845                 1.0670
 Frc consts  --      1.4678                 1.5023                 1.4854
 IR Inten    --      8.2239                 5.5511                 3.1045

                     79                     80                     81
                      A                      A                      A
 Frequencies --   1542.2123              1545.3756              1750.5399
 Red. masses --      1.0557                 1.0817                 6.0904
 Frc consts  --      1.4793                 1.5220                10.9961
 IR Inten    --      4.7897                 1.6031                 4.7872

                     82                     83                     84
                      A                      A                      A
 Frequencies --   2977.5461              3026.3904              3031.1183
 Red. masses --      1.0835                 1.0633                 1.0630
 Frc consts  --      5.6599                 5.7379                 5.7540
 IR Inten    --     48.7418                25.9145                26.3276

                     85                     86                     87
                      A                      A                      A
 Frequencies --   3035.0970              3037.8076              3038.7354
 Red. masses --      1.0635                 1.0607                 1.0617
 Frc consts  --      5.7722                 5.7670                 5.7760
 IR Inten    --     33.5920                20.4765                 7.3686

                     88                     89                     90
                      A                      A                      A
 Frequencies --   3045.0255              3047.6118              3049.2971
 Red. masses --      1.0418                 1.0622                 1.0604
 Frc consts  --      5.6914                 5.8128                 5.8094
 IR Inten    --     16.0224                 5.1307                34.7430

                     91                     92                     93
                      A                      A                      A
 Frequencies --   3056.6891              3058.6249              3065.3166
 Red. masses --      1.0369                 1.0964                 1.0996
 Frc consts  --      5.7083                 6.0433                 6.0877
 IR Inten    --     21.0832                 9.7843                24.2250

                     94                     95                     96
                      A                      A                      A
 Frequencies --   3070.7667              3075.7606              3080.1675
 Red. masses --      1.0985                 1.0982                 1.1013
 Frc consts  --      6.1028                 6.1212                 6.1562
 IR Inten    --     40.5304               117.2646                89.7376

                     97                     98                     99
                      A                      A                      A
 Frequencies --   3085.0382              3085.4366              3109.5715
 Red. masses --      1.1034                 1.1033                 1.1015
 Frc consts  --      6.1872                 6.1882                 6.2752
 IR Inten    --     59.6658                15.5188                48.4606

                    100                    101                    102
                      A                      A                      A
 Frequencies --   3116.6585              3117.1949              3136.5502
 Red. masses --      1.1020                 1.1019                 1.0887
 Frc consts  --      6.3065                 6.3082                 6.3104
 IR Inten    --     59.0100                44.0322                19.9821

                    103                    104                    105
                      A                      A                      A
 Frequencies --   3139.9725              3154.6325              3742.1692
 Red. masses --      1.1016                 1.0879                 1.0662
 Frc consts  --      6.3995                 6.3790                 8.7973
 IR Inten    --     26.0424                22.3634                 9.2986

 - Thermochemistry -
 -------------------
 Temperature   298.150 Kelvin.  Pressure   1.00000 Atm.
 Atom     1 has atomic number  6 and mass  12.00000

 Molecular mass:   184.18272 amu.
 Principal axes and moments of inertia in atomic units:
                           1         2         3
     Eigenvalues --   903.127498284.414428456.33075
           X            0.99998   0.00589   0.00363
           Y           -0.00585   0.99993  -0.01041
           Z           -0.00369   0.01039   0.99994
 This molecule is an asymmetric top.
 Rotational symmetry number  1.
 Warning -- assumption of classical behavior for rotation
           may cause significant error
 Rotational temperatures (Kelvin)      0.09590     0.01046     0.01024
 Rotational constants (GHZ):           1.99832     0.21785     0.21342
 Zero-point vibrational energy     903568.9 (Joules/Mol)
                                  215.95814 (Kcal/Mol)
 Warning -- explicit consideration of  24 degrees of freedom as
           vibrations may cause significant error
 Vibrational temperatures:     25.00    48.35    69.67    90.13   110.28
          (Kelvin)            128.57   151.66   193.20   260.79   297.87
                              332.58   345.33   413.65   434.01   453.49
                              485.68   505.40   523.35   568.52   643.69
                              688.72   738.90   817.18   878.52  1029.76
                             1073.63  1138.30  1158.96  1182.22  1216.25
                             1263.82  1276.46  1298.87  1372.65  1409.79
                             1417.61  1440.66  1470.46  1480.51  1509.75
                             1535.85  1539.81  1556.64  1607.81  1613.65
                             1647.74  1663.60  1688.04  1735.05  1750.05
                             1801.39  1820.67  1854.30  1880.13  1900.68
                             1915.84  1931.71  1944.26  1969.15  1984.15
                             2003.66  2012.31  2014.80  2021.10  2047.11
                             2047.48  2058.74  2077.25  2081.58  2166.40
                             2169.19  2181.40  2184.49  2192.24  2202.28
                             2204.40  2206.14  2211.57  2218.90  2223.45
                             2518.64  4284.02  4354.30  4361.10  4366.83
                             4370.73  4372.06  4381.11  4384.83  4387.26
                             4397.89  4400.68  4410.31  4418.15  4425.33
                             4431.67  4438.68  4439.26  4473.98  4484.18
                             4484.95  4512.80  4517.72  4538.81  5384.15

 Zero-point correction=                           0.344151 (Hartree/Particle)
 Thermal correction to Energy=                    0.360557
 Thermal correction to Enthalpy=                  0.361501
 Thermal correction to Gibbs Free Energy=         0.298290
 Sum of electronic and zero-point Energies=           -546.651960
 Sum of electronic and thermal Energies=              -546.635554
 Sum of electronic and thermal Enthalpies=            -546.634610
 Sum of electronic and thermal Free Energies=         -546.697821

                     E (Thermal)             CV                S
                      KCal/Mol        Cal/Mol-Kelvin    Cal/Mol-Kelvin
 Total                  226.253             59.967            133.039
 Electronic               0.000              0.000              0.000
 Translational            0.889              2.981             41.539
 Rotational               0.889              2.981             32.514
 Vibrational            224.475             54.005             58.986
 Vibration     1          0.593              1.986              6.913
 Vibration     2          0.594              1.983              5.604
 Vibration     3          0.595              1.978              4.881
 Vibration     4          0.597              1.972              4.372
 Vibration     5          0.599              1.965              3.975
 Vibration     6          0.602              1.957              3.674
 Vibration     7          0.605              1.945              3.352
 Vibration     8          0.613              1.919              2.884
 Vibration     9          0.630              1.865              2.315
 Vibration    10          0.641              1.830              2.070
 Vibration    11          0.653              1.793              1.870
 Vibration    12          0.657              1.779              1.803
 Vibration    13          0.685              1.697              1.489
 Vibration    14          0.694              1.671              1.408
 Vibration    15          0.703              1.645              1.335
 Vibration    16          0.718              1.600              1.224
 Vibration    17          0.728              1.573              1.160
 Vibration    18          0.737              1.547              1.106
 Vibration    19          0.762              1.481              0.981
 Vibration    20          0.807              1.367              0.804
 Vibration    21          0.835              1.297              0.714
 Vibration    22          0.869              1.220              0.625
 Vibration    23          0.924              1.101              0.508
 Vibration    24          0.970              1.009              0.432

 Optimization completed.
    -- Stationary point found.
 Normal termination of Gaussian 16 at Wed Dec  9 23:45:17 2020.

 ----------------------------------------------------------------------
 # B3LYP/6-311++G(d,p) empiricaldispersion=gd3bj scf=xqc pop=npa geom=c
 heck
 ----------------------------------------------------------------------

 --------------------------------------
 CID_71422752_JID_3527_Energie_neutraal
 --------------------------------------
 Structure from the checkpoint file:  "JID_3527.chk"
 Charge =  0 Multiplicity = 1

 SCF Done:  E(RB3LYP) =  -547.162254882     A.U. after   13 cycles
 Normal termination of Gaussian 16 at Wed Dec  9 23:50:18 2020.

 ----------------------------------------------------------------------
 # B3LYP/6-311++G(d,p) empiricaldispersion=gd3bj scf=xqc pop=npa geom=c
 heck
 ----------------------------------------------------------------------

 ------------------------------------
 CID_71422752_JID_3527_Energie_kation
 ------------------------------------
 Structure from the checkpoint file:  "JID_3527.chk"
 Charge =  1 Multiplicity = 2

 SCF Done:  E(UB3LYP) =  -546.834717905     A.U. after   23 cycles
 Normal termination of Gaussian 16 at Thu Dec 10 00:02:55 2020.
 Gaussian 16:  ES64L-G16RevA.03 25-Dec-2016

 ----------------------------------------------------------------------
 # B3LYP/6-311++G(d,p) empiricaldispersion=gd3bj scf=xqc pop=npa geom=c
 heck
 ----------------------------------------------------------------------

 -----------------------------------
 CID_71422752_JID_3527_Energie_anion
 -----------------------------------
 Structure from the checkpoint file:  "JID_3527.chk"
 Charge = -1 Multiplicity = 2

                         Standard orientation:
 ---------------------------------------------------------------------
 Center     Atomic      Atomic             Coordinates (Angstroms)
 Number     Number       Type             X           Y           Z
 ---------------------------------------------------------------------
      1          6           0       -5.428320    0.786340   -0.696752
      2          6           0       -4.691213    0.144057    0.482082
      3          6           0       -3.666249   -0.923206    0.068994
      4          6           0       -2.543695   -0.425998   -0.856216
      5          6           0       -1.720303    0.748543   -0.304853
      6          6           0       -1.055043    0.495915    1.056599
      7          6           0       -0.119906   -0.731540    1.106680
      8          6           0        0.984846   -0.677941    0.089531
      9          6           0        2.272313   -0.454288    0.365489
     10          6           0        3.358038   -0.373822   -0.671962
     11          6           0        4.040337    0.998374   -0.747965
     12          6           0        4.696790    1.450903    0.558845
     13          8           0        4.394121   -1.327242   -0.393588
     14          1           0       -4.745448    1.346301   -1.345227
     15          1           0       -6.198271    1.483977   -0.348998
     16          1           0       -5.921076    0.025168   -1.314451
     17          1           0       -4.195336    0.926556    1.071437
     18          1           0       -5.423620   -0.320264    1.155392
     19          1           0       -3.226283   -1.359468    0.975545
     20          1           0       -4.193834   -1.744763   -0.435464
     21          1           0       -1.877076   -1.270269   -1.077193
     22          1           0       -2.970912   -0.127956   -1.822066
     23          1           0       -0.948732    1.011606   -1.039820
     24          1           0       -2.361666    1.634853   -0.217019
     25          1           0       -0.473662    1.384715    1.332852
     26          1           0       -1.825308    0.376030    1.829295
     27          1           0        0.312545   -0.803654    2.112133
     28          1           0       -0.714043   -1.643344    0.954564
     29          1           0        0.692150   -0.805636   -0.954235
     30          1           0        2.591528   -0.333178    1.401033
     31          1           0        2.912928   -0.584030   -1.658973
     32          1           0        4.799070    0.939435   -1.538321
     33          1           0        3.291410    1.731079   -1.073371
     34          1           0        5.400282    0.693447    0.916196
     35          1           0        5.245626    2.387305    0.411654
     36          1           0        3.953514    1.624450    1.344946
     37          1           0        3.957670   -2.178451   -0.234043
 ---------------------------------------------------------------------

 SCF Done:  E(UB3LYP) =  -547.148240405     A.U. after   33 cycles
 SCF Done:  E(UB3LYP) =  -547.148240405     a.u. after    1 cycles

 The electronic state is 2-A.
 Alpha  occ. eigenvalues --  -19.02736 -10.13000 -10.07964 -10.07771 -10.07513
 Alpha  occ. eigenvalues --  -10.07276 -10.07057 -10.06875 -10.06642 -10.06636
 Alpha  occ. eigenvalues --  -10.06568 -10.06464 -10.06072  -0.92868  -0.72676
 Alpha  occ. eigenvalues --   -0.70856  -0.68931  -0.66382  -0.62946  -0.59502
 Alpha  occ. eigenvalues --   -0.57154  -0.54184  -0.50620  -0.48170  -0.46118
 Alpha  occ. eigenvalues --   -0.44158  -0.42459  -0.38955  -0.38187  -0.36800
 Alpha  occ. eigenvalues --   -0.34940  -0.34055  -0.33577  -0.33138  -0.31933
 Alpha  occ. eigenvalues --   -0.30987  -0.30069  -0.29290  -0.28634  -0.27631
 Alpha  occ. eigenvalues --   -0.26759  -0.26347  -0.25316  -0.25053  -0.24752
 Alpha  occ. eigenvalues --   -0.24294  -0.22743  -0.22049  -0.21537  -0.21196
 Alpha  occ. eigenvalues --   -0.18983  -0.16012   0.04244
 Alpha virt. eigenvalues --    0.05944   0.06765   0.06851   0.07642   0.07959
 Alpha virt. eigenvalues --    0.08168   0.09135   0.09613   0.09849   0.09956
 Alpha virt. eigenvalues --    0.10236   0.10646   0.11113   0.11543   0.12108

  Beta  occ. eigenvalues --  -19.02703 -10.12991 -10.07943 -10.07763 -10.07500
  Beta  occ. eigenvalues --  -10.07267 -10.07043 -10.06862 -10.06622 -10.06621
  Beta  occ. eigenvalues --  -10.06556 -10.06446 -10.06039  -0.92793  -0.72642
  Beta  occ. eigenvalues --   -0.70821  -0.68898  -0.66349  -0.62910  -0.59458
  Beta  occ. eigenvalues --   -0.57109  -0.54135  -0.50565  -0.48117  -0.46061
  Beta  occ. eigenvalues --   -0.44101  -0.42404  -0.38925  -0.38154  -0.36765
  Beta  occ. eigenvalues --   -0.34907  -0.34028  -0.33554  -0.33090  -0.31903
  Beta  occ. eigenvalues --   -0.30953  -0.30026  -0.29260  -0.28606  -0.27593
  Beta  occ. eigenvalues --   -0.26731  -0.26314  -0.25287  -0.25020  -0.24720
  Beta  occ. eigenvalues --   -0.24259  -0.22711  -0.22022  -0.21498  -0.21161
  Beta  occ. eigenvalues --   -0.18947  -0.15944
  Beta virt. eigenvalues --    0.06156   0.06664   0.07118   0.07434   0.08069
  Beta virt. eigenvalues --    0.08382   0.08449   0.09345   0.09819   0.10132
  Beta virt. eigenvalues --    0.10244   0.10537   0.10876   0.11387   0.11731

 Mulliken charges and spin densities:
               1          2
     1  C    1.030850  -1.665690
     2  C   -0.485907   0.294246
     3  C   -0.059024  -0.179665
     4  C    0.312226  -0.519347
     5  C    0.395504  -0.728112
     6  C   -0.013437  -0.315528
     7  C   -0.673898   0.397641
     8  C   -0.293042   0.224369
     9  C   -0.190959  -0.033284
    10  C    1.403488  -1.543650
    11  C   -0.354174   0.056275
    12  C    0.054733  -0.603678
    13  O   -0.229918   0.047609
    14  H   -0.080674   0.214739
    15  H   -0.295640   0.431320
    16  H   -0.101116   0.236191
    17  H    0.179861  -0.063574
    18  H   -0.478516   0.632310
    19  H   -0.098392   0.251802
    20  H   -0.183553   0.333983
    21  H   -0.137036   0.300317
    22  H   -0.069044   0.233835
    23  H    0.299561  -0.157529
    24  H   -0.350639   0.530074
    25  H    0.016745   0.122839
    26  H   -0.109276   0.264456
    27  H   -0.194621   0.363700
    28  H   -0.160011   0.301377
    29  H   -0.099439   0.224303
    30  H    0.061442   0.111813
    31  H   -0.070832   0.263818
    32  H    0.129985   0.023538
    33  H   -0.085354   0.210175
    34  H    0.065240   0.100066
    35  H   -0.060559   0.190611
    36  H    0.008530   0.112526
    37  H   -0.083104   0.336121
 Sum of Mulliken charges =  -1.00000   1.00000

 Dipole moment (field-independent basis, Debye):
    X=              3.6572    Y=              1.3284    Z=             -0.2730  Tot=              3.9005
 Quadrupole moment (field-independent basis, Debye-Ang):
   XX=           -210.8248   YY=           -124.9522   ZZ=           -116.0436
   XY=              6.3263   XZ=              0.7191   YZ=              0.0855

 Summary of Natural Population Analysis:

                                       Natural Population
                Natural  -----------------------------------------------
    Atom  No    Charge         Core      Valence    Rydberg      Total
 -----------------------------------------------------------------------
      C    1   -0.28577      0.99967     2.28132    0.00478     3.28577
      C    2   -0.19286      0.99964     2.18447    0.00875     3.19286
      C    3   -0.19103      0.99963     2.18207    0.00933     3.19103
      C    4   -0.19229      0.99962     2.18498    0.00769     3.19229
      C    5   -0.19304      0.99962     2.18588    0.00753     3.19304
      C    6   -0.18441      0.99962     2.17768    0.00711     3.18441
      C    7   -0.20780      0.99961     2.19874    0.00945     3.20780
      C    8   -0.07559      0.99951     2.06518    0.01090     3.07559
      C    9   -0.11387      0.99948     2.10344    0.01094     3.11387
      C   10    0.05041      0.99954     1.93496    0.01510     2.94959
      C   11   -0.19141      0.99962     2.18417    0.00762     3.19141
      C   12   -0.28978      0.99966     2.28567    0.00445     3.28978
      O   13   -0.37455      0.99990     3.36810    0.00655     4.37455
      H   14    0.09527      0.00000     0.40339    0.00133     0.40473
      H   15    0.09863      0.00000     0.40003    0.00134     0.40137
      H   16    0.09508      0.00000     0.40352    0.00141     0.40492
      H   17    0.09301      0.00000     0.40564    0.00135     0.40699
      H   18    0.09622      0.00000     0.40243    0.00136     0.40378
      H   19    0.09587      0.00000     0.40264    0.00149     0.40413
      H   20    0.09596      0.00000     0.40283    0.00120     0.40404
      H   21    0.09573      0.00000     0.40273    0.00154     0.40427
      H   22    0.09705      0.00000     0.40173    0.00122     0.40295
      H   23    0.09753      0.00000     0.40105    0.00142     0.40247
      H   24    0.09775      0.00000     0.40098    0.00127     0.40225
      H   25    0.09703      0.00000     0.40171    0.00125     0.40297
      H   26    0.09662      0.00000     0.40198    0.00140     0.40338
      H   27    0.09904      0.00000     0.39915    0.00181     0.40096
      H   28    0.10180      0.00000     0.39659    0.00160     0.39820
      H   29    0.09154      0.00000     0.40681    0.00165     0.40846
      H   30    0.09430      0.00000     0.40431    0.00138     0.40570
      H   31    0.07888      0.00000     0.41887    0.00225     0.42112
      H   32    0.09720      0.00000     0.40160    0.00121     0.40280
      H   33    0.09873      0.00000     0.40004    0.00123     0.40127
      H   34    0.10374      0.00000     0.39495    0.00132     0.39626
      H   35    0.09586      0.00000     0.40309    0.00105     0.40414
      H   36    0.09645      0.00000     0.40243    0.00112     0.40355
      H   37    0.23270      0.00000     0.26316    0.00413     0.26730
 =======================================================================
   * Total *    0.00000     12.99512    38.85833    0.14655    52.00000

 Normal termination of Gaussian 16 at Thu Dec 10 00:20:24 2020.
