 Gaussian 16, Revision A.03,

 -----------------------------------------------------------
 # opt freq B3LYP/6-31G(d) empiricaldispersion=gd3bj scf=xqc
 -----------------------------------------------------------

 -------------------------------
 CID_149033085_JID_5482_neutraal
 -------------------------------
 Symbolic Z-matrix:
 Charge =  0 Multiplicity = 1

 SCF Done:  E(RB3LYP) =  -672.754696822     A.U. after   15 cycles
 SCF Done:  E(RB3LYP) =  -672.759236234     A.U. after   13 cycles
 SCF Done:  E(RB3LYP) =  -672.759923285     A.U. after   12 cycles
 SCF Done:  E(RB3LYP) =  -672.759985727     A.U. after   12 cycles
 SCF Done:  E(RB3LYP) =  -672.760103132     A.U. after   12 cycles
 SCF Done:  E(RB3LYP) =  -672.760383993     A.U. after   12 cycles
 SCF Done:  E(RB3LYP) =  -672.760578942     A.U. after   12 cycles
 SCF Done:  E(RB3LYP) =  -672.760734340     A.U. after   11 cycles
 SCF Done:  E(RB3LYP) =  -672.760867286     A.U. after   12 cycles
 SCF Done:  E(RB3LYP) =  -672.761245669     A.U. after   13 cycles
 SCF Done:  E(RB3LYP) =  -672.771131487     A.U. after    7 cycles
 SCF Done:  E(RB3LYP) =  -672.771131558     A.U. after    7 cycles
 SCF Done:  E(RB3LYP) =  -672.771131600     A.U. after    6 cycles
 SCF Done:  E(RB3LYP) =  -672.771131643     A.U. after    6 cycles
 SCF Done:  E(RB3LYP) =  -672.771131681     A.U. after    7 cycles
 Optimization completed.
    -- Stationary point found.
 Normal termination of Gaussian 16 at Thu Dec 10 16:39:00 2020.

 --------------------------------------------------------------------
 #N Geom=AllCheck Guess=TCheck SCRF=Check GenChk RB3LYP/6-31G(d) Freq
 --------------------------------------------------------------------

 Structure from the checkpoint file:  "JID_5482.chk"
 -------------------------------
 CID_149033085_JID_5482_neutraal
 -------------------------------
 Charge =  0 Multiplicity = 1

 SCF Done:  E(RB3LYP) =  -672.771131681     A.U. after    1 cycles

  Exact polarizability: 161.148  -8.978 132.763  17.024   3.406  99.819
 Approx polarizability: 212.263 -14.287 213.121  40.134   8.312 165.360

                      1                      2                      3
                      A                      A                      A
 Frequencies --     30.5994                44.4761                51.7478
 Red. masses --      4.1913                 4.0576                 3.8220
 Frc consts  --      0.0023                 0.0047                 0.0060
 IR Inten    --      0.9873                 0.4519                 1.1721

                      4                      5                      6
                      A                      A                      A
 Frequencies --     59.1584                91.1670                97.1555
 Red. masses --      3.9851                 4.7270                 1.1726
 Frc consts  --      0.0082                 0.0231                 0.0065
 IR Inten    --      0.1420                 0.1649                 0.1959

                      7                      8                      9
                      A                      A                      A
 Frequencies --    151.8807               176.7090               241.5167
 Red. masses --      4.3621                 3.3951                 1.5059
 Frc consts  --      0.0593                 0.0625                 0.0518
 IR Inten    --      2.1296                 1.6280                 1.0760

                     10                     11                     12
                      A                      A                      A
 Frequencies --    253.6785               266.7788               307.5665
 Red. masses --      2.2742                 1.8170                 3.5466
 Frc consts  --      0.0862                 0.0762                 0.1977
 IR Inten    --      3.9367                 2.0412                 4.1295

                     13                     14                     15
                      A                      A                      A
 Frequencies --    360.3198               374.2730               402.7179
 Red. masses --      2.2589                 2.9532                 3.9391
 Frc consts  --      0.1728                 0.2437                 0.3764
 IR Inten    --      0.5082                 9.1267                 7.9067

                     16                     17                     18
                      A                      A                      A
 Frequencies --    419.2593               424.0898               473.3977
 Red. masses --      3.2045                 3.2780                 2.9000
 Frc consts  --      0.3319                 0.3474                 0.3829
 IR Inten    --      5.1096                 5.8355                 3.2693

                     19                     20                     21
                      A                      A                      A
 Frequencies --    488.6659               505.5288               538.8433
 Red. masses --      1.1690                 3.6014                 2.5924
 Frc consts  --      0.1645                 0.5423                 0.4435
 IR Inten    --     71.8895                 1.6671                11.1945

                     22                     23                     24
                      A                      A                      A
 Frequencies --    582.0949               591.3988               638.2535
 Red. masses --      4.1308                 2.5816                 6.2136
 Frc consts  --      0.8247                 0.5320                 1.4914
 IR Inten    --      9.6283                 5.5293                 0.5031

                     25                     26                     27
                      A                      A                      A
 Frequencies --    652.1488               687.4480               721.9505
 Red. masses --      2.5199                 2.7396                 1.8194
 Frc consts  --      0.6314                 0.7628                 0.5587
 IR Inten    --      3.7117                32.1919                43.5539

                     28                     29                     30
                      A                      A                      A
 Frequencies --    728.3660               770.9154               786.1334
 Red. masses --      2.3377                 1.7376                 3.1295
 Frc consts  --      0.7307                 0.6084                 1.1395
 IR Inten    --     60.5640                11.0834                11.2380

                     31                     32                     33
                      A                      A                      A
 Frequencies --    858.0620               870.6903               917.6660
 Red. masses --      1.8963                 1.2598                 2.3707
 Frc consts  --      0.8226                 0.5627                 1.1763
 IR Inten    --      7.0795                 0.2615                 8.8967

                     34                     35                     36
                      A                      A                      A
 Frequencies --    933.7562               955.2492               976.9144
 Red. masses --      1.3936                 2.5066                 1.3717
 Frc consts  --      0.7159                 1.3476                 0.7713
 IR Inten    --      3.6970                31.1435                 0.2432

                     37                     38                     39
                      A                      A                      A
 Frequencies --    981.2248               996.7179              1004.6375
 Red. masses --      1.8599                 1.5670                 1.3567
 Frc consts  --      1.0551                 0.9172                 0.8068
 IR Inten    --      8.8146                 8.7349                 0.0483

                     40                     41                     42
                      A                      A                      A
 Frequencies --   1021.7007              1041.3479              1059.8687
 Red. masses --      6.1247                 1.7488                 2.0183
 Frc consts  --      3.7669                 1.1173                 1.3358
 IR Inten    --      0.0354                20.6798                 8.6367

                     43                     44                     45
                      A                      A                      A
 Frequencies --   1063.0063              1098.7304              1124.8644
 Red. masses --      2.0796                 2.4933                 1.6849
 Frc consts  --      1.3845                 1.7734                 1.2561
 IR Inten    --      3.3322                16.8857                11.6480

                     46                     47                     48
                      A                      A                      A
 Frequencies --   1143.0215              1177.4931              1193.2704
 Red. masses --      2.1929                 2.4928                 1.0998
 Frc consts  --      1.6880                 2.0363                 0.9227
 IR Inten    --     27.9965                77.2039                 0.4363

                     49                     50                     51
                      A                      A                      A
 Frequencies --   1206.1938              1216.6647              1233.2467
 Red. masses --      2.8423                 1.1546                 2.2104
 Frc consts  --      2.4364                 1.0069                 1.9808
 IR Inten    --     74.8159                 0.3882                 9.8492

                     52                     53                     54
                      A                      A                      A
 Frequencies --   1240.0476              1246.0597              1296.5042
 Red. masses --      1.6838                 2.7562                 1.2259
 Frc consts  --      1.5255                 2.5213                 1.2141
 IR Inten    --     18.3895                48.2179                23.2468

                     55                     56                     57
                      A                      A                      A
 Frequencies --   1362.1592              1372.5646              1381.6907
 Red. masses --      3.9575                 1.3756                 1.3309
 Frc consts  --      4.3264                 1.5269                 1.4970
 IR Inten    --      2.2027                 3.4109                 7.3386

                     58                     59                     60
                      A                      A                      A
 Frequencies --   1407.6723              1413.6715              1425.1125
 Red. masses --      1.2970                 1.2643                 1.2740
 Frc consts  --      1.5142                 1.4887                 1.5245
 IR Inten    --     68.6787                 3.7140                34.9942

                     61                     62                     63
                      A                      A                      A
 Frequencies --   1432.6805              1490.6351              1500.1572
 Red. masses --      1.4526                 1.0495                 1.0661
 Frc consts  --      1.7567                 1.3740                 1.4135
 IR Inten    --     87.1689                 7.7418                10.5286

                     64                     65                     66
                      A                      A                      A
 Frequencies --   1503.3430              1510.3771              1512.2010
 Red. masses --      1.9892                 1.1403                 1.0766
 Frc consts  --      2.6488                 1.5326                 1.4506
 IR Inten    --      4.1213                10.7294                 5.7769

                     67                     68                     69
                      A                      A                      A
 Frequencies --   1518.2100              1525.5111              1548.5210
 Red. masses --      1.1090                 1.0691                 1.8092
 Frc consts  --      1.5060                 1.4658                 2.5560
 IR Inten    --      5.0965                 5.1917                21.3255

                     70                     71                     72
                      A                      A                      A
 Frequencies --   1548.8218              1644.2546              1667.4829
 Red. masses --      1.4216                 5.4526                 5.5054
 Frc consts  --      2.0092                 8.6855                 9.0190
 IR Inten    --      7.9535                 0.9321                 4.6839

                     73                     74                     75
                      A                      A                      A
 Frequencies --   1799.7604              3040.9347              3054.5026
 Red. masses --     10.6107                 1.0622                 1.0682
 Frc consts  --     20.2500                 5.7872                 5.8719
 IR Inten    --    117.5580                24.1653                50.4295

                     76                     77                     78
                      A                      A                      A
 Frequencies --   3060.6384              3065.3086              3084.9793
 Red. masses --      1.0417                 1.0356                 1.1041
 Frc consts  --      5.7496                 5.7329                 6.1909
 IR Inten    --      0.8877                10.2471                34.3546

                     79                     80                     81
                      A                      A                      A
 Frequencies --   3133.7219              3136.4967              3144.5469
 Red. masses --      1.0912                 1.1002                 1.0944
 Frc consts  --      6.3138                 6.3767                 6.3761
 IR Inten    --      8.6815                17.0635                12.4629

                     82                     83                     84
                      A                      A                      A
 Frequencies --   3153.4754              3171.0051              3178.4408
 Red. masses --      1.1045                 1.0866                 1.1063
 Frc consts  --      6.4711                 6.4374                 6.5848
 IR Inten    --     15.9896                 9.4485                 5.6064

                     85                     86                     87
                      A                      A                      A
 Frequencies --   3181.6794              3192.1614              3204.5581
 Red. masses --      1.0866                 1.0916                 1.0944
 Frc consts  --      6.4811                 6.5536                 6.6216
 IR Inten    --      0.9538                31.8309                24.2297

                     88                     89                     90
                      A                      A                      A
 Frequencies --   3211.3949              3505.2770              3579.6660
 Red. masses --      1.0961                 1.0736                 1.0643
 Frc consts  --      6.6600                 7.7717                 8.0350
 IR Inten    --     11.5191                 6.5491               111.6748

 - Thermochemistry -
 -------------------
 Temperature   298.150 Kelvin.  Pressure   1.00000 Atm.
 Atom     1 has atomic number  6 and mass  12.00000

 Molecular mass:   207.12593 amu.
 Principal axes and moments of inertia in atomic units:
                           1         2         3
     Eigenvalues --  1338.108255687.118926061.80042
           X            0.99995   0.00196  -0.00970
           Y           -0.00209   0.99991  -0.01304
           Z            0.00967   0.01306   0.99987
 This molecule is an asymmetric top.
 Rotational symmetry number  1.
 Warning -- assumption of classical behavior for rotation
           may cause significant error
 Rotational temperatures (Kelvin)      0.06473     0.01523     0.01429
 Rotational constants (GHZ):           1.34873     0.31734     0.29772
 Zero-point vibrational energy     720383.9 (Joules/Mol)
                                  172.17590 (Kcal/Mol)
 Warning -- explicit consideration of  23 degrees of freedom as
           vibrations may cause significant error
 Vibrational temperatures:     44.03    63.99    74.45    85.12   131.17
          (Kelvin)            139.79   218.52   254.24   347.49   364.99
                              383.84   442.52   518.42   538.50   579.42
                              603.22   610.17   681.11   703.08   727.34
                              775.28   837.50   850.89   918.30   938.30
                              989.08  1038.73  1047.96  1109.18  1131.07
                             1234.56  1252.73  1320.32  1343.47  1374.39
                             1405.56  1411.76  1434.05  1445.45  1470.00
                             1498.27  1524.91  1529.43  1580.83  1618.43
                             1644.55  1694.15  1716.85  1735.44  1750.51
                             1774.37  1784.15  1792.80  1865.38  1959.84
                             1974.81  1987.94  2025.33  2033.96  2050.42
                             2061.31  2144.69  2158.39  2162.98  2173.10
                             2175.72  2184.37  2194.87  2227.98  2228.41
                             2365.72  2399.14  2589.45  4375.23  4394.75
                             4403.58  4410.30  4438.60  4508.73  4512.72
                             4524.30  4537.15  4562.37  4573.07  4577.73
                             4592.81  4610.64  4620.48  5043.31  5150.34

 Zero-point correction=                           0.274380 (Hartree/Particle)
 Thermal correction to Energy=                    0.289564
 Thermal correction to Enthalpy=                  0.290508
 Thermal correction to Gibbs Free Energy=         0.230892
 Sum of electronic and zero-point Energies=           -672.496752
 Sum of electronic and thermal Energies=              -672.481567
 Sum of electronic and thermal Enthalpies=            -672.480623
 Sum of electronic and thermal Free Energies=         -672.540240

                     E (Thermal)             CV                S
                      KCal/Mol        Cal/Mol-Kelvin    Cal/Mol-Kelvin
 Total                  181.704             57.770            125.474
 Electronic               0.000              0.000              0.000
 Translational            0.889              2.981             41.888
 Rotational               0.889              2.981             32.201
 Vibrational            179.927             51.809             51.385
 Vibration     1          0.594              1.984              5.790
 Vibration     2          0.595              1.980              5.049
 Vibration     3          0.596              1.977              4.749
 Vibration     4          0.597              1.974              4.485
 Vibration     5          0.602              1.955              3.635
 Vibration     6          0.603              1.951              3.511
 Vibration     7          0.619              1.901              2.649
 Vibration     8          0.628              1.871              2.363
 Vibration     9          0.658              1.777              1.792
 Vibration    10          0.665              1.757              1.705
 Vibration    11          0.672              1.734              1.617
 Vibration    12          0.697              1.659              1.375
 Vibration    13          0.735              1.554              1.121
 Vibration    14          0.745              1.525              1.062
 Vibration    15          0.768              1.464              0.953
 Vibration    16          0.782              1.428              0.894
 Vibration    17          0.786              1.418              0.878
 Vibration    18          0.830              1.309              0.728
 Vibration    19          0.845              1.275              0.687
 Vibration    20          0.861              1.238              0.644
 Vibration    21          0.894              1.164              0.568
 Vibration    22          0.939              1.070              0.481
 Vibration    23          0.949              1.050              0.465

 Optimization completed.
    -- Stationary point found.
 Normal termination of Gaussian 16 at Thu Dec 10 16:51:10 2020.

 ----------------------------------------------------------------------
 # B3LYP/6-311++G(d,p) empiricaldispersion=gd3bj scf=xqc pop=npa geom=c
 heck
 ----------------------------------------------------------------------

 ---------------------------------------
 CID_149033085_JID_5482_Energie_neutraal
 ---------------------------------------
 Structure from the checkpoint file:  "JID_5482.chk"
 Charge =  0 Multiplicity = 1

 SCF Done:  E(RB3LYP) =  -672.969645504     A.U. after   15 cycles
 Normal termination of Gaussian 16 at Thu Dec 10 16:55:56 2020.

 ----------------------------------------------------------------------
 # B3LYP/6-311++G(d,p) empiricaldispersion=gd3bj scf=xqc pop=npa geom=c
 heck
 ----------------------------------------------------------------------

 -------------------------------------
 CID_149033085_JID_5482_Energie_kation
 -------------------------------------
 Structure from the checkpoint file:  "JID_5482.chk"
 Charge =  1 Multiplicity = 2

 SCF Done:  E(UB3LYP) =  -672.667268501     A.U. after   26 cycles
 Normal termination of Gaussian 16 at Thu Dec 10 17:10:21 2020.
 Gaussian 16:  ES64L-G16RevA.03 25-Dec-2016

 ----------------------------------------------------------------------
 # B3LYP/6-311++G(d,p) empiricaldispersion=gd3bj scf=xqc pop=npa geom=c
 heck
 ----------------------------------------------------------------------

 ------------------------------------
 CID_149033085_JID_5482_Energie_anion
 ------------------------------------
 Structure from the checkpoint file:  "JID_5482.chk"
 Charge = -1 Multiplicity = 2

                         Standard orientation:
 ---------------------------------------------------------------------
 Center     Atomic      Atomic             Coordinates (Angstroms)
 Number     Number       Type             X           Y           Z
 ---------------------------------------------------------------------
      1          6           0        3.763492   -0.537327   -1.261351
      2          6           0        3.082554   -0.161202    0.028295
      3          8           0        3.551493   -0.425708    1.123277
      4          6           0        1.734508    0.603961   -0.042205
      5          6           0        1.926665    1.951379   -0.751414
      6          7           0        0.808322   -0.195704   -0.816859
      7          6           0        0.377435   -1.477446   -0.258353
      8          6           0       -0.681978   -1.422534    0.871005
      9          6           0       -1.903699   -0.639335    0.455825
     10          6           0       -2.957125   -1.259107   -0.228793
     11          6           0       -4.057878   -0.523984   -0.667923
     12          6           0       -4.120419    0.850548   -0.431879
     13          6           0       -3.076625    1.480491    0.247034
     14          6           0       -1.976636    0.742341    0.687360
     15          8           0        1.323923    0.867097    1.294889
     16          1           0        4.541734   -1.277565   -1.066680
     17          1           0        4.229141    0.355625   -1.697291
     18          1           0        3.031561   -0.908229   -1.982569
     19          1           0        2.208979    1.821655   -1.799351
     20          1           0        0.981919    2.503466   -0.705742
     21          1           0        2.685968    2.544783   -0.234382
     22          1           0       -0.005511    0.365394   -1.059940
     23          1           0       -0.028354   -2.069801   -1.087950
     24          1           0        1.263514   -2.011126    0.106379
     25          1           0       -0.962334   -2.454695    1.117379
     26          1           0       -0.233534   -0.973187    1.758499
     27          1           0       -2.914469   -2.330418   -0.413627
     28          1           0       -4.868312   -1.024272   -1.191336
     29          1           0       -4.978083    1.424623   -0.771445
     30          1           0       -3.119656    2.549347    0.439462
     31          1           0       -1.161833    1.228289    1.216137
     32          1           0        2.005918    0.448224    1.859543
 ---------------------------------------------------------------------

 SCF Done:  E(UB3LYP) =  -672.959308641     A.U. after   33 cycles
 SCF Done:  E(UB3LYP) =  -672.959308641     a.u. after    1 cycles

 The electronic state is 2-A.
 Alpha  occ. eigenvalues --  -19.00615 -18.99326 -14.19555 -10.14647 -10.12313
 Alpha  occ. eigenvalues --  -10.09462 -10.08004 -10.07612 -10.07488 -10.07332
 Alpha  occ. eigenvalues --  -10.07250 -10.06924 -10.06686 -10.06327 -10.05996
 Alpha  occ. eigenvalues --   -0.94492  -0.90434  -0.80128  -0.75799  -0.68606
 Alpha  occ. eigenvalues --   -0.65378  -0.64642  -0.62383  -0.60268  -0.53461
 Alpha  occ. eigenvalues --   -0.52090  -0.50628  -0.47929  -0.44119  -0.41517
 Alpha  occ. eigenvalues --   -0.40311  -0.38352  -0.37443  -0.35854  -0.35139
 Alpha  occ. eigenvalues --   -0.33293  -0.32654  -0.32345  -0.32196  -0.31146
 Alpha  occ. eigenvalues --   -0.30881  -0.29569  -0.29079  -0.28367  -0.27796
 Alpha  occ. eigenvalues --   -0.26103  -0.25674  -0.24783  -0.24327  -0.23596
 Alpha  occ. eigenvalues --   -0.22674  -0.18443  -0.15759  -0.15574  -0.14644
 Alpha  occ. eigenvalues --   -0.12766   0.04582
 Alpha virt. eigenvalues --    0.05967   0.07133   0.07198   0.07988   0.08294
 Alpha virt. eigenvalues --    0.08681   0.09184   0.09890   0.10163   0.10559
 Alpha virt. eigenvalues --    0.10952   0.11708   0.12395   0.13036   0.13229

  Beta  occ. eigenvalues --  -19.00613 -18.99053 -14.19522 -10.14668 -10.11954
  Beta  occ. eigenvalues --  -10.09445 -10.07991 -10.07604 -10.07473 -10.07302
  Beta  occ. eigenvalues --  -10.07230 -10.06918 -10.06684 -10.06305 -10.06011
  Beta  occ. eigenvalues --   -0.94175  -0.90179  -0.80073  -0.75760  -0.68540
  Beta  occ. eigenvalues --   -0.65227  -0.64602  -0.62200  -0.60215  -0.53382
  Beta  occ. eigenvalues --   -0.51898  -0.50585  -0.47868  -0.43992  -0.41425
  Beta  occ. eigenvalues --   -0.40090  -0.38109  -0.37297  -0.35767  -0.35085
  Beta  occ. eigenvalues --   -0.32960  -0.32456  -0.32271  -0.32116  -0.30974
  Beta  occ. eigenvalues --   -0.30831  -0.29480  -0.29002  -0.28301  -0.27708
  Beta  occ. eigenvalues --   -0.26047  -0.25621  -0.24322  -0.23732  -0.23356
  Beta  occ. eigenvalues --   -0.22499  -0.18402  -0.15693  -0.15465  -0.14518
  Beta  occ. eigenvalues --   -0.12684
  Beta virt. eigenvalues --    0.06742   0.07487   0.07615   0.08289   0.08311
  Beta virt. eigenvalues --    0.08897   0.09192   0.09842   0.10024   0.10403
  Beta virt. eigenvalues --    0.10871   0.10974   0.11884   0.12572   0.13035

 Mulliken charges and spin densities:
               1          2
     1  C    0.283446  -0.863426
     2  C   -0.425619   0.750102
     3  O   -0.314828   0.085749
     4  C   -1.215268   0.360919
     5  C    0.348339  -0.586023
     6  N    0.192671  -0.071272
     7  C   -0.100895  -0.297630
     8  C    0.840200  -1.213689
     9  C    0.144258   0.800502
    10  C   -0.558200   0.287630
    11  C    0.636046  -0.971768
    12  C    1.068743  -1.420750
    13  C   -0.293463  -0.011723
    14  C   -1.069598   0.756540
    15  O   -0.133759  -0.003078
    16  H    0.111230   0.037265
    17  H   -0.413244   0.588573
    18  H    0.143690   0.033490
    19  H    0.014455   0.147682
    20  H    0.170914  -0.023896
    21  H    0.048184   0.117172
    22  H    0.261473  -0.036031
    23  H    0.020223   0.160269
    24  H    0.238685  -0.093580
    25  H   -0.054144   0.229626
    26  H    0.152257   0.017360
    27  H   -0.248983   0.393419
    28  H   -0.838953   1.021660
    29  H   -0.375172   0.526056
    30  H   -0.072804   0.242836
    31  H    0.240973  -0.018759
    32  H    0.199142   0.054775
 Sum of Mulliken charges =  -1.00000   1.00000

 Dipole moment (field-independent basis, Debye):
    X=              2.0543    Y=              0.3138    Z=              1.6224  Tot=              2.6364
 Quadrupole moment (field-independent basis, Debye-Ang):
   XX=           -195.5087   YY=           -116.4252   ZZ=           -120.6933
   XY=             -7.2374   XZ=             -6.9325   YZ=              0.7078

 Summary of Natural Population Analysis:

                                       Natural Population
                Natural  -----------------------------------------------
    Atom  No    Charge         Core      Valence    Rydberg      Total
 -----------------------------------------------------------------------
      C    1   -0.33993      0.99962     2.33450    0.00581     3.33993
      C    2    0.32850      0.99963     1.64893    0.02294     2.67150
      O    3   -0.28546      0.99987     3.27885    0.00674     4.28546
      C    4    0.17950      0.99954     1.80328    0.01769     2.82050
      C    5   -0.28913      0.99962     2.28182    0.00769     3.28913
      N    6   -0.34579      0.99971     2.83565    0.01042     3.84579
      C    7   -0.08420      0.99962     2.07284    0.01175     3.08420
      C    8   -0.20799      0.99959     2.19993    0.00846     3.20799
      C    9   -0.01611      0.99950     2.00559    0.01101     3.01611
      C   10   -0.10068      0.99950     2.09075    0.01042     3.10068
      C   11   -0.09956      0.99956     2.08936    0.01063     3.09956
      C   12   -0.10473      0.99956     2.09459    0.01058     3.10473
      C   13   -0.10150      0.99956     2.09182    0.01012     3.10150
      C   14   -0.11122      0.99951     2.10196    0.00975     3.11122
      O   15   -0.39415      0.99989     3.38748    0.00678     4.39415
      H   16    0.10537      0.00000     0.39362    0.00101     0.39463
      H   17    0.11522      0.00000     0.38087    0.00391     0.38478
      H   18    0.11375      0.00000     0.38513    0.00112     0.38625
      H   19    0.10288      0.00000     0.39621    0.00092     0.39712
      H   20    0.10065      0.00000     0.39832    0.00103     0.39935
      H   21    0.10288      0.00000     0.39617    0.00095     0.39712
      H   22    0.17898      0.00000     0.31858    0.00245     0.32102
      H   23    0.09106      0.00000     0.40795    0.00100     0.40894
      H   24    0.09741      0.00000     0.40163    0.00096     0.40259
      H   25    0.09888      0.00000     0.40012    0.00100     0.40112
      H   26    0.11005      0.00000     0.38870    0.00125     0.38995
      H   27    0.09968      0.00000     0.39893    0.00139     0.40032
      H   28    0.10230      0.00000     0.39548    0.00222     0.39770
      H   29    0.10074      0.00000     0.39794    0.00132     0.39926
      H   30    0.09848      0.00000     0.40071    0.00081     0.40152
      H   31    0.11259      0.00000     0.38575    0.00166     0.38741
      H   32    0.24154      0.00000     0.25513    0.00333     0.25846
 =======================================================================
   * Total *    0.00000     14.99427    40.81860    0.18713    56.00000

 Normal termination of Gaussian 16 at Thu Dec 10 17:26:54 2020.
