 Gaussian 16, Revision A.03,

 -----------------------------------------------------------
 # opt freq B3LYP/6-31G(d) empiricaldispersion=gd3bj scf=xqc
 -----------------------------------------------------------

 -----------------------------
 CID_79006787_JID_273_neutraal
 -----------------------------
 Symbolic Z-matrix:
 Charge =  0 Multiplicity = 1

 SCF Done:  E(RB3LYP) =  -781.716935534     A.U. after   14 cycles
 SCF Done:  E(RB3LYP) =  -781.722921288     A.U. after   12 cycles
 SCF Done:  E(RB3LYP) =  -781.723776859     A.U. after   11 cycles
 SCF Done:  E(RB3LYP) =  -781.723965153     A.U. after   11 cycles
 SCF Done:  E(RB3LYP) =  -781.723981944     A.U. after   10 cycles
 SCF Done:  E(RB3LYP) =  -781.723983647     A.U. after    9 cycles
 SCF Done:  E(RB3LYP) =  -781.723987414     A.U. after    8 cycles
 SCF Done:  E(RB3LYP) =  -781.723987457     A.U. after    7 cycles
 Optimization completed.
    -- Stationary point found.
 Normal termination of Gaussian 16 at Tue Dec  8 10:20:49 2020.

 --------------------------------------------------------------------
 #N Geom=AllCheck Guess=TCheck SCRF=Check GenChk RB3LYP/6-31G(d) Freq
 --------------------------------------------------------------------

 Structure from the checkpoint file:  "JID_273.chk"
 -----------------------------
 CID_79006787_JID_273_neutraal
 -----------------------------
 Charge =  0 Multiplicity = 1

 SCF Done:  E(RB3LYP) =  -781.723987457     A.U. after    1 cycles

  Exact polarizability: 129.983   3.607 109.875  -0.000  -0.001  66.547
 Approx polarizability: 204.767   7.443 162.807  -0.006  -0.003  95.526

                      1                      2                      3
                      A                      A                      A
 Frequencies --     69.1973                97.0905               169.5851
 Red. masses --      2.9728                 3.4397                 2.8977
 Frc consts  --      0.0084                 0.0191                 0.0491
 IR Inten    --      2.0702                 0.8750                 0.5895

                      4                      5                      6
                      A                      A                      A
 Frequencies --    206.3047               223.0202               227.4857
 Red. masses --      4.0728                 1.1510                 1.1549
 Frc consts  --      0.1021                 0.0337                 0.0352
 IR Inten    --      5.0156                 0.0820                 0.0258

                      7                      8                      9
                      A                      A                      A
 Frequencies --    240.3636               249.8674               284.0444
 Red. masses --      1.1609                 2.9243                 3.3840
 Frc consts  --      0.0395                 0.1076                 0.1609
 IR Inten    --      0.0782                 0.4004                 0.0485

                     10                     11                     12
                      A                      A                      A
 Frequencies --    319.6466               408.1553               423.2220
 Red. masses --      2.6471                 2.6700                 3.3524
 Frc consts  --      0.1594                 0.2621                 0.3538
 IR Inten    --      1.3224                 0.0234                12.8561

                     13                     14                     15
                      A                      A                      A
 Frequencies --    465.9661               537.4022               553.1801
 Red. masses --      5.1747                 1.3073                 3.5338
 Frc consts  --      0.6620                 0.2224                 0.6371
 IR Inten    --     12.2032                79.4314                 6.0552

                     16                     17                     18
                      A                      A                      A
 Frequencies --    623.9023               635.1442               691.1526
 Red. masses --      2.4550                 3.4784                 7.3776
 Frc consts  --      0.5630                 0.8267                 2.0764
 IR Inten    --      2.2027                 2.2590                 3.7833

                     19                     20                     21
                      A                      A                      A
 Frequencies --    721.2553               733.8129               900.8782
 Red. masses --      1.3520                 4.0878                 2.4948
 Frc consts  --      0.4144                 1.2969                 1.1929
 IR Inten    --     28.5998                 3.8911                 3.0870

                     22                     23                     24
                      A                      A                      A
 Frequencies --    949.4698               967.5659               988.9564
 Red. masses --      1.1549                 1.5073                 3.5917
 Frc consts  --      0.6134                 0.8314                 2.0697
 IR Inten    --      1.9898                 0.0410                 4.8273

                     25                     26                     27
                      A                      A                      A
 Frequencies --   1024.5950              1082.9442              1090.5934
 Red. masses --      1.4862                 1.4317                 1.6726
 Frc consts  --      0.9192                 0.9893                 1.1721
 IR Inten    --      2.9909                 1.1261                24.7117

                     28                     29                     30
                      A                      A                      A
 Frequencies --   1137.1292              1170.0598              1188.8876
 Red. masses --      1.7731                 2.2257                 2.8870
 Frc consts  --      1.3509                 1.7953                 2.4042
 IR Inten    --      7.1041                 4.0409                32.2828

                     31                     32                     33
                      A                      A                      A
 Frequencies --   1220.3993              1243.1579              1306.4646
 Red. masses --      2.2210                 2.2432                 4.1313
 Frc consts  --      1.9489                 2.0426                 4.1546
 IR Inten    --     16.6057                31.2697               103.5570

                     34                     35                     36
                      A                      A                      A
 Frequencies --   1334.4373              1372.4526              1414.5670
 Red. masses --      3.6588                 1.3358                 4.0677
 Frc consts  --      3.8387                 1.4825                 4.7957
 IR Inten    --     24.6271                 2.3805                75.1670

                     37                     38                     39
                      A                      A                      A
 Frequencies --   1426.3859              1437.3954              1449.1295
 Red. masses --      1.2632                 1.3424                 1.2770
 Frc consts  --      1.5142                 1.6341                 1.5800
 IR Inten    --     14.6737                28.5666                 1.3766

                     40                     41                     42
                      A                      A                      A
 Frequencies --   1459.3175              1507.8640              1510.3923
 Red. masses --      1.3462                 1.0409                 1.0415
 Frc consts  --      1.6891                 1.3944                 1.3998
 IR Inten    --      5.5738                 1.2479                 9.3742

                     43                     44                     45
                      A                      A                      A
 Frequencies --   1512.5854              1525.9481              1530.0388
 Red. masses --      1.6486                 1.0974                 1.2586
 Frc consts  --      2.2223                 1.5055                 1.7359
 IR Inten    --    222.7182                 7.9784                25.7639

                     46                     47                     48
                      A                      A                      A
 Frequencies --   1531.5083              1551.9109              1688.0151
 Red. masses --      1.0490                 1.1024                 5.8973
 Frc consts  --      1.4497                 1.5643                 9.9005
 IR Inten    --      0.3225                11.8604                10.8802

                     49                     50                     51
                      A                      A                      A
 Frequencies --   3043.9570              3057.7746              3061.7396
 Red. masses --      1.0387                 1.0370                 1.0382
 Frc consts  --      5.6704                 5.7129                 5.7343
 IR Inten    --     28.3767                29.3677                20.7905

                     52                     53                     54
                      A                      A                      A
 Frequencies --   3094.0181              3100.1471              3122.3447
 Red. masses --      1.1019                 1.0837                 1.1031
 Frc consts  --      6.2149                 6.1364                 6.3361
 IR Inten    --     14.4282                21.7270                15.4141

                     55                     56                     57
                      A                      A                      A
 Frequencies --   3125.8615              3137.2015              3162.8040
 Red. masses --      1.1026                 1.0986                 1.1010
 Frc consts  --      6.3478                 6.3707                 6.4889
 IR Inten    --     44.5702                13.2295                 0.5224

                     58                     59                     60
                      A                      A                      A
 Frequencies --   3167.1071              3303.0394              3672.3764
 Red. masses --      1.1002                 1.0993                 1.0810
 Frc consts  --      6.5020                 7.0663                 8.5896
 IR Inten    --      8.7294                 1.2535                85.3598

 - Thermochemistry -
 -------------------
 Temperature   298.150 Kelvin.  Pressure   1.00000 Atm.
 Atom     1 has atomic number  6 and mass  12.00000

 Molecular mass:   156.07212 amu.
 Principal axes and moments of inertia in atomic units:
                           1         2         3
     Eigenvalues --  1303.772951586.499182481.12701
           X            0.99518  -0.09804   0.00001
           Y            0.09804   0.99518  -0.00000
           Z           -0.00001   0.00000   1.00000
 This molecule is an asymmetric top.
 Rotational symmetry number  1.
 Warning -- assumption of classical behavior for rotation
           may cause significant error
 Rotational temperatures (Kelvin)      0.06643     0.05459     0.03491
 Rotational constants (GHZ):           1.38425     1.13756     0.72739
 Zero-point vibrational energy     493167.8 (Joules/Mol)
                                  117.86994 (Kcal/Mol)
 Warning -- explicit consideration of  15 degrees of freedom as
           vibrations may cause significant error
 Vibrational temperatures:     99.56   139.69   244.00   296.83   320.88
          (Kelvin)            327.30   345.83   359.50   408.68   459.90
                              587.24   608.92   670.42   773.20   795.90
                              897.66   913.83   994.41  1037.73  1055.79
                             1296.16  1366.08  1392.11  1422.89  1474.16
                             1558.12  1569.12  1636.08  1683.46  1710.54
                             1755.88  1788.63  1879.71  1919.96  1974.65
                             2035.25  2052.25  2068.09  2084.97  2099.63
                             2169.48  2173.12  2176.27  2195.50  2201.38
                             2203.50  2232.85  2428.68  4379.58  4399.46
                             4405.16  4451.60  4460.42  4492.36  4497.42
                             4513.73  4550.57  4556.76  4752.34  5283.73

 Zero-point correction=                           0.187838 (Hartree/Particle)
 Thermal correction to Energy=                    0.198515
 Thermal correction to Enthalpy=                  0.199460
 Thermal correction to Gibbs Free Energy=         0.151987
 Sum of electronic and zero-point Energies=           -781.536150
 Sum of electronic and thermal Energies=              -781.525472
 Sum of electronic and thermal Enthalpies=            -781.524528
 Sum of electronic and thermal Free Energies=         -781.572000

                     E (Thermal)             CV                S
                      KCal/Mol        Cal/Mol-Kelvin    Cal/Mol-Kelvin
 Total                  124.570             40.028             99.913
 Electronic               0.000              0.000              0.000
 Translational            0.889              2.981             41.045
 Rotational               0.889              2.981             30.019
 Vibrational            122.793             34.067             28.850
 Vibration     1          0.598              1.969              4.176
 Vibration     2          0.603              1.951              3.512
 Vibration     3          0.625              1.880              2.440
 Vibration     4          0.641              1.831              2.076
 Vibration     5          0.649              1.806              1.934
 Vibration     6          0.651              1.799              1.899
 Vibration     7          0.657              1.779              1.800
 Vibration     8          0.663              1.763              1.732
 Vibration     9          0.682              1.703              1.509
 Vibration    10          0.706              1.636              1.312
 Vibration    11          0.773              1.453              0.933
 Vibration    12          0.785              1.420              0.881
 Vibration    13          0.823              1.326              0.749
 Vibration    14          0.892              1.167              0.571
 Vibration    15          0.909              1.133              0.538

 Optimization completed.
    -- Stationary point found.
 Normal termination of Gaussian 16 at Tue Dec  8 10:25:13 2020.

 ----------------------------------------------------------------------
 # B3LYP/6-311++G(d,p) empiricaldispersion=gd3bj scf=xqc pop=npa geom=c
 heck
 ----------------------------------------------------------------------

 -------------------------------------
 CID_79006787_JID_273_Energie_neutraal
 -------------------------------------
 Structure from the checkpoint file:  "JID_273.chk"
 Charge =  0 Multiplicity = 1

 SCF Done:  E(RB3LYP) =  -781.856182146     A.U. after   16 cycles
 Normal termination of Gaussian 16 at Tue Dec  8 10:27:21 2020.

 ----------------------------------------------------------------------
 # B3LYP/6-311++G(d,p) empiricaldispersion=gd3bj scf=xqc pop=npa geom=c
 heck
 ----------------------------------------------------------------------

 -----------------------------------
 CID_79006787_JID_273_Energie_kation
 -----------------------------------
 Structure from the checkpoint file:  "JID_273.chk"
 Charge =  1 Multiplicity = 2

 SCF Done:  E(UB3LYP) =  -781.594786315     A.U. after   19 cycles
 Normal termination of Gaussian 16 at Tue Dec  8 10:30:59 2020.
 Gaussian 16:  ES64L-G16RevA.03 25-Dec-2016

 ----------------------------------------------------------------------
 # B3LYP/6-311++G(d,p) empiricaldispersion=gd3bj scf=xqc pop=npa geom=c
 heck
 ----------------------------------------------------------------------

 ----------------------------------
 CID_79006787_JID_273_Energie_anion
 ----------------------------------
 Structure from the checkpoint file:  "JID_273.chk"
 Charge = -1 Multiplicity = 2

                         Standard orientation:
 ---------------------------------------------------------------------
 Center     Atomic      Atomic             Coordinates (Angstroms)
 Number     Number       Type             X           Y           Z
 ---------------------------------------------------------------------
      1          6           0        2.821393    0.735899   -0.000179
      2          6           0        1.687678   -0.232649   -0.000030
      3          6           0        1.719966   -1.588508    0.000069
      4          7           0        0.405082   -2.023084   -0.000190
      5          6           0       -0.473682   -0.973409   -0.000100
      6         16           0       -2.152035   -1.124699    0.000126
      7          7           0        0.334770    0.144224   -0.000446
      8          6           0       -0.128388    1.547173   -0.000147
      9          6           0       -0.900343    1.879939   -1.279704
     10          6           0       -0.899102    1.879422    1.280291
     11          1           0        2.813621    1.383212   -0.885609
     12          1           0        3.765489    0.184256    0.000124
     13          1           0        2.813414    1.383794    0.884820
     14          1           0        2.558470   -2.266439    0.000022
     15          1           0        0.072097   -2.975157    0.000126
     16          1           0        0.791158    2.137624   -0.000590
     17          1           0       -1.826195    1.304252   -1.333788
     18          1           0       -1.143693    2.947885   -1.289170
     19          1           0       -0.295238    1.655240   -2.164492
     20          1           0       -0.292826    1.655217    2.164405
     21          1           0       -1.143394    2.947148    1.290063
     22          1           0       -1.824446    1.302974    1.335338
 ---------------------------------------------------------------------

 SCF Done:  E(UB3LYP) =  -781.847102585     A.U. after   29 cycles

 The electronic state is 2-A.
 Alpha  occ. eigenvalues --  -88.68027 -14.27225 -14.26837 -10.17259 -10.12433
 Alpha  occ. eigenvalues --  -10.11743 -10.10518 -10.07597 -10.06291 -10.06291
 Alpha  occ. eigenvalues --   -7.76789  -5.73256  -5.72542  -5.72344  -0.94030
 Alpha  occ. eigenvalues --   -0.82451  -0.71098  -0.68550  -0.62859  -0.59544
 Alpha  occ. eigenvalues --   -0.58687  -0.54421  -0.50475  -0.46784  -0.42894
 Alpha  occ. eigenvalues --   -0.37852  -0.37403  -0.37103  -0.33957  -0.32327
 Alpha  occ. eigenvalues --   -0.31796  -0.31192  -0.30306  -0.29255  -0.28196
 Alpha  occ. eigenvalues --   -0.26435  -0.26175  -0.24754  -0.20004  -0.17546
 Alpha  occ. eigenvalues --   -0.10872  -0.09002   0.04166
 Alpha virt. eigenvalues --    0.06450   0.07729   0.08380   0.09372   0.10009
 Alpha virt. eigenvalues --    0.10011   0.10960   0.11237   0.12437   0.12564
 Alpha virt. eigenvalues --    0.13147   0.13249   0.14067   0.15559   0.15593

  Beta  occ. eigenvalues --  -88.68026 -14.27218 -14.26824 -10.17260 -10.12419
  Beta  occ. eigenvalues --  -10.11744 -10.10482 -10.07527 -10.06273 -10.06273
  Beta  occ. eigenvalues --   -7.76789  -5.73255  -5.72541  -5.72344  -0.94014
  Beta  occ. eigenvalues --   -0.82428  -0.71070  -0.68519  -0.62797  -0.59508
  Beta  occ. eigenvalues --   -0.58647  -0.54381  -0.50417  -0.46742  -0.42840
  Beta  occ. eigenvalues --   -0.37807  -0.37380  -0.37041  -0.33913  -0.32251
  Beta  occ. eigenvalues --   -0.31751  -0.31159  -0.30249  -0.29234  -0.28165
  Beta  occ. eigenvalues --   -0.26419  -0.26149  -0.24721  -0.19987  -0.17528
  Beta  occ. eigenvalues --   -0.10867  -0.08990
  Beta virt. eigenvalues --    0.06836   0.07713   0.08585   0.08728   0.10244
  Beta virt. eigenvalues --    0.10298   0.10496   0.11377   0.11459   0.12700
  Beta virt. eigenvalues --    0.13043   0.13359   0.13651   0.14319   0.15542

 Mulliken charges and spin densities:
               1          2
     1  C    4.826715  -5.576050
     2  C   -2.414161   2.835707
     3  C    0.542495  -0.847245
     4  N    0.021952  -0.049127
     5  C    0.028977   0.006364
     6  S   -0.522298  -0.206428
     7  N    0.231621   0.113070
     8  C   -0.950194   0.738011
     9  C    0.237534  -0.673864
    10  C    0.236890  -0.672950
    11  H   -0.493974   0.673189
    12  H   -0.416500   0.588575
    13  H   -0.494094   0.673271
    14  H   -1.623243   1.819709
    15  H    0.137903   0.193394
    16  H   -0.314499   0.473351
    17  H    0.144688   0.007355
    18  H   -0.133531   0.265599
    19  H   -0.028806   0.182695
    20  H   -0.028621   0.182497
    21  H   -0.133417   0.265460
    22  H    0.144564   0.007417
 Sum of Mulliken charges =  -1.00000   1.00000

 Dipole moment (field-independent basis, Debye):
    X=             -5.7020    Y=              0.6410    Z=              0.0012  Tot=              5.7379
 Quadrupole moment (field-independent basis, Debye-Ang):
   XX=           -137.9162   YY=           -115.7627   ZZ=            -97.2762
   XY=             -0.9108   XZ=              0.0018   YZ=              0.0032

 Summary of Natural Population Analysis:

                                       Natural Population
                Natural  -----------------------------------------------
    Atom  No    Charge         Core      Valence    Rydberg      Total
 -----------------------------------------------------------------------
      C    1   -0.30480      0.99963     2.29900    0.00616     3.30480
      C    2    0.07838      0.99951     1.90941    0.01271     2.92162
      C    3   -0.02595      0.99947     2.01391    0.01257     3.02595
      N    4   -0.27775      0.99965     2.76688    0.01123     3.77775
      C    5    0.13138      0.99961     1.84781    0.02120     2.86862
      S    6   -0.17560      4.99961     3.16292    0.01306     8.17560
      N    7   -0.22662      0.99958     2.71221    0.01483     3.72662
      C    8   -0.00391      0.99959     1.99147    0.01284     3.00391
      C    9   -0.29237      0.99964     2.28672    0.00602     3.29237
      C   10   -0.29239      0.99964     2.28673    0.00602     3.29239
      H   11    0.10932      0.00000     0.38818    0.00250     0.39068
      H   12    0.11711      0.00000     0.37983    0.00305     0.38289
      H   13    0.10932      0.00000     0.38819    0.00250     0.39068
      H   14    0.11353      0.00000     0.38082    0.00565     0.38647
      H   15    0.20877      0.00000     0.28905    0.00218     0.29123
      H   16    0.10300      0.00000     0.39410    0.00289     0.39700
      H   17    0.11320      0.00000     0.38574    0.00106     0.38680
      H   18    0.09933      0.00000     0.39993    0.00074     0.40067
      H   19    0.10176      0.00000     0.39734    0.00090     0.39824
      H   20    0.10176      0.00000     0.39734    0.00090     0.39824
      H   21    0.09933      0.00000     0.39993    0.00074     0.40067
      H   22    0.11321      0.00000     0.38573    0.00106     0.38679
 =======================================================================
   * Total *   -0.00000     13.99593    27.86325    0.14082    42.00000

 Normal termination of Gaussian 16 at Tue Dec  8 10:39:08 2020.
