 Gaussian 16, Revision A.03,

 -----------------------------------------------------------
 # opt freq B3LYP/6-31G(d) empiricaldispersion=gd3bj scf=xqc
 -----------------------------------------------------------

 ------------------------------
 CID_23216266_JID_1598_neutraal
 ------------------------------
 Symbolic Z-matrix:
 Charge =  0 Multiplicity = 1

 SCF Done:  E(RB3LYP) =  -536.577751371     A.U. after   15 cycles
 SCF Done:  E(RB3LYP) =  -536.580453306     A.U. after   13 cycles
 SCF Done:  E(RB3LYP) =  -536.579819666     A.U. after   13 cycles
 SCF Done:  E(RB3LYP) =  -536.580948744     A.U. after   12 cycles
 SCF Done:  E(RB3LYP) =  -536.580965053     A.U. after   11 cycles
 SCF Done:  E(RB3LYP) =  -536.581003257     A.U. after   10 cycles
 SCF Done:  E(RB3LYP) =  -536.581023246     A.U. after   10 cycles
 SCF Done:  E(RB3LYP) =  -536.581035306     A.U. after   12 cycles
 SCF Done:  E(RB3LYP) =  -536.581038377     A.U. after   11 cycles
 SCF Done:  E(RB3LYP) =  -536.581038817     A.U. after    8 cycles
 Optimization completed.
    -- Stationary point found.

 1\1\GINC-NODE127\FOpt\RB3LYP\6-31G(d)\C8H10O3\VSC10255\08-Dec-2020\0\\
 # opt freq B3LYP/6-31G(d) empiricaldispersion=gd3bj scf=xqc\\CID_23216
 266_JID_1598_neutraal\\0,1\C,0.9234248486,-0.0512700118,0.047433684\C,
 0.7865922638,-1.3116343353,-0.8086582267\C,2.100915372,-1.6832568115,-
 1.5105116085\C,2.0009539382,-2.9800362839,-2.2594802679\C,1.0838692705
 ,-3.92110951,-1.9846264832\C,0.1165851012,-3.7816453372,-0.8831134698\
 O,-0.7229172842,-4.6338336262,-0.6407080032\C,0.2124717268,-2.51564331
 16,-0.014912552\C,1.0022862635,-2.7830041823,1.2555645576\O,0.70456408

 Normal termination of Gaussian 16 at Tue Dec  8 20:42:56 2020.

 --------------------------------------------------------------------
 #N Geom=AllCheck Guess=TCheck SCRF=Check GenChk RB3LYP/6-31G(d) Freq
 --------------------------------------------------------------------

 Structure from the checkpoint file:  "JID_1598.chk"
 ------------------------------
 CID_23216266_JID_1598_neutraal
 ------------------------------
 Charge =  0 Multiplicity = 1

 SCF Done:  E(RB3LYP) =  -536.581038817     A.U. after    1 cycles

  Exact polarizability:  91.001  -1.945  93.563   3.700  10.184  73.517
 Approx polarizability: 128.663  -3.865 152.903   2.937  29.486 117.001

                      1                      2                      3
                      A                      A                      A
 Frequencies --     39.7689                77.7423               140.8033
 Red. masses --      8.4134                 6.4278                 4.1450
 Frc consts  --      0.0078                 0.0229                 0.0484
 IR Inten    --      1.9950                 1.7028                 1.3860

                      4                      5                      6
                      A                      A                      A
 Frequencies --    165.2620               179.6428               238.0898
 Red. masses --      2.8961                 4.8046                 1.0739
 Frc consts  --      0.0466                 0.0914                 0.0359
 IR Inten    --      0.1517                 0.1396                 0.0447

                      7                      8                      9
                      A                      A                      A
 Frequencies --    283.1956               319.9908               354.3490
 Red. masses --      3.5022                 3.0854                 3.7572
 Frc consts  --      0.1655                 0.1861                 0.2780
 IR Inten    --      1.1714                 1.2796                 0.6810

                     10                     11                     12
                      A                      A                      A
 Frequencies --    431.6784               453.6442               475.9270
 Red. masses --      3.3807                 4.8218                 3.6849
 Frc consts  --      0.3712                 0.5846                 0.4918
 IR Inten    --      2.4368                 1.8880                 9.3893

                     13                     14                     15
                      A                      A                      A
 Frequencies --    541.1027               565.3730               648.0130
 Red. masses --      5.4577                 2.6163                 1.4968
 Frc consts  --      0.9415                 0.4927                 0.3703
 IR Inten    --     17.2767                22.7265                63.5526

                     16                     17                     18
                      A                      A                      A
 Frequencies --    665.0984               711.1588               758.7950
 Red. masses --      2.0489                 4.2642                 3.4633
 Frc consts  --      0.5340                 1.2706                 1.1749
 IR Inten    --     52.9099                 3.0722                29.7535

                     19                     20                     21
                      A                      A                      A
 Frequencies --    787.5572               882.7158               891.0841
 Red. masses --      2.3254                 2.5827                 3.0006
 Frc consts  --      0.8498                 1.1857                 1.4038
 IR Inten    --      4.0050                 3.6357                 5.2401

                     22                     23                     24
                      A                      A                      A
 Frequencies --    912.5665               952.4692               974.8120
 Red. masses --      2.2900                 2.2322                 2.3487
 Frc consts  --      1.1236                 1.1931                 1.3150
 IR Inten    --      7.6883                 8.3665                 4.4297

                     25                     26                     27
                      A                      A                      A
 Frequencies --   1008.9134              1020.4843              1067.9405
 Red. masses --      1.5308                 1.3796                 1.9928
 Frc consts  --      0.9181                 0.8465                 1.3391
 IR Inten    --      2.3022                 0.4408                15.4787

                     28                     29                     30
                      A                      A                      A
 Frequencies --   1120.0652              1145.9415              1176.6924
 Red. masses --      2.3769                 1.7177                 1.8972
 Frc consts  --      1.7569                 1.3290                 1.5477
 IR Inten    --     14.6168                10.1112               155.8428

                     31                     32                     33
                      A                      A                      A
 Frequencies --   1214.5908              1232.8055              1275.8689
 Red. masses --      1.5099                 1.4366                 1.9369
 Frc consts  --      1.3124                 1.2864                 1.8576
 IR Inten    --     30.9544                16.4410                68.7643

                     34                     35                     36
                      A                      A                      A
 Frequencies --   1298.1056              1318.1868              1348.2540
 Red. masses --      1.4615                 1.4011                 1.3418
 Frc consts  --      1.4510                 1.4344                 1.4371
 IR Inten    --     19.8909                 2.6577                 2.9737

                     37                     38                     39
                      A                      A                      A
 Frequencies --   1360.3066              1395.3341              1412.4016
 Red. masses --      1.7766                 1.6114                 1.5975
 Frc consts  --      1.9369                 1.8484                 1.8776
 IR Inten    --     27.3140                16.3254                 2.0365

                     40                     41                     42
                      A                      A                      A
 Frequencies --   1428.7549              1448.5933              1499.4237
 Red. masses --      1.8110                 1.2353                 1.0958
 Frc consts  --      2.1782                 1.5273                 1.4516
 IR Inten    --     25.0186                 5.6323                 5.6325

                     43                     44                     45
                      A                      A                      A
 Frequencies --   1523.3829              1529.7912              1698.5119
 Red. masses --      1.0474                 1.0500                 6.5106
 Frc consts  --      1.4321                 1.4478                11.0665
 IR Inten    --      5.4689                 5.0856                17.3751

                     46                     47                     48
                      A                      A                      A
 Frequencies --   1780.7288              1848.0225              3026.5137
 Red. masses --     11.3183                 9.7436                 1.0717
 Frc consts  --     21.1459                19.6059                 5.7837
 IR Inten    --    228.0165               308.4222                 4.2447

                     49                     50                     51
                      A                      A                      A
 Frequencies --   3036.6817              3054.1272              3070.4649
 Red. masses --      1.0757                 1.0360                 1.0971
 Frc consts  --      5.8444                 5.6935                 6.0942
 IR Inten    --     22.5216                21.1890                23.3216

                     52                     53                     54
                      A                      A                      A
 Frequencies --   3116.3965              3121.0059              3128.1270
 Red. masses --      1.0855                 1.1025                 1.1021
 Frc consts  --      6.2111                 6.3272                 6.3537
 IR Inten    --      2.4075                30.2766                21.1824

                     55                     56                     57
                      A                      A                      A
 Frequencies --   3169.3268              3209.0793              3679.4891
 Red. masses --      1.0882                 1.0950                 1.0640
 Frc consts  --      6.4400                 6.6442                 8.4870
 IR Inten    --     16.3970                11.9722                55.5962

 - Thermochemistry -
 -------------------
 Temperature   298.150 Kelvin.  Pressure   1.00000 Atm.
 Atom     1 has atomic number  6 and mass  12.00000

 Molecular mass:   154.06299 amu.
 Principal axes and moments of inertia in atomic units:
                           1         2         3
     Eigenvalues --  1333.715211550.534642106.77312
           X            0.99653  -0.07613   0.03354
           Y            0.07676   0.99689  -0.01794
           Z           -0.03207   0.02045   0.99928
 This molecule is an asymmetric top.
 Rotational symmetry number  1.
 Warning -- assumption of classical behavior for rotation
           may cause significant error
 Rotational temperatures (Kelvin)      0.06494     0.05586     0.04111
 Rotational constants (GHZ):           1.35317     1.16395     0.85664
 Zero-point vibrational energy     449886.5 (Joules/Mol)
                                  107.52546 (Kcal/Mol)
 Warning -- explicit consideration of  14 degrees of freedom as
           vibrations may cause significant error
 Vibrational temperatures:     57.22   111.85   202.58   237.78   258.47
          (Kelvin)            342.56   407.46   460.40   509.83   621.09
                              652.69   684.75   778.53   813.45   932.35
                              956.93  1023.20  1091.74  1133.12  1270.03
                             1282.07  1312.98  1370.39  1402.54  1451.60
                             1468.25  1536.53  1611.52  1648.75  1693.00
                             1747.53  1773.73  1835.69  1867.68  1896.58
                             1939.84  1957.18  2007.57  2032.13  2055.66
                             2084.20  2157.34  2191.81  2201.03  2443.78
                             2562.07  2658.89  4354.48  4369.11  4394.21
                             4417.71  4483.80  4490.43  4500.68  4559.95
                             4617.15  5293.96

 Zero-point correction=                           0.171353 (Hartree/Particle)
 Thermal correction to Energy=                    0.181628
 Thermal correction to Enthalpy=                  0.182572
 Thermal correction to Gibbs Free Energy=         0.135176
 Sum of electronic and zero-point Energies=           -536.409686
 Sum of electronic and thermal Energies=              -536.399411
 Sum of electronic and thermal Enthalpies=            -536.398466
 Sum of electronic and thermal Free Energies=         -536.445862

                     E (Thermal)             CV                S
                      KCal/Mol        Cal/Mol-Kelvin    Cal/Mol-Kelvin
 Total                  113.973             38.497             99.753
 Electronic               0.000              0.000              0.000
 Translational            0.889              2.981             41.006
 Rotational               0.889              2.981             29.856
 Vibrational            112.196             32.535             28.891
 Vibration     1          0.594              1.981              5.271
 Vibration     2          0.599              1.964              3.947
 Vibration     3          0.615              1.912              2.793
 Vibration     4          0.624              1.885              2.489
 Vibration     5          0.629              1.867              2.332
 Vibration     6          0.656              1.782              1.817
 Vibration     7          0.682              1.705              1.514
 Vibration     8          0.706              1.635              1.310
 Vibration     9          0.730              1.566              1.147
 Vibration    10          0.793              1.401              0.853
 Vibration    11          0.812              1.353              0.785
 Vibration    12          0.833              1.303              0.721
 Vibration    13          0.896              1.159              0.563
 Vibration    14          0.921              1.106              0.513

 Optimization completed.
    -- Stationary point found.

 1\1\GINC-NODE127\Freq\RB3LYP\6-31G(d)\C8H10O3\VSC10255\08-Dec-2020\0\\
 #N Geom=AllCheck Guess=TCheck SCRF=Check GenChk RB3LYP/6-31G(d) Freq\\
 CID_23216266_JID_1598_neutraal\\0,1\C,0.9234248486,-0.0512700118,0.047
 433684\C,0.7865922638,-1.3116343353,-0.8086582267\C,2.100915372,-1.683
 2568115,-1.5105116085\C,2.0009539382,-2.9800362839,-2.2594802679\C,1.0
 838692705,-3.92110951,-1.9846264832\C,0.1165851012,-3.7816453372,-0.88
 31134698\O,-0.7229172842,-4.6338336262,-0.6407080032\C,0.2124717268,-2
 .5156433116,-0.014912552\C,1.0022862635,-2.7830041823,1.2555645576\O,0

 Normal termination of Gaussian 16 at Tue Dec  8 20:48:06 2020.

 ----------------------------------------------------------------------
 # B3LYP/6-311++G(d,p) empiricaldispersion=gd3bj scf=xqc pop=npa geom=c
 heck
 ----------------------------------------------------------------------

 --------------------------------------
 CID_23216266_JID_1598_Energie_neutraal
 --------------------------------------
 Structure from the checkpoint file:  "JID_1598.chk"
 Charge =  0 Multiplicity = 1

 SCF Done:  E(RB3LYP) =  -536.745339340     A.U. after   14 cycles
 Normal termination of Gaussian 16 at Tue Dec  8 20:51:30 2020.

 ----------------------------------------------------------------------
 # B3LYP/6-311++G(d,p) empiricaldispersion=gd3bj scf=xqc pop=npa geom=c
 heck
 ----------------------------------------------------------------------

 ------------------------------------
 CID_23216266_JID_1598_Energie_kation
 ------------------------------------
 Structure from the checkpoint file:  "JID_1598.chk"
 Charge =  1 Multiplicity = 2

 SCF Done:  E(UB3LYP) =  -536.408617897     A.U. after   24 cycles
 Normal termination of Gaussian 16 at Tue Dec  8 20:57:11 2020.
 Gaussian 16:  ES64L-G16RevA.03 25-Dec-2016

 -----------------------------------
 CID_23216266_JID_1598_Energie_anion
 -----------------------------------
 Structure from the checkpoint file:  "JID_1598.chk"
 Charge = -1 Multiplicity = 2

                         Standard orientation:
 ---------------------------------------------------------------------
 Center     Atomic      Atomic             Coordinates (Angstroms)
 Number     Number       Type             X           Y           Z
 ---------------------------------------------------------------------
      1          6           0       -1.794027    1.712348   -0.755647
      2          6           0       -0.348577    1.220840   -0.659576
      3          6           0        0.381186    1.796390    0.562854
      4          6           0        1.761315    1.228770    0.722964
      5          6           0        2.143400    0.058159    0.188279
      6          6           0        1.219044   -0.801521   -0.569967
      7          8           0        1.570599   -1.860917   -1.063765
      8          6           0       -0.237781   -0.326749   -0.704057
      9          6           0       -1.125596   -0.986873    0.337778
     10          8           0       -2.234759   -1.420828    0.129789
     11          8           0       -0.554524   -1.009110    1.569845
     12          1           0       -2.292803    1.301887   -1.639646
     13          1           0       -1.822298    2.805551   -0.823130
     14          1           0       -2.379887    1.413067    0.120220
     15          1           0        0.194558    1.571825   -1.547768
     16          1           0        0.435403    2.889014    0.476332
     17          1           0       -0.193760    1.593628    1.478667
     18          1           0        2.473525    1.805111    1.311297
     19          1           0        3.151185   -0.328486    0.309412
     20          1           0       -0.608931   -0.688937   -1.665721
     21          1           0       -1.201318   -1.443996    2.157618
 ---------------------------------------------------------------------

 SCF Done:  E(UB3LYP) =  -536.750025590     A.U. after   33 cycles
 SCF Done:  E(UB3LYP) =  -536.750025590     a.u. after    1 cycles

 The electronic state is 2-A.
 Alpha  occ. eigenvalues --  -19.04947 -18.99309 -18.91255 -10.17951 -10.05849
 Alpha  occ. eigenvalues --  -10.05606 -10.04679 -10.04197 -10.03483 -10.00521
 Alpha  occ. eigenvalues --   -9.99813  -0.98891  -0.89988  -0.85483  -0.70384
 Alpha  occ. eigenvalues --   -0.62649  -0.60658  -0.54932  -0.50693  -0.45549
 Alpha  occ. eigenvalues --   -0.43331  -0.38817  -0.36971  -0.35339  -0.33098
 Alpha  occ. eigenvalues --   -0.31731  -0.30347  -0.29447  -0.28244  -0.27220
 Alpha  occ. eigenvalues --   -0.25928  -0.25308  -0.24430  -0.22080  -0.21125
 Alpha  occ. eigenvalues --   -0.20589  -0.19792  -0.18447  -0.15777  -0.11151
 Alpha  occ. eigenvalues --   -0.07569   0.05476
 Alpha virt. eigenvalues --    0.07981   0.08869   0.09859   0.10501   0.11555
 Alpha virt. eigenvalues --    0.12461   0.12625   0.13406   0.13826   0.13977
 Alpha virt. eigenvalues --    0.15324   0.17348   0.17688   0.18506   0.18920

  Beta  occ. eigenvalues --  -19.04936 -18.99296 -18.90697 -10.17909 -10.05586
  Beta  occ. eigenvalues --  -10.05511 -10.04706 -10.04182 -10.03509 -10.00035
  Beta  occ. eigenvalues --   -9.99814  -0.98868  -0.89963  -0.84481  -0.70185
  Beta  occ. eigenvalues --   -0.62150  -0.60453  -0.54742  -0.50517  -0.45201
  Beta  occ. eigenvalues --   -0.42597  -0.38542  -0.36907  -0.35261  -0.32949
  Beta  occ. eigenvalues --   -0.31586  -0.30213  -0.28991  -0.28015  -0.27018
  Beta  occ. eigenvalues --   -0.25746  -0.25094  -0.24033  -0.21328  -0.20737
  Beta  occ. eigenvalues --   -0.20049  -0.19136  -0.18037  -0.15432  -0.09004
  Beta  occ. eigenvalues --   -0.07102
  Beta virt. eigenvalues --    0.08032   0.09022   0.09870   0.10580   0.11553
  Beta virt. eigenvalues --    0.12315   0.12609   0.12924   0.13495   0.13804
  Beta virt. eigenvalues --    0.14137   0.15277   0.17277   0.17669   0.18657

 Mulliken charges and spin densities:
               1          2
     1  C    0.476704  -1.075112
     2  C   -0.796969   0.955243
     3  C    0.024561  -0.519026
     4  C   -0.674498   0.689837
     5  C    0.369090  -0.260125
     6  C   -0.903798   0.427010
     7  O   -0.414168   0.188029
     8  C    0.780829  -0.328480
     9  C    0.082526  -0.212296
    10  O   -0.301255   0.019263
    11  O   -0.154447   0.010680
    12  H    0.040142   0.085575
    13  H   -0.141969   0.271212
    14  H    0.002850   0.168660
    15  H    0.027771   0.134608
    16  H    0.026553   0.090507
    17  H   -0.009691   0.152894
    18  H    0.036141   0.064863
    19  H    0.131318  -0.002437
    20  H    0.197110   0.068406
    21  H    0.201197   0.070690
 Sum of Mulliken charges =  -1.00000   1.00000

 Dipole moment (field-independent basis, Debye):
    X=             -2.2268    Y=              1.7673    Z=              2.2346  Tot=              3.6160
 Quadrupole moment (field-independent basis, Debye-Ang):
   XX=            -96.2641   YY=            -94.1591   ZZ=            -76.3959
   XY=              4.4116   XZ=              1.3127   YZ=             -6.8915

 Summary of Natural Population Analysis:

                                       Natural Population
                Natural  -----------------------------------------------
    Atom  No    Charge         Core      Valence    Rydberg      Total
 -----------------------------------------------------------------------
      C    1   -0.28354      0.99965     2.27898    0.00491     3.28354
      C    2   -0.10121      0.99960     2.09031    0.01131     3.10121
      C    3   -0.21446      0.99960     2.20472    0.01013     3.21446
      C    4    0.02697      0.99956     1.96290    0.01058     2.97303
      C    5   -0.16132      0.99949     2.15159    0.01023     3.16132
      C    6    0.30108      0.99962     1.67656    0.02274     2.69892
      O    7   -0.25283      0.99988     3.24589    0.00707     4.25283
      C    8   -0.19075      0.99950     2.17680    0.01445     3.19075
      C    9    0.42299      0.99968     1.55098    0.02635     2.57701
      O   10   -0.31724      0.99986     3.31081    0.00657     4.31724
      O   11   -0.34189      0.99987     3.33503    0.00698     4.34189
      H   12    0.09832      0.00000     0.40064    0.00103     0.40168
      H   13    0.09549      0.00000     0.40331    0.00120     0.40451
      H   14    0.09797      0.00000     0.40072    0.00131     0.40203
      H   15    0.09656      0.00000     0.40148    0.00196     0.40344
      H   16    0.09710      0.00000     0.40159    0.00131     0.40290
      H   17    0.10549      0.00000     0.39292    0.00158     0.39451
      H   18    0.08012      0.00000     0.41883    0.00105     0.41988
      H   19    0.09396      0.00000     0.40415    0.00189     0.40604
      H   20    0.11505      0.00000     0.38284    0.00210     0.38495
      H   21    0.23213      0.00000     0.26396    0.00391     0.26787
 =======================================================================
   * Total *    0.00000     10.99632    29.85502    0.14867    41.00000

 Normal termination of Gaussian 16 at Tue Dec  8 21:04:44 2020.
