 Gaussian 16, Revision A.03,

 -----------------------------------------------------------
 # opt freq B3LYP/6-31G(d) empiricaldispersion=gd3bj scf=xqc
 -----------------------------------------------------------

 ------------------------------
 CID_45118338_JID_7589_neutraal
 ------------------------------
 Symbolic Z-matrix:
 Charge =  0 Multiplicity = 1

 SCF Done:  E(RB3LYP) =  -765.062201304     A.U. after   15 cycles
 SCF Done:  E(RB3LYP) =  -765.068040374     A.U. after   13 cycles
 SCF Done:  E(RB3LYP) =  -765.066889252     A.U. after   13 cycles
 SCF Done:  E(RB3LYP) =  -765.069012404     A.U. after   12 cycles
 SCF Done:  E(RB3LYP) =  -765.069918522     A.U. after   12 cycles
 SCF Done:  E(RB3LYP) =  -765.070301966     A.U. after   12 cycles
 SCF Done:  E(RB3LYP) =  -765.070648501     A.U. after   12 cycles
 SCF Done:  E(RB3LYP) =  -765.070905648     A.U. after   12 cycles
 SCF Done:  E(RB3LYP) =  -765.070989805     A.U. after   11 cycles
 SCF Done:  E(RB3LYP) =  -765.070843100     A.U. after   12 cycles
 SCF Done:  E(RB3LYP) =  -765.071456644     A.U. after   12 cycles
 SCF Done:  E(RB3LYP) =  -765.071455033     A.U. after    9 cycles
 SCF Done:  E(RB3LYP) =  -765.071458710     A.U. after    9 cycles
 SCF Done:  E(RB3LYP) =  -765.071458727     A.U. after    7 cycles
 SCF Done:  E(RB3LYP) =  -765.071458763     A.U. after    7 cycles
 Optimization completed.
    -- Stationary point found.
 Normal termination of Gaussian 16 at Sun Dec 13 12:35:18 2020.

 --------------------------------------------------------------------
 #N Geom=AllCheck Guess=TCheck SCRF=Check GenChk RB3LYP/6-31G(d) Freq
 --------------------------------------------------------------------

 Structure from the checkpoint file:  "JID_7589.chk"
 ------------------------------
 CID_45118338_JID_7589_neutraal
 ------------------------------
 Charge =  0 Multiplicity = 1

 SCF Done:  E(RB3LYP) =  -765.071458763     A.U. after    1 cycles

  Exact polarizability: 212.703  15.470 171.347 -17.815   5.201  87.822
 Approx polarizability: 309.060  12.318 292.111 -41.643  21.597 139.100

                      1                      2                      3
                      A                      A                      A
 Frequencies --     30.0258                60.2408                74.6252
 Red. masses --      4.4724                 3.5092                 3.7300
 Frc consts  --      0.0024                 0.0075                 0.0122
 IR Inten    --      0.5605                 1.6651                 0.1170

                      4                      5                      6
                      A                      A                      A
 Frequencies --    118.7944               139.0483               154.7600
 Red. masses --      4.6720                 2.0330                 3.6164
 Frc consts  --      0.0388                 0.0232                 0.0510
 IR Inten    --      5.3811                 0.1189                 1.5961

                      7                      8                      9
                      A                      A                      A
 Frequencies --    173.1092               204.5113               219.9878
 Red. masses --      3.6447                 1.3898                 1.8996
 Frc consts  --      0.0644                 0.0342                 0.0542
 IR Inten    --      1.2402                 0.2309                 1.6527

                     10                     11                     12
                      A                      A                      A
 Frequencies --    228.9546               238.6180               294.5226
 Red. masses --      2.5273                 2.9106                 2.0985
 Frc consts  --      0.0781                 0.0976                 0.1073
 IR Inten    --      1.5576                 5.9315                 0.1425

                     13                     14                     15
                      A                      A                      A
 Frequencies --    338.1367               354.5896               364.1897
 Red. masses --      3.3797                 4.2828                 3.6377
 Frc consts  --      0.2277                 0.3173                 0.2843
 IR Inten    --      3.3894                 1.5825                 1.3592

                     16                     17                     18
                      A                      A                      A
 Frequencies --    390.6854               396.9552               417.4293
 Red. masses --      1.2118                 2.3449                 3.4478
 Frc consts  --      0.1090                 0.2177                 0.3540
 IR Inten    --    104.0709                 3.9448                 7.3962

                     19                     20                     21
                      A                      A                      A
 Frequencies --    440.3738               464.9557               506.3618
 Red. masses --      4.3328                 2.8400                 3.9032
 Frc consts  --      0.4951                 0.3617                 0.5896
 IR Inten    --      0.1911                 0.6803                 2.0040

                     22                     23                     24
                      A                      A                      A
 Frequencies --    544.3561               558.9795               566.7044
 Red. masses --      3.3798                 8.2702                 4.5727
 Frc consts  --      0.5901                 1.5225                 0.8652
 IR Inten    --      1.5745                 1.3210                 1.0581

                     25                     26                     27
                      A                      A                      A
 Frequencies --    609.4185               635.8822               651.3966
 Red. masses --      5.0931                 4.3354                 4.3772
 Frc consts  --      1.1144                 1.0328                 1.0943
 IR Inten    --     11.2523                 1.5225                 2.8443

                     28                     29                     30
                      A                      A                      A
 Frequencies --    685.3944               735.2561               757.7709
 Red. masses --      4.4303                 6.5027                 1.4508
 Frc consts  --      1.2262                 2.0712                 0.4908
 IR Inten    --      7.6457                 3.8834                36.9380

                     31                     32                     33
                      A                      A                      A
 Frequencies --    770.7154               812.1748               817.5725
 Red. masses --      1.6573                 2.3896                 3.3156
 Frc consts  --      0.5800                 0.9287                 1.3058
 IR Inten    --     49.7915                 8.8375                 0.6145

                     34                     35                     36
                      A                      A                      A
 Frequencies --    847.4373               881.1264               890.4388
 Red. masses --      2.9825                 4.0418                 1.4086
 Frc consts  --      1.2620                 1.8488                 0.6580
 IR Inten    --      3.1358                 1.5151                 0.2973

                     37                     38                     39
                      A                      A                      A
 Frequencies --    910.2330               957.7666               967.9476
 Red. masses --      1.8869                 2.1510                 1.2609
 Frc consts  --      0.9211                 1.1626                 0.6960
 IR Inten    --      1.3947                 6.0252                 0.4619

                     40                     41                     42
                      A                      A                      A
 Frequencies --    988.6068              1033.6836              1040.7783
 Red. masses --      2.0029                 2.1829                 2.6024
 Frc consts  --      1.1533                 1.3743                 1.6609
 IR Inten    --     15.7236                 1.9090                44.7105

                     43                     44                     45
                      A                      A                      A
 Frequencies --   1064.0777              1072.6440              1097.6712
 Red. masses --      2.0655                 1.5648                 1.9605
 Frc consts  --      1.3779                 1.0608                 1.3917
 IR Inten    --      1.0692                 3.6425                10.3851

                     46                     47                     48
                      A                      A                      A
 Frequencies --   1109.0603              1145.9623              1164.3769
 Red. masses --      1.8280                 1.8861                 2.2921
 Frc consts  --      1.3248                 1.4593                 1.8309
 IR Inten    --     16.2860                14.0355                20.3025

                     49                     50                     51
                      A                      A                      A
 Frequencies --   1193.4509              1213.0134              1246.0559
 Red. masses --      1.2090                 1.9451                 2.0817
 Frc consts  --      1.0146                 1.6862                 1.9043
 IR Inten    --      8.1451               113.2027                26.0837

                     52                     53                     54
                      A                      A                      A
 Frequencies --   1257.4798              1279.2261              1312.1108
 Red. masses --      2.4715                 1.4414                 1.9769
 Frc consts  --      2.3026                 1.3897                 2.0053
 IR Inten    --     11.5362                 5.1040                 5.8373

                     55                     56                     57
                      A                      A                      A
 Frequencies --   1331.9382              1345.6690              1352.5809
 Red. masses --      2.3558                 1.6956                 2.1629
 Frc consts  --      2.4624                 1.8090                 2.3313
 IR Inten    --     99.7039                27.4822                36.1427

                     58                     59                     60
                      A                      A                      A
 Frequencies --   1379.4090              1400.8984              1403.2810
 Red. masses --      1.5555                 2.0591                 2.8578
 Frc consts  --      1.7438                 2.3809                 3.3156
 IR Inten    --     91.3383                 6.4330               120.0434

                     61                     62                     63
                      A                      A                      A
 Frequencies --   1411.4689              1430.8609              1442.2051
 Red. masses --      1.5089                 1.3382                 1.5663
 Frc consts  --      1.7712                 1.6143                 1.9195
 IR Inten    --      2.0667                16.6783                62.5230

                     64                     65                     66
                      A                      A                      A
 Frequencies --   1445.2439              1499.3337              1508.3101
 Red. masses --      1.2642                 1.0782                 1.1241
 Frc consts  --      1.5558                 1.4281                 1.5067
 IR Inten    --     24.0046                12.0765                 7.8488

                     67                     68                     69
                      A                      A                      A
 Frequencies --   1512.7134              1518.5625              1521.5594
 Red. masses --      2.6585                 1.0649                 1.0697
 Frc consts  --      3.5843                 1.4468                 1.4592
 IR Inten    --      2.9792                 3.8433                 3.2603

                     70                     71                     72
                      A                      A                      A
 Frequencies --   1522.5793              1532.0602              1538.4267
 Red. masses --      1.0870                 1.0758                 3.3008
 Frc consts  --      1.4847                 1.4878                 4.6028
 IR Inten    --     14.7350                11.2514                49.6785

                     73                     74                     75
                      A                      A                      A
 Frequencies --   1552.2763              1634.0632              1660.1099
 Red. masses --      1.0514                 6.6661                 7.6619
 Frc consts  --      1.4926                10.4872                12.4411
 IR Inten    --      5.8016                82.4732               197.0678

                     76                     77                     78
                      A                      A                      A
 Frequencies --   1669.5092              1758.8516              3034.7475
 Red. masses --      6.5160                11.3851                 1.0624
 Frc consts  --     10.7005                20.7514                 5.7649
 IR Inten    --     59.8101               352.5211                22.4573

                     79                     80                     81
                      A                      A                      A
 Frequencies --   3042.5253              3045.2607              3059.6956
 Red. masses --      1.0621                 1.0450                 1.0446
 Frc consts  --      5.7926                 5.7098                 5.7618
 IR Inten    --     26.7412                34.9037                16.6945

                     82                     83                     84
                      A                      A                      A
 Frequencies --   3074.0135              3080.9095              3107.6498
 Red. masses --      1.0970                 1.0987                 1.0998
 Frc consts  --      6.1075                 6.1442                 6.2577
 IR Inten    --     27.8146                56.8665                41.0397

                     85                     86                     87
                      A                      A                      A
 Frequencies --   3113.9062              3123.3886              3151.4586
 Red. masses --      1.0648                 1.0946                 1.0991
 Frc consts  --      6.0832                 6.2915                 6.4313
 IR Inten    --     40.7732                14.4696                14.7084

                     88                     89                     90
                      A                      A                      A
 Frequencies --   3167.4324              3172.3568              3183.6380
 Red. masses --      1.0890                 1.1006                 1.1001
 Frc consts  --      6.4372                 6.5257                 6.5695
 IR Inten    --     22.6054                 3.6992                 3.7163

                     91                     92                     93
                      A                      A                      A
 Frequencies --   3204.7974              3237.1681              3746.6225
 Red. masses --      1.0911                 1.0933                 1.0658
 Frc consts  --      6.6023                 6.7501                 8.8148
 IR Inten    --     15.0265                 4.8279                47.5453

 - Thermochemistry -
 -------------------
 Temperature   298.150 Kelvin.  Pressure   1.00000 Atm.
 Atom     1 has atomic number  6 and mass  12.00000

 Molecular mass:   232.12118 amu.
 Principal axes and moments of inertia in atomic units:
                           1         2         3
     Eigenvalues --  2224.379415392.206746921.97792
           X            0.99996   0.00684   0.00584
           Y           -0.00675   0.99986  -0.01525
           Z           -0.00594   0.01521   0.99987
 This molecule is an asymmetric top.
 Rotational symmetry number  1.
 Warning -- assumption of classical behavior for rotation
           may cause significant error
 Rotational temperatures (Kelvin)      0.03894     0.01606     0.01251
 Rotational constants (GHZ):           0.81135     0.33469     0.26073
 Zero-point vibrational energy     725817.0 (Joules/Mol)
                                  173.47443 (Kcal/Mol)
 Warning -- explicit consideration of  25 degrees of freedom as
           vibrations may cause significant error
 Vibrational temperatures:     43.20    86.67   107.37   170.92   200.06
          (Kelvin)            222.67   249.07   294.25   316.51   329.41
                              343.32   423.75   486.50   510.18   523.99
                              562.11   571.13   600.59   633.60   668.97
                              728.54   783.21   804.25   815.36   876.82
                              914.89   937.21   986.13  1057.87  1090.26
                             1108.89  1168.54  1176.30  1219.27  1267.74
                             1281.14  1309.62  1378.01  1392.66  1422.38
                             1487.24  1497.45  1530.97  1543.30  1579.30
                             1595.69  1648.78  1675.28  1717.11  1745.26
                             1792.80  1809.23  1840.52  1887.83  1916.36
                             1936.12  1946.06  1984.66  2015.58  2019.01
                             2030.79  2058.69  2075.01  2079.38  2157.21
                             2170.12  2176.46  2184.87  2189.18  2190.65
                             2204.29  2213.45  2233.38  2351.05  2388.53
                             2402.05  2530.60  4366.32  4377.52  4381.45
                             4402.22  4422.82  4432.74  4471.21  4480.22
                             4493.86  4534.25  4557.23  4564.31  4580.55
                             4610.99  4657.56  5390.55

 Zero-point correction=                           0.276449 (Hartree/Particle)
 Thermal correction to Energy=                    0.291938
 Thermal correction to Enthalpy=                  0.292882
 Thermal correction to Gibbs Free Energy=         0.233857
 Sum of electronic and zero-point Energies=           -764.795010
 Sum of electronic and thermal Energies=              -764.779521
 Sum of electronic and thermal Enthalpies=            -764.778577
 Sum of electronic and thermal Free Energies=         -764.837601

                     E (Thermal)             CV                S
                      KCal/Mol        Cal/Mol-Kelvin    Cal/Mol-Kelvin
 Total                  183.194             60.609            124.228
 Electronic               0.000              0.000              0.000
 Translational            0.889              2.981             42.228
 Rotational               0.889              2.981             32.784
 Vibrational            181.416             54.647             49.215
 Vibration     1          0.594              1.984              5.828
 Vibration     2          0.597              1.973              4.449
 Vibration     3          0.599              1.966              4.027
 Vibration     4          0.609              1.934              3.120
 Vibration     5          0.615              1.914              2.817
 Vibration     6          0.620              1.897              2.613
 Vibration     7          0.627              1.876              2.401
 Vibration     8          0.640              1.833              2.092
 Vibration     9          0.647              1.811              1.959
 Vibration    10          0.652              1.797              1.887
 Vibration    11          0.657              1.781              1.813
 Vibration    12          0.689              1.684              1.448
 Vibration    13          0.718              1.599              1.221
 Vibration    14          0.730              1.566              1.146
 Vibration    15          0.738              1.546              1.104
 Vibration    16          0.758              1.490              0.998
 Vibration    17          0.763              1.477              0.974
 Vibration    18          0.780              1.432              0.901
 Vibration    19          0.800              1.382              0.825
 Vibration    20          0.822              1.328              0.752
 Vibration    21          0.862              1.236              0.642
 Vibration    22          0.899              1.152              0.556
 Vibration    23          0.915              1.120              0.526
 Vibration    24          0.923              1.103              0.511
 Vibration    25          0.968              1.012              0.434

                           ! Non-Optimized Parameters !
 Normal termination of Gaussian 16 at Sun Dec 13 12:47:31 2020.

 ----------------------------------------------------------------------
 # B3LYP/6-311++G(d,p) empiricaldispersion=gd3bj scf=xqc pop=npa geom=c
 heck
 ----------------------------------------------------------------------

 --------------------------------------
 CID_45118338_JID_7589_Energie_neutraal
 --------------------------------------
 Structure from the checkpoint file:  "JID_7589.chk"
 Charge =  0 Multiplicity = 1

 SCF Done:  E(RB3LYP) =  -765.283351615     A.U. after   15 cycles
 Normal termination of Gaussian 16 at Sun Dec 13 12:53:27 2020.

 ----------------------------------------------------------------------
 # B3LYP/6-311++G(d,p) empiricaldispersion=gd3bj scf=xqc pop=npa geom=c
 heck
 ----------------------------------------------------------------------

 ------------------------------------
 CID_45118338_JID_7589_Energie_kation
 ------------------------------------
 Structure from the checkpoint file:  "JID_7589.chk"
 Charge =  1 Multiplicity = 2

 SCF Done:  E(UB3LYP) =  -764.997701862     A.U. after   23 cycles
 Normal termination of Gaussian 16 at Sun Dec 13 13:06:24 2020.
 Gaussian 16:  ES64L-G16RevA.03 25-Dec-2016

 ----------------------------------------------------------------------
 # B3LYP/6-311++G(d,p) empiricaldispersion=gd3bj scf=xqc pop=npa geom=c
 heck
 ----------------------------------------------------------------------

 -----------------------------------
 CID_45118338_JID_7589_Energie_anion
 -----------------------------------
 Structure from the checkpoint file:  "JID_7589.chk"
 Charge = -1 Multiplicity = 2

                         Standard orientation:
 ---------------------------------------------------------------------
 Center     Atomic      Atomic             Coordinates (Angstroms)
 Number     Number       Type             X           Y           Z
 ---------------------------------------------------------------------
      1          6           0        3.887250   -1.805978    0.661330
      2          6           0        3.210722   -0.601048    1.319549
      3          6           0        3.265310    0.683420    0.480413
      4          6           0        2.436501    0.668562   -0.812628
      5          7           0        0.985562    0.559332   -0.573760
      6          6           0        0.208956    1.669146   -0.261127
      7          7           0       -1.052907    1.611286    0.029044
      8          6           0       -1.671776    0.379448    0.020014
      9          6           0       -0.997723   -0.805353   -0.333674
     10          6           0        0.423512   -0.730439   -0.672618
     11          8           0        1.102950   -1.695326   -1.011838
     12          6           0       -1.652225   -2.047183   -0.357346
     13          6           0       -2.992670   -2.106185   -0.019731
     14          6           0       -3.686118   -0.939240    0.340383
     15          6           0       -3.046914    0.294613    0.363996
     16          8           0       -3.679082    1.450297    0.705126
     17          6           0        0.850746    3.030149   -0.301448
     18          1           0        3.359136   -2.103807   -0.247762
     19          1           0        3.889269   -2.666560    1.339481
     20          1           0        4.930876   -1.580062    0.407224
     21          1           0        2.166059   -0.844316    1.550569
     22          1           0        3.693690   -0.391523    2.282916
     23          1           0        2.947487    1.530586    1.100683
     24          1           0        4.306880    0.885600    0.193845
     25          1           0        2.622194    1.575945   -1.390405
     26          1           0        2.702602   -0.186930   -1.432438
     27          1           0       -1.086820   -2.928074   -0.637799
     28          1           0       -3.520220   -3.055148   -0.029370
     29          1           0       -4.740567   -0.996369    0.604703
     30          1           0       -4.604421    1.243198    0.909523
     31          1           0        0.098691    3.754319    0.011039
     32          1           0        1.720111    3.107337    0.357969
     33          1           0        1.182069    3.282228   -1.316157
 ---------------------------------------------------------------------

 SCF Done:  E(UB3LYP) =  -765.280858196     A.U. after   33 cycles
 SCF Done:  E(UB3LYP) =  -765.280858196     a.u. after    1 cycles

 The electronic state is 2-A.
 Alpha  occ. eigenvalues --  -19.04092 -18.95244 -14.23113 -14.17229 -10.13306
 Alpha  occ. eigenvalues --  -10.12622 -10.10840 -10.08989 -10.06759 -10.06334
 Alpha  occ. eigenvalues --  -10.05941 -10.05663 -10.04902 -10.04471 -10.04278
 Alpha  occ. eigenvalues --  -10.03863 -10.03650  -0.95166  -0.91220  -0.85131
 Alpha  occ. eigenvalues --   -0.77973  -0.71934  -0.68445  -0.65351  -0.62872
 Alpha  occ. eigenvalues --   -0.61031  -0.59697  -0.55051  -0.51901  -0.50552
 Alpha  occ. eigenvalues --   -0.47968  -0.46967  -0.43581  -0.41638  -0.38318
 Alpha  occ. eigenvalues --   -0.36613  -0.35924  -0.35134  -0.34649  -0.32951
 Alpha  occ. eigenvalues --   -0.32556  -0.30590  -0.30443  -0.29640  -0.29293
 Alpha  occ. eigenvalues --   -0.28615  -0.28138  -0.28079  -0.27424  -0.26579
 Alpha  occ. eigenvalues --   -0.24727  -0.23276  -0.22788  -0.22665  -0.22586
 Alpha  occ. eigenvalues --   -0.21836  -0.20982  -0.15842  -0.14107  -0.13252
 Alpha  occ. eigenvalues --   -0.12080  -0.09140   0.04691
 Alpha virt. eigenvalues --    0.06918   0.07225   0.08301   0.08917   0.09196
 Alpha virt. eigenvalues --    0.09276   0.09922   0.11006   0.11500   0.11918
 Alpha virt. eigenvalues --    0.12404   0.13284   0.13565   0.13833   0.14582

  Beta  occ. eigenvalues --  -19.04106 -18.95115 -14.22931 -14.17318 -10.13186
  Beta  occ. eigenvalues --  -10.12489 -10.10898 -10.08997 -10.06549 -10.06330
  Beta  occ. eigenvalues --  -10.05898 -10.05658 -10.04896 -10.04461 -10.04033
  Beta  occ. eigenvalues --  -10.03814 -10.03480  -0.95187  -0.90939  -0.84910
  Beta  occ. eigenvalues --   -0.77781  -0.71682  -0.68390  -0.65087  -0.62620
  Beta  occ. eigenvalues --   -0.60869  -0.59548  -0.54877  -0.51643  -0.50386
  Beta  occ. eigenvalues --   -0.47846  -0.46889  -0.43415  -0.41494  -0.38136
  Beta  occ. eigenvalues --   -0.36438  -0.35746  -0.35025  -0.34545  -0.32725
  Beta  occ. eigenvalues --   -0.32431  -0.30485  -0.30106  -0.29517  -0.29183
  Beta  occ. eigenvalues --   -0.28484  -0.28077  -0.27918  -0.27252  -0.26388
  Beta  occ. eigenvalues --   -0.24627  -0.23172  -0.22614  -0.22491  -0.22297
  Beta  occ. eigenvalues --   -0.21765  -0.20527  -0.14928  -0.14141  -0.13071
  Beta  occ. eigenvalues --   -0.10965  -0.08453
  Beta virt. eigenvalues --    0.07147   0.07370   0.08422   0.09104   0.09285
  Beta virt. eigenvalues --    0.09379   0.09610   0.10220   0.11068   0.11461
  Beta virt. eigenvalues --    0.12128   0.12418   0.13306   0.13610   0.13786

 Mulliken charges and spin densities:
               1          2
     1  C   -0.247291  -0.393621
     2  C   -0.332090   0.286452
     3  C    0.955835  -1.196044
     4  C   -0.550325   0.407875
     5  N    0.147208   0.033646
     6  C   -0.311139   0.422509
     7  N   -0.012128  -0.033441
     8  C   -0.261130   0.160201
     9  C    0.650999   0.135678
    10  C   -0.173521  -0.030070
    11  O   -0.349829   0.043493
    12  C   -0.378745   0.058999
    13  C   -0.386397   0.006502
    14  C    0.073448   0.200824
    15  C   -0.415776  -0.045376
    16  O   -0.222974   0.000069
    17  C    0.143187  -0.775566
    18  H    0.174976   0.012310
    19  H    0.085239   0.028357
    20  H    0.002797   0.111952
    21  H    0.156672   0.008679
    22  H   -0.018525   0.160806
    23  H    0.094000   0.018705
    24  H   -0.513611   0.651025
    25  H   -0.208365   0.365316
    26  H    0.195555   0.000631
    27  H    0.166539  -0.002245
    28  H    0.118808   0.001008
    29  H    0.072908  -0.013495
    30  H    0.237242   0.007374
    31  H    0.170380   0.004254
    32  H   -0.166903   0.301917
    33  H    0.102957   0.061276
 Sum of Mulliken charges =  -1.00000   1.00000

 Dipole moment (field-independent basis, Debye):
    X=             -3.6812    Y=             -0.2539    Z=              0.6114  Tot=              3.7403
 Quadrupole moment (field-independent basis, Debye-Ang):
   XX=           -151.8708   YY=           -133.4357   ZZ=           -117.4040
   XY=             -3.4861   XZ=             -3.5275   YZ=             -4.0369

 Summary of Natural Population Analysis:

                                       Natural Population
                Natural  -----------------------------------------------
    Atom  No    Charge         Core      Valence    Rydberg      Total
 -----------------------------------------------------------------------
      C    1   -0.29262      0.99966     2.28744    0.00552     3.29262
      C    2   -0.19262      0.99964     2.18435    0.00863     3.19262
      C    3   -0.19024      0.99962     2.18184    0.00879     3.19024
      C    4   -0.09417      0.99961     2.08287    0.01169     3.09417
      N    5   -0.22265      0.99960     2.71380    0.00924     3.72265
      C    6    0.25800      0.99961     1.72595    0.01644     2.74200
      N    7   -0.27645      0.99964     2.76719    0.00962     3.77645
      C    8    0.08450      0.99947     1.89864    0.01740     2.91550
      C    9   -0.05217      0.99946     2.04309    0.00962     3.05217
      C   10    0.35493      0.99959     1.62417    0.02131     2.64507
      O   11   -0.32557      0.99988     3.32057    0.00512     4.32557
      C   12   -0.08425      0.99955     2.07563    0.00907     3.08425
      C   13   -0.10880      0.99959     2.09931    0.00990     3.10880
      C   14   -0.11709      0.99957     2.10135    0.01617     3.11709
      C   15    0.18727      0.99938     1.80316    0.01020     2.81273
      O   16   -0.34219      0.99988     3.33325    0.00906     4.34219
      C   17   -0.31035      0.99963     2.30511    0.00560     3.31035
      H   18    0.11382      0.00000     0.38513    0.00105     0.38618
      H   19    0.09377      0.00000     0.40555    0.00069     0.40623
      H   20    0.08973      0.00000     0.40941    0.00086     0.41027
      H   21    0.10042      0.00000     0.39835    0.00123     0.39958
      H   22    0.09098      0.00000     0.40811    0.00091     0.40902
      H   23    0.09515      0.00000     0.40353    0.00132     0.40485
      H   24    0.09715      0.00000     0.40043    0.00242     0.40285
      H   25    0.09797      0.00000     0.40084    0.00119     0.40203
      H   26    0.11424      0.00000     0.38442    0.00134     0.38576
      H   27    0.10614      0.00000     0.39274    0.00111     0.39386
      H   28    0.09129      0.00000     0.40757    0.00114     0.40871
      H   29    0.08674      0.00000     0.41244    0.00082     0.41326
      H   30    0.22525      0.00000     0.27206    0.00269     0.27475
      H   31    0.11356      0.00000     0.38534    0.00110     0.38644
      H   32    0.10581      0.00000     0.39277    0.00142     0.39419
      H   33    0.10272      0.00000     0.39633    0.00095     0.39728
 =======================================================================
   * Total *    0.00026     16.99336    44.80275    0.20362    61.99974

 Normal termination of Gaussian 16 at Sun Dec 13 13:25:29 2020.
