 Gaussian 16, Revision A.03,

 -----------------------------------------------------------
 # opt freq B3LYP/6-31G(d) empiricaldispersion=gd3bj scf=xqc
 -----------------------------------------------------------

 --------------------------------
 CID_118221258_JID_10031_neutraal
 --------------------------------
 Symbolic Z-matrix:
 Charge =  0 Multiplicity = 1

 SCF Done:  E(RB3LYP) =  -895.435099147     A.U. after   15 cycles
 SCF Done:  E(RB3LYP) =  -895.442217702     A.U. after   12 cycles
 SCF Done:  E(RB3LYP) =  -895.441935690     A.U. after   13 cycles
 SCF Done:  E(RB3LYP) =  -895.443842403     A.U. after   12 cycles
 SCF Done:  E(RB3LYP) =  -895.443993918     A.U. after   11 cycles
 SCF Done:  E(RB3LYP) =  -895.444101599     A.U. after   10 cycles
 SCF Done:  E(RB3LYP) =  -895.444132925     A.U. after   10 cycles
 SCF Done:  E(RB3LYP) =  -895.444145261     A.U. after    9 cycles
 SCF Done:  E(RB3LYP) =  -895.444158099     A.U. after   10 cycles
 SCF Done:  E(RB3LYP) =  -895.444161806     A.U. after    9 cycles
 SCF Done:  E(RB3LYP) =  -895.444662285     A.U. after    9 cycles
 SCF Done:  E(RB3LYP) =  -895.444663909     A.U. after    9 cycles
 SCF Done:  E(RB3LYP) =  -895.444664321     A.U. after    9 cycles
 SCF Done:  E(RB3LYP) =  -895.444664726     A.U. after    7 cycles
 SCF Done:  E(RB3LYP) =  -895.444664918     A.U. after    7 cycles
 SCF Done:  E(RB3LYP) =  -895.444664957     A.U. after    7 cycles
 Optimization completed.
    -- Stationary point found.
 Normal termination of Gaussian 16 at Mon Dec 14 18:07:02 2020.

 --------------------------------------------------------------------
 #N Geom=AllCheck Guess=TCheck SCRF=Check GenChk RB3LYP/6-31G(d) Freq
 --------------------------------------------------------------------

 Structure from the checkpoint file:  "JID_10031.chk"
 --------------------------------
 CID_118221258_JID_10031_neutraal
 --------------------------------
 Charge =  0 Multiplicity = 1

 SCF Done:  E(RB3LYP) =  -895.444664957     A.U. after    1 cycles

  Exact polarizability: 311.228   6.421 184.495  -6.653   7.071  84.756
 Approx polarizability: 424.941  14.673 322.796 -15.196  14.297 133.261

                      1                      2                      3
                      A                      A                      A
 Frequencies --     22.6391                28.6365                43.2049
 Red. masses --      3.8811                 3.9502                 1.4369
 Frc consts  --      0.0012                 0.0019                 0.0016
 IR Inten    --      2.4126                 0.5986                 0.1165

                      4                      5                      6
                      A                      A                      A
 Frequencies --     59.8057                96.9575               105.3558
 Red. masses --      4.2017                 3.1168                 1.4032
 Frc consts  --      0.0089                 0.0173                 0.0092
 IR Inten    --      0.7177                 0.5150                 1.6389

                      7                      8                      9
                      A                      A                      A
 Frequencies --    109.6832               113.1911               141.5188
 Red. masses --      2.2092                 2.6526                 1.4726
 Frc consts  --      0.0157                 0.0200                 0.0174
 IR Inten    --      0.6822                 0.2140                 0.4001

                     10                     11                     12
                      A                      A                      A
 Frequencies --    173.2313               207.2484               217.0177
 Red. masses --      4.4397                 4.5454                 3.3778
 Frc consts  --      0.0785                 0.1150                 0.0937
 IR Inten    --      0.6251                 1.2611                 0.6884

                     13                     14                     15
                      A                      A                      A
 Frequencies --    223.8055               245.9878               286.0151
 Red. masses --      2.3960                 5.3103                 2.7912
 Frc consts  --      0.0707                 0.1893                 0.1345
 IR Inten    --      4.2214                 1.2991                29.1150

                     16                     17                     18
                      A                      A                      A
 Frequencies --    287.3631               339.8002               373.2953
 Red. masses --      3.8143                 2.2613                 2.7844
 Frc consts  --      0.1856                 0.1538                 0.2286
 IR Inten    --      0.1903                43.9911                15.0386

                     19                     20                     21
                      A                      A                      A
 Frequencies --    389.7770               398.6562               428.7741
 Red. masses --      5.3062                 2.9831                 3.4507
 Frc consts  --      0.4750                 0.2793                 0.3738
 IR Inten    --     15.9485                18.2752                 0.7272

                     22                     23                     24
                      A                      A                      A
 Frequencies --    446.7140               492.4019               533.6568
 Red. masses --      2.9050                 5.2114                 4.4392
 Frc consts  --      0.3415                 0.7445                 0.7449
 IR Inten    --     11.4425                 7.3896                 1.7520

                     25                     26                     27
                      A                      A                      A
 Frequencies --    538.0871               571.5677               605.9653
 Red. masses --      3.7088                 4.4712                 6.7106
 Frc consts  --      0.6327                 0.8606                 1.4518
 IR Inten    --      0.1598                10.5304                 6.5293

                     28                     29                     30
                      A                      A                      A
 Frequencies --    612.7642               615.9901               648.9495
 Red. masses --      5.2210                 5.2735                 4.1048
 Frc consts  --      1.1550                 1.1790                 1.0185
 IR Inten    --      1.4934                 2.1256                 5.5287

                     31                     32                     33
                      A                      A                      A
 Frequencies --    677.0789               717.4560               737.9473
 Red. masses --      6.5823                 6.0917                11.4695
 Frc consts  --      1.7779                 1.8475                 3.6800
 IR Inten    --      9.2195                 2.1499                17.3888

                     34                     35                     36
                      A                      A                      A
 Frequencies --    746.3136               787.5041               807.6509
 Red. masses --      4.2585                 3.4769                 4.8581
 Frc consts  --      1.3975                 1.2704                 1.8671
 IR Inten    --      1.4539                 3.6949                 5.7082

                     37                     38                     39
                      A                      A                      A
 Frequencies --    822.8825               842.2743               844.3259
 Red. masses --      1.7203                 1.5955                 1.8931
 Frc consts  --      0.6863                 0.6669                 0.7952
 IR Inten    --     24.4326                 5.5255                18.5437

                     40                     41                     42
                      A                      A                      A
 Frequencies --    871.3964               888.6415               915.4958
 Red. masses --      3.3237                 5.5758                 4.1049
 Frc consts  --      1.4870                 2.5942                 2.0270
 IR Inten    --     33.5313                 1.5602                 2.3093

                     43                     44                     45
                      A                      A                      A
 Frequencies --    937.7923               953.4796               980.0724
 Red. masses --      1.2750                 1.3175                 2.8921
 Frc consts  --      0.6607                 0.7057                 1.6367
 IR Inten    --      0.0653                 0.0098                39.2887

                     46                     47                     48
                      A                      A                      A
 Frequencies --    997.6978              1047.1469              1069.3866
 Red. masses --      2.0313                 2.4349                 1.5141
 Frc consts  --      1.1913                 1.5731                 1.0202
 IR Inten    --      6.0464                 6.2513                 2.0930

                     49                     50                     51
                      A                      A                      A
 Frequencies --   1095.7395              1098.5394              1132.0013
 Red. masses --      1.3686                 2.7654                 1.7111
 Frc consts  --      0.9681                 1.9662                 1.2919
 IR Inten    --      8.0578                 0.4667                 1.6511

                     52                     53                     54
                      A                      A                      A
 Frequencies --   1144.2145              1162.3005              1177.5576
 Red. masses --      1.2179                 1.5251                 1.8687
 Frc consts  --      0.9394                 1.2139                 1.5267
 IR Inten    --      0.5294                29.9046                28.3372

                     55                     56                     57
                      A                      A                      A
 Frequencies --   1191.0854              1205.2756              1244.9567
 Red. masses --      1.3940                 2.9181                 2.2707
 Frc consts  --      1.1652                 2.4976                 2.0736
 IR Inten    --     63.5828              1070.6861                80.2237

                     58                     59                     60
                      A                      A                      A
 Frequencies --   1276.0468              1290.0481              1299.5369
 Red. masses --      2.3967                 2.4824                 4.6027
 Frc consts  --      2.2993                 2.4341                 4.5797
 IR Inten    --     10.6635                80.0350               101.1059

                     61                     62                     63
                      A                      A                      A
 Frequencies --   1313.1973              1341.0734              1361.8686
 Red. masses --      3.1413                 4.0842                 2.5667
 Frc consts  --      3.1917                 4.3278                 2.8047
 IR Inten    --    131.5904                71.6528                18.2933

                     64                     65                     66
                      A                      A                      A
 Frequencies --   1365.7165              1408.5259              1429.8606
 Red. masses --      3.3040                 3.5844                 1.3479
 Frc consts  --      3.6308                 4.1898                 1.6237
 IR Inten    --     28.3549                16.5639                 7.8373

                     67                     68                     69
                      A                      A                      A
 Frequencies --   1441.8612              1460.4511              1462.6931
 Red. masses --      2.5995                 1.2140                 3.0752
 Frc consts  --      3.1842                 1.5255                 3.8764
 IR Inten    --    374.5320                47.5312                33.3649

                     70                     71                     72
                      A                      A                      A
 Frequencies --   1490.7831              1494.0033              1512.3122
 Red. masses --      1.2332                 2.4127                 1.6344
 Frc consts  --      1.6148                 3.1729                 2.2023
 IR Inten    --     68.4087                42.3695                78.7992

                     73                     74                     75
                      A                      A                      A
 Frequencies --   1514.7983              1519.1631              1530.6680
 Red. masses --      1.0514                 1.0445                 1.0504
 Frc consts  --      1.4214                 1.4203                 1.4500
 IR Inten    --      9.1426                 2.7590                15.1224

                     76                     77                     78
                      A                      A                      A
 Frequencies --   1531.1937              1533.2213              1549.4943
 Red. masses --      1.0459                 1.9474                 2.8436
 Frc consts  --      1.4448                 2.6972                 4.0226
 IR Inten    --     17.7943                 8.4255                11.3728

                     79                     80                     81
                      A                      A                      A
 Frequencies --   1567.1822              1625.2381              1632.1384
 Red. masses --      1.3184                 7.8969                 7.8402
 Frc consts  --      1.9078                12.2897                12.3053
 IR Inten    --     60.6061                43.1572                 4.1859

                     82                     83                     84
                      A                      A                      A
 Frequencies --   1658.1362              1683.6445              1816.1905
 Red. masses --      6.2682                 7.1465                10.7899
 Frc consts  --     10.1539                11.9356                20.9695
 IR Inten    --      7.8610               150.9365               370.9393

                     85                     86                     87
                      A                      A                      A
 Frequencies --   3030.1041              3032.1419              3037.3887
 Red. masses --      1.0423                 1.0406                 1.0429
 Frc consts  --      5.6384                 5.6370                 5.6689
 IR Inten    --     28.7085                26.6139               127.8755

                     88                     89                     90
                      A                      A                      A
 Frequencies --   3078.5779              3081.0762              3084.2558
 Red. masses --      1.1007                 1.1006                 1.1034
 Frc consts  --      6.1461                 6.1558                 6.1843
 IR Inten    --     22.6790                65.0862                 9.6115

                     91                     92                     93
                      A                      A                      A
 Frequencies --   3159.2295              3177.6009              3196.6378
 Red. masses --      1.0972                 1.0882                 1.0963
 Frc consts  --      6.4519                 6.4737                 6.6005
 IR Inten    --      7.3433                28.6289                 0.9298

                     94                     95                     96
                      A                      A                      A
 Frequencies --   3199.6148              3207.6137              3213.1334
 Red. masses --      1.0889                 1.0942                 1.0946
 Frc consts  --      6.5682                 6.6327                 6.6581
 IR Inten    --      3.3922                27.7575                 3.3904

                     97                     98                     99
                      A                      A                      A
 Frequencies --   3224.1573              3264.7766              3674.9978
 Red. masses --      1.0938                 1.0922                 1.0794
 Frc consts  --      6.6995                 6.8591                 8.5893
 IR Inten    --     10.0140                 0.1456                51.6350

 - Thermochemistry -
 -------------------
 Temperature   298.150 Kelvin.  Pressure   1.00000 Atm.
 Atom     1 has atomic number  6 and mass  12.00000

 Molecular mass:   269.11643 amu.
 Principal axes and moments of inertia in atomic units:
                           1         2         3
     Eigenvalues --  1671.20439********************
           X            0.99999   0.00470  -0.00116
           Y           -0.00469   0.99997   0.00637
           Z            0.00119  -0.00636   0.99998
 This molecule is an asymmetric top.
 Rotational symmetry number  1.
 Warning -- assumption of classical behavior for rotation
           may cause significant error
 Rotational temperatures (Kelvin)      0.05183     0.00680     0.00612
 Rotational constants (GHZ):           1.07990     0.14173     0.12756
 Zero-point vibrational energy     737046.9 (Joules/Mol)
                                  176.15845 (Kcal/Mol)
 Warning -- explicit consideration of  29 degrees of freedom as
           vibrations may cause significant error
 Vibrational temperatures:     32.57    41.20    62.16    86.05   139.50
          (Kelvin)            151.58   157.81   162.86   203.61   249.24
                              298.18   312.24   322.01   353.92   411.51
                              413.45   488.90   537.09   560.80   573.58
                              616.91   642.72   708.46   767.81   774.19
                              822.36   871.85   881.63   886.27   933.69
                              974.17  1032.26  1061.74  1073.78  1133.04
                             1162.03  1183.94  1211.84  1214.80  1253.75
                             1278.56  1317.19  1349.27  1371.84  1410.11
                             1435.46  1506.61  1538.61  1576.52  1580.55
                             1628.70  1646.27  1672.29  1694.24  1713.71
                             1734.12  1791.22  1835.95  1856.09  1869.74
                             1889.40  1929.51  1959.43  1964.96  2026.55
                             2057.25  2074.52  2101.26  2104.49  2144.90
                             2149.54  2175.88  2179.46  2185.74  2202.29
                             2203.05  2205.96  2229.38  2254.83  2338.36
                             2348.28  2385.69  2422.39  2613.09  4359.64
                             4362.58  4370.12  4429.39  4432.98  4437.56
                             4545.43  4571.86  4599.25  4603.53  4615.04
                             4622.98  4638.84  4697.29  5287.50

 Zero-point correction=                           0.280726 (Hartree/Particle)
 Thermal correction to Energy=                    0.298931
 Thermal correction to Enthalpy=                  0.299875
 Thermal correction to Gibbs Free Energy=         0.232537
 Sum of electronic and zero-point Energies=           -895.163939
 Sum of electronic and thermal Energies=              -895.145734
 Sum of electronic and thermal Enthalpies=            -895.144789
 Sum of electronic and thermal Free Energies=         -895.212128

                     E (Thermal)             CV                S
                      KCal/Mol        Cal/Mol-Kelvin    Cal/Mol-Kelvin
 Total                  187.582             68.099            141.725
 Electronic               0.000              0.000              0.000
 Translational            0.889              2.981             42.669
 Rotational               0.889              2.981             34.064
 Vibrational            185.805             62.137             64.991
 Vibration     1          0.593              1.985              6.388
 Vibration     2          0.593              1.984              5.922
 Vibration     3          0.595              1.980              5.106
 Vibration     4          0.597              1.973              4.464
 Vibration     5          0.603              1.951              3.515
 Vibration     6          0.605              1.945              3.353
 Vibration     7          0.606              1.941              3.275
 Vibration     8          0.607              1.939              3.213
 Vibration     9          0.615              1.912              2.783
 Vibration    10          0.627              1.875              2.400
 Vibration    11          0.641              1.830              2.068
 Vibration    12          0.646              1.815              1.984
 Vibration    13          0.649              1.805              1.928
 Vibration    14          0.660              1.769              1.759
 Vibration    15          0.684              1.700              1.497
 Vibration    16          0.685              1.697              1.489
 Vibration    17          0.720              1.596              1.213
 Vibration    18          0.745              1.527              1.066
 Vibration    19          0.758              1.492              1.001
 Vibration    20          0.765              1.473              0.968
 Vibration    21          0.790              1.408              0.863
 Vibration    22          0.806              1.368              0.806
 Vibration    23          0.848              1.267              0.677
 Vibration    24          0.889              1.176              0.579
 Vibration    25          0.893              1.166              0.569
 Vibration    26          0.928              1.093              0.501
 Vibration    27          0.965              1.019              0.440
 Vibration    28          0.972              1.005              0.428
 Vibration    29          0.976              0.998              0.423

                           ! Non-Optimized Parameters !
 Normal termination of Gaussian 16 at Mon Dec 14 18:21:36 2020.

 ----------------------------------------------------------------------
 # B3LYP/6-311++G(d,p) empiricaldispersion=gd3bj scf=xqc pop=npa geom=c
 heck
 ----------------------------------------------------------------------

 ----------------------------------------
 CID_118221258_JID_10031_Energie_neutraal
 ----------------------------------------
 Structure from the checkpoint file:  "JID_10031.chk"
 Charge =  0 Multiplicity = 1

 SCF Done:  E(RB3LYP) =  -895.681408755     A.U. after   15 cycles
 Normal termination of Gaussian 16 at Mon Dec 14 18:28:10 2020.

 ----------------------------------------------------------------------
 # B3LYP/6-311++G(d,p) empiricaldispersion=gd3bj scf=xqc pop=npa geom=c
 heck
 ----------------------------------------------------------------------

 --------------------------------------
 CID_118221258_JID_10031_Energie_kation
 --------------------------------------
 Structure from the checkpoint file:  "JID_10031.chk"
 Charge =  1 Multiplicity = 2

 SCF Done:  E(UB3LYP) =  -895.405273663     A.U. after   27 cycles
 Normal termination of Gaussian 16 at Mon Dec 14 18:45:03 2020.
 Gaussian 16:  ES64L-G16RevA.03 25-Dec-2016

 ----------------------------------------------------------------------
 # B3LYP/6-311++G(d,p) empiricaldispersion=gd3bj scf=xqc pop=npa geom=c
 heck
 ----------------------------------------------------------------------

 -------------------------------------
 CID_118221258_JID_10031_Energie_anion
 -------------------------------------
 Structure from the checkpoint file:  "JID_10031.chk"
 Charge = -1 Multiplicity = 2

                         Standard orientation:
 ---------------------------------------------------------------------
 Center     Atomic      Atomic             Coordinates (Angstroms)
 Number     Number       Type             X           Y           Z
 ---------------------------------------------------------------------
      1          6           0        4.528620    2.511145    0.287083
      2          6           0        4.252532    1.043809    0.096862
      3          7           0        5.288247    0.215722   -0.070784
      4          6           0        5.060348   -1.101881   -0.243115
      5          6           0        3.799862   -1.689080   -0.262453
      6          6           0        2.697490   -0.846140   -0.090215
      7          6           0        2.947576    0.535653    0.091302
      8          7           0        1.732868    1.190075    0.247947
      9          6           0        0.700770    0.270740    0.162646
     10          6           0        1.261490   -1.019423   -0.045554
     11          6           0        0.406104   -2.120497   -0.163419
     12          6           0       -0.965414   -1.924365   -0.080271
     13          6           0       -1.486556   -0.634690    0.126553
     14          6           0       -0.674543    0.486008    0.261910
     15          8           0       -2.867147   -0.588979    0.270505
     16          6           0       -3.601107    0.464379   -0.226937
     17          8           0       -3.126519    1.404709   -0.836201
     18          7           0       -4.922558    0.302663    0.067574
     19          6           0       -5.488127   -0.859558    0.733282
     20          6           0       -5.869428    1.284039   -0.434410
     21          1           0        5.606892    2.680285    0.267713
     22          1           0        4.134444    2.873848    1.246036
     23          1           0        4.066474    3.114122   -0.506347
     24          1           0        5.949025   -1.715614   -0.372652
     25          1           0        3.686189   -2.759170   -0.406606
     26          1           0        1.615141    2.185030    0.353300
     27          1           0        0.806931   -3.117261   -0.321865
     28          1           0       -1.659885   -2.752281   -0.170355
     29          1           0       -1.098134    1.469872    0.405130
     30          1           0       -6.146549   -0.531258    1.546829
     31          1           0       -6.084702   -1.457952    0.030796
     32          1           0       -4.696542   -1.479371    1.145831
     33          1           0       -6.485422    1.666620    0.388709
     34          1           0       -5.317860    2.104281   -0.890373
     35          1           0       -6.534282    0.832959   -1.183327
 ---------------------------------------------------------------------

 SCF Done:  E(UB3LYP) =  -895.682057720     A.U. after   31 cycles

 The electronic state is 2-A.
 Alpha  occ. eigenvalues --  -19.06827 -18.99719 -14.25509 -14.24796 -14.17731
 Alpha  occ. eigenvalues --  -10.22322 -10.11803 -10.11174 -10.11008 -10.10434
 Alpha  occ. eigenvalues --  -10.09565 -10.08919 -10.08005 -10.07148 -10.06075
 Alpha  occ. eigenvalues --  -10.05838 -10.05779 -10.05697 -10.05694 -10.05501
 Alpha  occ. eigenvalues --   -1.01221  -0.92500  -0.87576  -0.85316  -0.81440
 Alpha  occ. eigenvalues --   -0.73720  -0.69390  -0.66635  -0.64886  -0.63363
 Alpha  occ. eigenvalues --   -0.63112  -0.60928  -0.59318  -0.54791  -0.51332
 Alpha  occ. eigenvalues --   -0.50627  -0.47876  -0.45796  -0.44099  -0.43551
 Alpha  occ. eigenvalues --   -0.39933  -0.39771  -0.39255  -0.37785  -0.36417
 Alpha  occ. eigenvalues --   -0.35046  -0.34723  -0.34192  -0.33878  -0.33147
 Alpha  occ. eigenvalues --   -0.31990  -0.31591  -0.31512  -0.31422  -0.31134
 Alpha  occ. eigenvalues --   -0.30651  -0.29426  -0.28282  -0.26794  -0.25718
 Alpha  occ. eigenvalues --   -0.24927  -0.24472  -0.23623  -0.21399  -0.18537
 Alpha  occ. eigenvalues --   -0.18024  -0.15810  -0.14751  -0.14093  -0.11264
 Alpha  occ. eigenvalues --   -0.10272   0.03736
 Alpha virt. eigenvalues --    0.05046   0.06962   0.07467   0.08022   0.08258
 Alpha virt. eigenvalues --    0.08989   0.09714   0.09909   0.10453   0.10994
 Alpha virt. eigenvalues --    0.11285   0.11427   0.11882   0.11953   0.12319

  Beta  occ. eigenvalues --  -19.06827 -18.99710 -14.25501 -14.24781 -14.17501
  Beta  occ. eigenvalues --  -10.22295 -10.11603 -10.11140 -10.10979 -10.10441
  Beta  occ. eigenvalues --  -10.09584 -10.08787 -10.08060 -10.07159 -10.05951
  Beta  occ. eigenvalues --  -10.05886 -10.05681 -10.05627 -10.05574 -10.05377
  Beta  occ. eigenvalues --   -1.01168  -0.92463  -0.87515  -0.85288  -0.81113
  Beta  occ. eigenvalues --   -0.73522  -0.69107  -0.66452  -0.64733  -0.63290
  Beta  occ. eigenvalues --   -0.62916  -0.60776  -0.59216  -0.54575  -0.51286
  Beta  occ. eigenvalues --   -0.50575  -0.47654  -0.45646  -0.43998  -0.43437
  Beta  occ. eigenvalues --   -0.39847  -0.39694  -0.39156  -0.37680  -0.36313
  Beta  occ. eigenvalues --   -0.34934  -0.34668  -0.34002  -0.33675  -0.33049
  Beta  occ. eigenvalues --   -0.31903  -0.31555  -0.31428  -0.31343  -0.30965
  Beta  occ. eigenvalues --   -0.30601  -0.29385  -0.28168  -0.26688  -0.25268
  Beta  occ. eigenvalues --   -0.24771  -0.24302  -0.23405  -0.21035  -0.18484
  Beta  occ. eigenvalues --   -0.17177  -0.15708  -0.14137  -0.13818  -0.10487
  Beta  occ. eigenvalues --   -0.09736
  Beta virt. eigenvalues --    0.05886   0.06911   0.07559   0.07740   0.08206
  Beta virt. eigenvalues --    0.08769   0.08957   0.09763   0.10070   0.10462
  Beta virt. eigenvalues --    0.11054   0.11448   0.11552   0.11882   0.12190

 Mulliken charges and spin densities:
               1          2
     1  C   -0.775166  -0.007082
     2  C   -0.938119   0.074443
     3  N   -0.063921   0.109668
     4  C   -0.141748  -0.048218
     5  C   -0.110700   0.143569
     6  C    1.003256   0.025823
     7  C   -0.285101   0.007699
     8  N   -0.041906   0.011559
     9  C   -0.645661   0.005417
    10  C    1.390688  -0.049474
    11  C   -0.198949   0.212728
    12  C   -0.257393  -0.022556
    13  C   -0.300358   0.090415
    14  C   -0.382158   0.043648
    15  O   -0.112233   0.007829
    16  C   -0.102375   0.120469
    17  O   -0.306392   0.003440
    18  N   -0.348196   0.182159
    19  C    0.421050  -0.765935
    20  C    0.476625  -0.769499
    21  H    0.164852  -0.000936
    22  H    0.134019   0.002478
    23  H    0.128749   0.009856
    24  H    0.158918   0.002165
    25  H    0.109491  -0.008032
    26  H    0.270841   0.001386
    27  H    0.100781  -0.005404
    28  H    0.099768   0.044316
    29  H    0.157365   0.025116
    30  H   -0.303748   0.446734
    31  H   -0.107628   0.250077
    32  H    0.068073   0.131833
    33  H   -0.279816   0.428121
    34  H    0.122034   0.053980
    35  H   -0.104943   0.242207
 Sum of Mulliken charges =  -1.00000   1.00000

 Dipole moment (field-independent basis, Debye):
    X=              1.7061    Y=              0.4593    Z=             -0.0973  Tot=              1.7695
 Quadrupole moment (field-independent basis, Debye-Ang):
   XX=           -248.0449   YY=           -129.0262   ZZ=           -137.4334
   XY=              7.1376   XZ=              6.9418   YZ=              3.0831

 Summary of Natural Population Analysis:

                                       Natural Population
                Natural  -----------------------------------------------
    Atom  No    Charge         Core      Valence    Rydberg      Total
 -----------------------------------------------------------------------
      C    1   -0.30127      0.99965     2.29698    0.00464     3.30127
      C    2    0.10430      0.99951     1.88299    0.01320     2.89570
      N    3   -0.21895      0.99968     2.70608    0.01318     3.71895
      C    4   -0.01046      0.99963     1.99510    0.01572     3.01046
      C    5   -0.09113      0.99943     2.08208    0.00962     3.09113
      C    6   -0.02843      0.99953     2.01384    0.01506     3.02843
      C    7    0.06627      0.99944     1.92417    0.01013     2.93373
      N    8   -0.28034      0.99963     2.77277    0.00793     3.78034
      C    9    0.08275      0.99954     1.90413    0.01358     2.91725
      C   10    0.00055      0.99951     1.98746    0.01248     2.99945
      C   11   -0.03000      0.99959     2.02182    0.00859     3.03000
      C   12   -0.16117      0.99957     2.14599    0.01561     3.16117
      C   13    0.18597      0.99937     1.79962    0.01503     2.81403
      C   14   -0.13636      0.99948     2.12919    0.00770     3.13636
      O   15   -0.28428      0.99984     3.27592    0.00852     4.28428
      C   16    0.46864      0.99963     1.50592    0.02581     2.53136
      O   17   -0.33046      0.99987     3.32598    0.00461     4.33046
      N   18   -0.25879      0.99966     2.74958    0.00956     3.75879
      C   19   -0.17538      0.99964     2.16798    0.00776     3.17538
      C   20   -0.17581      0.99964     2.16852    0.00765     3.17581
      H   21    0.10866      0.00000     0.38999    0.00135     0.39134
      H   22    0.09695      0.00000     0.40188    0.00117     0.40305
      H   23    0.09725      0.00000     0.40157    0.00118     0.40275
      H   24    0.08285      0.00000     0.41598    0.00117     0.41715
      H   25    0.09771      0.00000     0.40146    0.00083     0.40229
      H   26    0.19715      0.00000     0.30130    0.00155     0.30285
      H   27    0.09054      0.00000     0.40727    0.00218     0.40946
      H   28    0.10042      0.00000     0.39789    0.00169     0.39958
      H   29    0.11158      0.00000     0.38681    0.00162     0.38842
      H   30    0.09522      0.00000     0.40295    0.00183     0.40478
      H   31    0.08991      0.00000     0.40890    0.00120     0.41009
      H   32    0.11340      0.00000     0.38545    0.00115     0.38660
      H   33    0.09456      0.00000     0.40385    0.00159     0.40544
      H   34    0.11407      0.00000     0.38499    0.00094     0.38593
      H   35    0.09000      0.00000     0.40894    0.00106     0.41000
 =======================================================================
   * Total *    0.00593     19.99185    50.75535    0.24688    70.99407

 Normal termination of Gaussian 16 at Mon Dec 14 19:04:12 2020.
