 Gaussian 16, Revision A.03,

 -----------------------------------------------------------
 # opt freq B3LYP/6-31G(d) empiricaldispersion=gd3bj scf=xqc
 -----------------------------------------------------------

 ------------------------------
 CID_88709940_JID_1825_neutraal
 ------------------------------
 Symbolic Z-matrix:
 Charge =  0 Multiplicity = 1

 SCF Done:  E(RB3LYP) =  -928.708414643     A.U. after   15 cycles
 SCF Done:  E(RB3LYP) =  -928.717045355     A.U. after   14 cycles
 SCF Done:  E(RB3LYP) =  -928.719484036     A.U. after   13 cycles
 SCF Done:  E(RB3LYP) =  -928.721204521     A.U. after   13 cycles
 SCF Done:  E(RB3LYP) =  -928.722208874     A.U. after   12 cycles
 SCF Done:  E(RB3LYP) =  -928.723609436     A.U. after   12 cycles
 SCF Done:  E(RB3LYP) =  -928.724435389     A.U. after   13 cycles
 SCF Done:  E(RB3LYP) =  -928.724564570     A.U. after   12 cycles
 SCF Done:  E(RB3LYP) =  -928.724724586     A.U. after   11 cycles
 SCF Done:  E(RB3LYP) =  -928.724774344     A.U. after   11 cycles
 SCF Done:  E(RB3LYP) =  -928.724821385     A.U. after   12 cycles
 SCF Done:  E(RB3LYP) =  -928.724827220     A.U. after    9 cycles
 SCF Done:  E(RB3LYP) =  -928.724829514     A.U. after   10 cycles
 SCF Done:  E(RB3LYP) =  -928.724829804     A.U. after    8 cycles
 SCF Done:  E(RB3LYP) =  -928.724829918     A.U. after    8 cycles
 SCF Done:  E(RB3LYP) =  -928.724829963     A.U. after    8 cycles
 Optimization completed.
    -- Stationary point found.
 Normal termination of Gaussian 16 at Tue Dec  8 20:15:17 2020.

 --------------------------------------------------------------------
 #N Geom=AllCheck Guess=TCheck SCRF=Check GenChk RB3LYP/6-31G(d) Freq
 --------------------------------------------------------------------

 Structure from the checkpoint file:  "JID_1825.chk"
 ------------------------------
 CID_88709940_JID_1825_neutraal
 ------------------------------
 Charge =  0 Multiplicity = 1

 SCF Done:  E(RB3LYP) =  -928.724829963     A.U. after    1 cycles

  Exact polarizability: 110.665  -0.944  80.929   1.501   1.909  74.878
 Approx polarizability: 137.879  -8.958 128.597  -4.432   3.685 122.287

                      1                      2                      3
                      A                      A                      A
 Frequencies --     23.0359                44.3190                54.7509
 Red. masses --      5.1664                 6.5935                 4.0994
 Frc consts  --      0.0016                 0.0076                 0.0072
 IR Inten    --      0.0189                 1.5261                 0.5572

                      4                      5                      6
                      A                      A                      A
 Frequencies --     70.0348               119.8402               154.4812
 Red. masses --      6.0677                 7.3463                 5.6205
 Frc consts  --      0.0175                 0.0622                 0.0790
 IR Inten    --      0.3243                 0.6422                 1.0878

                      7                      8                      9
                      A                      A                      A
 Frequencies --    245.9011               271.4751               295.2930
 Red. masses --      5.3029                 2.9343                 6.5511
 Frc consts  --      0.1889                 0.1274                 0.3366
 IR Inten    --      0.7443                 0.2595                 9.8109

                     10                     11                     12
                      A                      A                      A
 Frequencies --    355.1141               466.4150               486.7098
 Red. masses --      7.4859                13.4643                12.3165
 Frc consts  --      0.5562                 1.7258                 1.7190
 IR Inten    --      7.1889                72.3049                27.1755

                     13                     14                     15
                      A                      A                      A
 Frequencies --    530.6879               559.0581               592.7374
 Red. masses --      1.6243                 1.9848                 2.6831
 Frc consts  --      0.2695                 0.3655                 0.5554
 IR Inten    --     12.7042                34.0920                72.6653

                     16                     17                     18
                      A                      A                      A
 Frequencies --    621.6754               663.9197               744.5244
 Red. masses --      1.3663                 1.2600                 2.2274
 Frc consts  --      0.3111                 0.3272                 0.7275
 IR Inten    --    137.1667                77.0051                 9.7047

                     19                     20                     21
                      A                      A                      A
 Frequencies --    753.4041               770.6209               813.4617
 Red. masses --      4.3253                 9.4295                 1.1685
 Frc consts  --      1.4465                 3.2993                 0.4556
 IR Inten    --     30.0238                60.2463                10.0953

                     22                     23                     24
                      A                      A                      A
 Frequencies --    829.8976               841.5214               911.1920
 Red. masses --      5.7533                 1.7985                 3.4137
 Frc consts  --      2.3346                 0.7504                 1.6699
 IR Inten    --     25.3515                 8.2940                50.1683

                     25                     26                     27
                      A                      A                      A
 Frequencies --    926.1564               964.6645               996.7339
 Red. masses --      2.6146                 3.9563                 4.3014
 Frc consts  --      1.3213                 2.1692                 2.5178
 IR Inten    --      4.9705                33.2480                66.2782

                     28                     29                     30
                      A                      A                      A
 Frequencies --   1075.3104              1102.4173              1125.2724
 Red. masses --      1.2413                 1.3381                 1.4305
 Frc consts  --      0.8457                 0.9582                 1.0672
 IR Inten    --      8.4048                 3.3202                 2.2433

                     31                     32                     33
                      A                      A                      A
 Frequencies --   1138.8396              1200.6709              1223.0781
 Red. masses --      1.0995                 2.1360                 1.3606
 Frc consts  --      0.8402                 1.8143                 1.1992
 IR Inten    --      3.2860               612.8684                 0.2536

                     34                     35                     36
                      A                      A                      A
 Frequencies --   1228.3154              1240.2967              1390.7563
 Red. masses --      2.2629                 2.7789                 1.3000
 Frc consts  --      2.0116                 2.5187                 1.4815
 IR Inten    --    135.4909                15.8529                19.0207

                     37                     38                     39
                      A                      A                      A
 Frequencies --   1398.4086              1437.3014              1453.2653
 Red. masses --      1.3673                 2.2613                 2.2765
 Frc consts  --      1.5754                 2.7523                 2.8328
 IR Inten    --     19.4915               318.7699                41.4512

                     40                     41                     42
                      A                      A                      A
 Frequencies --   1481.6544              1520.4499              1791.0982
 Red. masses --      1.0897                 1.3940                 8.9924
 Frc consts  --      1.4094                 1.8988                16.9967
 IR Inten    --      2.4494                10.6506               215.5592

                     43                     44                     45
                      A                      A                      A
 Frequencies --   1851.5501              3159.2156              3163.4746
 Red. masses --      8.5973                 1.0523                 1.0560
 Frc consts  --     17.3653                 6.1881                 6.2265
 IR Inten    --    456.8589                11.8802                11.8929

                     46                     47                     48
                      A                      A                      A
 Frequencies --   3217.3610              3244.1535              3258.1244
 Red. masses --      1.0904                 1.1202                 1.1167
 Frc consts  --      6.6504                 6.9459                 6.9846
 IR Inten    --      1.7595                 0.8006                 5.6203

                     49                     50                     51
                      A                      A                      A
 Frequencies --   3547.3983              3594.1007              3732.5534
 Red. masses --      1.0758                 1.0767                 1.0646
 Frc consts  --      7.9763                 8.1944                 8.7389
 IR Inten    --     30.5221                36.1677                91.0963

 - Thermochemistry -
 -------------------
 Temperature   298.150 Kelvin.  Pressure   1.00000 Atm.
 Atom     1 has atomic number  6 and mass  12.00000

 Molecular mass:   176.02556 amu.
 Principal axes and moments of inertia in atomic units:
                           1         2         3
     Eigenvalues --  1024.536163645.803033810.17712
           X            0.99978   0.01810   0.01095
           Y           -0.01896   0.99627   0.08421
           Z           -0.00939  -0.08440   0.99639
 This molecule is an asymmetric top.
 Rotational symmetry number  1.
 Warning -- assumption of classical behavior for rotation
           may cause significant error
 Rotational temperatures (Kelvin)      0.08454     0.02376     0.02273
 Rotational constants (GHZ):           1.76152     0.49502     0.47366
 Zero-point vibrational energy     374925.8 (Joules/Mol)
                                   89.60941 (Kcal/Mol)
 Warning -- explicit consideration of  15 degrees of freedom as
           vibrations may cause significant error
 Vibrational temperatures:     33.14    63.77    78.77   100.76   172.42
          (Kelvin)            222.26   353.80   390.59   424.86   510.93
                              671.07   700.27   763.54   804.36   852.82
                              894.45   955.23  1071.20  1083.98  1108.75
                             1170.39  1194.04  1210.76  1311.00  1332.53
                             1387.94  1434.08  1547.13  1586.13  1619.02
                             1638.54  1727.50  1759.74  1767.27  1784.51
                             2000.99  2012.00  2067.96  2090.92  2131.77
                             2187.59  2576.99  2663.97  4545.41  4551.53
                             4629.06  4667.61  4687.71  5103.91  5171.11
                             5370.31

 Zero-point correction=                           0.142802 (Hartree/Particle)
 Thermal correction to Energy=                    0.154233
 Thermal correction to Enthalpy=                  0.155177
 Thermal correction to Gibbs Free Energy=         0.102764
 Sum of electronic and zero-point Energies=           -928.582028
 Sum of electronic and thermal Energies=              -928.570597
 Sum of electronic and thermal Enthalpies=            -928.569653
 Sum of electronic and thermal Free Energies=         -928.622066

                     E (Thermal)             CV                S
                      KCal/Mol        Cal/Mol-Kelvin    Cal/Mol-Kelvin
 Total                   96.783             40.468            110.312
 Electronic               0.000              0.000              0.000
 Translational            0.889              2.981             41.404
 Rotational               0.889              2.981             31.032
 Vibrational             95.005             34.506             37.876
 Vibration     1          0.593              1.985              6.354
 Vibration     2          0.595              1.980              5.056
 Vibration     3          0.596              1.976              4.638
 Vibration     4          0.598              1.968              4.152
 Vibration     5          0.609              1.933              3.103
 Vibration     6          0.620              1.898              2.616
 Vibration     7          0.660              1.770              1.760
 Vibration     8          0.675              1.726              1.587
 Vibration     9          0.690              1.683              1.443
 Vibration    10          0.731              1.565              1.143
 Vibration    11          0.824              1.325              0.748
 Vibration    12          0.843              1.280              0.692
 Vibration    13          0.886              1.182              0.586
 Vibration    14          0.915              1.120              0.526
 Vibration    15          0.950              1.047              0.462

 Optimization completed.
    -- Stationary point found.
 Normal termination of Gaussian 16 at Tue Dec  8 20:18:31 2020.

 ----------------------------------------------------------------------
 # B3LYP/6-311++G(d,p) empiricaldispersion=gd3bj scf=xqc pop=npa geom=c
 heck
 ----------------------------------------------------------------------

 --------------------------------------
 CID_88709940_JID_1825_Energie_neutraal
 --------------------------------------
 Structure from the checkpoint file:  "JID_1825.chk"
 Charge =  0 Multiplicity = 1

 SCF Done:  E(RB3LYP) =  -928.926250378     A.U. after   14 cycles
 Normal termination of Gaussian 16 at Tue Dec  8 20:20:17 2020.

 ----------------------------------------------------------------------
 # B3LYP/6-311++G(d,p) empiricaldispersion=gd3bj scf=xqc pop=npa geom=c
 heck
 ----------------------------------------------------------------------

 ------------------------------------
 CID_88709940_JID_1825_Energie_kation
 ------------------------------------
 Structure from the checkpoint file:  "JID_1825.chk"
 Charge =  1 Multiplicity = 2

 SCF Done:  E(UB3LYP) =  -928.584114461     A.U. after   27 cycles
 Normal termination of Gaussian 16 at Tue Dec  8 20:25:00 2020.
 Gaussian 16:  ES64L-G16RevA.03 25-Dec-2016

 ----------------------------------------------------------------------
 # B3LYP/6-311++G(d,p) empiricaldispersion=gd3bj scf=xqc pop=npa geom=c
 heck
 ----------------------------------------------------------------------

 -----------------------------------
 CID_88709940_JID_1825_Energie_anion
 -----------------------------------
 Structure from the checkpoint file:  "JID_1825.chk"
 Charge = -1 Multiplicity = 2

                         Standard orientation:
 ---------------------------------------------------------------------
 Center     Atomic      Atomic             Coordinates (Angstroms)
 Number     Number       Type             X           Y           Z
 ---------------------------------------------------------------------
      1          6           0        3.633771    0.450416    0.339633
      2          6           0        2.766702    1.549226   -0.173251
      3          6           0        2.125012    0.312013    0.443885
      4          6           0        1.483425   -0.633707   -0.506122
      5          8           0        1.954329   -0.911036   -1.597954
      6          7           0        0.281847   -1.238148   -0.116034
      7         16           0       -0.727022   -0.835502    1.187229
      8          7           0       -1.588616    0.549601    0.682666
      9          6           0       -2.638458    0.589275   -0.217525
     10          8           0       -3.155910    1.618951   -0.595022
     11          8           0       -3.009592   -0.646702   -0.623441
     12          1           0        4.175529    0.598120    1.268677
     13          1           0        4.116399   -0.189242   -0.391731
     14          1           0        2.695232    2.473919    0.391408
     15          1           0        2.667536    1.648701   -1.249376
     16          1           0        1.675957    0.413989    1.424271
     17          1           0       -0.125516   -1.812587   -0.849737
     18          1           0       -1.199766    1.463871    0.883055
     19          1           0       -3.758963   -0.501950   -1.227055
 ---------------------------------------------------------------------

 SCF Done:  E(UB3LYP) =  -928.916433399     A.U. after   31 cycles

 The electronic state is 2-A.
 Alpha  occ. eigenvalues --  -88.80835 -19.06476 -19.00381 -19.00254 -14.25900
 Alpha  occ. eigenvalues --  -14.25493 -10.22791 -10.18512 -10.09172 -10.08492
 Alpha  occ. eigenvalues --  -10.08438  -7.88913  -5.85519  -5.85021  -5.84052
 Alpha  occ. eigenvalues --   -1.01361  -0.95450  -0.91996  -0.85609  -0.80716
 Alpha  occ. eigenvalues --   -0.77110  -0.62898  -0.57390  -0.53911  -0.51115
 Alpha  occ. eigenvalues --   -0.46726  -0.44283  -0.42647  -0.41262  -0.38099
 Alpha  occ. eigenvalues --   -0.37269  -0.36513  -0.35408  -0.33673  -0.32230
 Alpha  occ. eigenvalues --   -0.30389  -0.28990  -0.27362  -0.22909  -0.21972
 Alpha  occ. eigenvalues --   -0.20837  -0.20303  -0.19421  -0.18314  -0.17487
 Alpha  occ. eigenvalues --   -0.15400   0.04578
 Alpha virt. eigenvalues --    0.06459   0.07830   0.08152   0.08979   0.09354
 Alpha virt. eigenvalues --    0.10223   0.11399   0.12096   0.12586   0.12843
 Alpha virt. eigenvalues --    0.13558   0.14748   0.15407   0.15815   0.16559

  Beta  occ. eigenvalues --  -88.80819 -19.06395 -19.00370 -19.00225 -14.25905
  Beta  occ. eigenvalues --  -14.25386 -10.22781 -10.18465 -10.09156 -10.08475
  Beta  occ. eigenvalues --  -10.08410  -7.88898  -5.85498  -5.84981  -5.84044
  Beta  occ. eigenvalues --   -1.01256  -0.95387  -0.91917  -0.85510  -0.80629
  Beta  occ. eigenvalues --   -0.77074  -0.62798  -0.57313  -0.53725  -0.51050
  Beta  occ. eigenvalues --   -0.46656  -0.44225  -0.42591  -0.41151  -0.38039
  Beta  occ. eigenvalues --   -0.37202  -0.36425  -0.35340  -0.33555  -0.32136
  Beta  occ. eigenvalues --   -0.30299  -0.28906  -0.27315  -0.22829  -0.21934
  Beta  occ. eigenvalues --   -0.20799  -0.20239  -0.19370  -0.18237  -0.17441
  Beta  occ. eigenvalues --   -0.15332
  Beta virt. eigenvalues --    0.07476   0.07948   0.08298   0.08783   0.09191
  Beta virt. eigenvalues --    0.09866   0.10549   0.11635   0.12274   0.12831
  Beta virt. eigenvalues --    0.13193   0.13848   0.14964   0.15441   0.15805

 Mulliken charges and spin densities:
               1          2
     1  C    0.328695  -0.819828
     2  C    0.539702  -1.031767
     3  C   -0.322381   0.867838
     4  C    0.140767  -0.375428
     5  O   -0.331912   0.004835
     6  N   -0.299018  -0.040907
     7  S    0.282809  -0.154411
     8  N   -0.130493  -0.258477
     9  C    0.546001  -0.368958
    10  O   -0.332136   0.025678
    11  O   -0.190689  -0.027462
    12  H   -0.265825   0.416214
    13  H    0.158390  -0.003092
    14  H   -0.322491   0.488998
    15  H    0.042894   0.123757
    16  H   -0.614270   0.895052
    17  H    0.323343   0.019413
    18  H   -0.063342   0.438391
    19  H   -0.490044   0.800153
 Sum of Mulliken charges =  -1.00000   1.00000

 Dipole moment (field-independent basis, Debye):
    X=              2.9363    Y=             -3.7851    Z=              0.6188  Tot=              4.8302
 Quadrupole moment (field-independent basis, Debye-Ang):
   XX=           -137.3986   YY=           -103.4584   ZZ=           -102.4224
   XY=             -2.9391   XZ=            -12.3475   YZ=             -8.8248

 Summary of Natural Population Analysis:

                                       Natural Population
                Natural  -----------------------------------------------
    Atom  No    Charge         Core      Valence    Rydberg      Total
 -----------------------------------------------------------------------
      C    1   -0.18652      0.99962     2.17739    0.00951     3.18652
      C    2   -0.18100      0.99962     2.17147    0.00990     3.18100
      C    3   -0.17289      0.99955     2.16031    0.01303     3.17289
      C    4    0.35131      0.99963     1.62431    0.02475     2.64869
      O    5   -0.31467      0.99988     3.30941    0.00538     4.31467
      N    6   -0.40195      0.99968     2.89216    0.01010     3.90195
      S    7    0.30991      4.99960     2.66260    0.02788     7.69009
      N    8   -0.40627      0.99968     2.89523    0.01136     3.90627
      C    9    0.46056      0.99972     1.51507    0.02465     2.53944
      O   10   -0.31947      0.99987     3.31300    0.00661     4.31947
      O   11   -0.34765      0.99988     3.34047    0.00730     4.34765
      H   12    0.10531      0.00000     0.39357    0.00112     0.39469
      H   13    0.10882      0.00000     0.39021    0.00096     0.39118
      H   14    0.10860      0.00000     0.38931    0.00209     0.39140
      H   15    0.10802      0.00000     0.39100    0.00098     0.39198
      H   16    0.11985      0.00000     0.37759    0.00256     0.38015
      H   17    0.19912      0.00000     0.29851    0.00237     0.30088
      H   18    0.20796      0.00000     0.28505    0.00698     0.29204
      H   19    0.25096      0.00000     0.21953    0.02951     0.24904
 =======================================================================
   * Total *    0.00000     14.99675    30.80620    0.19706    46.00000

 Normal termination of Gaussian 16 at Tue Dec  8 20:30:20 2020.
