 Gaussian 16, Revision A.03,

 -----------------------------------------------------------
 # opt freq B3LYP/6-31G(d) empiricaldispersion=gd3bj scf=xqc
 -----------------------------------------------------------

 -------------------------------
 CID_107127843_JID_8978_neutraal
 -------------------------------
 Symbolic Z-matrix:
 Charge =  0 Multiplicity = 1

 SCF Done:  E(RB3LYP) =  -768.411593927     A.U. after   15 cycles
 SCF Done:  E(RB3LYP) =  -768.399075286     A.U. after   14 cycles
 SCF Done:  E(RB3LYP) =  -768.417928299     A.U. after   12 cycles
 SCF Done:  E(RB3LYP) =  -768.416082754     A.U. after   13 cycles
 SCF Done:  E(RB3LYP) =  -768.418772578     A.U. after   12 cycles
 SCF Done:  E(RB3LYP) =  -768.418844938     A.U. after   12 cycles
 SCF Done:  E(RB3LYP) =  -768.419057966     A.U. after   11 cycles
 SCF Done:  E(RB3LYP) =  -768.419229916     A.U. after   12 cycles
 SCF Done:  E(RB3LYP) =  -768.419272084     A.U. after   11 cycles
 SCF Done:  E(RB3LYP) =  -768.419298960     A.U. after   10 cycles
 SCF Done:  E(RB3LYP) =  -768.419337042     A.U. after   10 cycles
 SCF Done:  E(RB3LYP) =  -768.419350173     A.U. after   10 cycles
 SCF Done:  E(RB3LYP) =  -768.419352734     A.U. after    8 cycles
 SCF Done:  E(RB3LYP) =  -768.419353005     A.U. after    7 cycles
 SCF Done:  E(RB3LYP) =  -768.419353063     A.U. after    7 cycles
 Optimization completed.
    -- Stationary point found.
 Normal termination of Gaussian 16 at Fri Dec 11 23:25:43 2020.

 --------------------------------------------------------------------
 #N Geom=AllCheck Guess=TCheck SCRF=Check GenChk RB3LYP/6-31G(d) Freq
 --------------------------------------------------------------------

 Structure from the checkpoint file:  "JID_8978.chk"
 -------------------------------
 CID_107127843_JID_8978_neutraal
 -------------------------------
 Charge =  0 Multiplicity = 1

 SCF Done:  E(RB3LYP) =  -768.419353063     A.U. after    1 cycles

  Exact polarizability: 167.927 -13.094 173.935  17.449   3.397 133.701
 Approx polarizability: 238.781 -29.114 270.336  39.749   5.165 220.350

                      1                      2                      3
                      A                      A                      A
 Frequencies --     35.8514                59.8386                81.8151
 Red. masses --      4.7804                 6.0569                 4.3592
 Frc consts  --      0.0036                 0.0128                 0.0172
 IR Inten    --      1.3302                 0.8733                 1.1483

                      4                      5                      6
                      A                      A                      A
 Frequencies --     87.4972               119.4937               141.5121
 Red. masses --      3.8597                 3.9547                 2.7794
 Frc consts  --      0.0174                 0.0333                 0.0328
 IR Inten    --      0.2317                 0.7417                 1.8479

                      7                      8                      9
                      A                      A                      A
 Frequencies --    157.2241               202.4276               211.3193
 Red. masses --      4.0411                 3.6141                 2.8251
 Frc consts  --      0.0589                 0.0873                 0.0743
 IR Inten    --      0.1181                 0.0734                 3.4612

                     10                     11                     12
                      A                      A                      A
 Frequencies --    230.8775               246.1064               260.1701
 Red. masses --      2.3062                 2.9719                 1.2388
 Frc consts  --      0.0724                 0.1061                 0.0494
 IR Inten    --      3.0223                 1.2066                37.2667

                     13                     14                     15
                      A                      A                      A
 Frequencies --    296.2441               313.0790               348.1928
 Red. masses --      1.9662                 3.5364                 3.5697
 Frc consts  --      0.1017                 0.2042                 0.2550
 IR Inten    --      1.4400                 0.9859                 0.7891

                     16                     17                     18
                      A                      A                      A
 Frequencies --    371.2714               386.1804               416.4633
 Red. masses --      3.0783                 2.7496                 2.9188
 Frc consts  --      0.2500                 0.2416                 0.2983
 IR Inten    --      0.4094                 2.0344                 1.2137

                     19                     20                     21
                      A                      A                      A
 Frequencies --    444.0585               483.6610               510.0008
 Red. masses --      3.1223                 3.5032                 3.1317
 Frc consts  --      0.3627                 0.4828                 0.4799
 IR Inten    --     11.1548                 4.5322                 1.6354

                     22                     23                     24
                      A                      A                      A
 Frequencies --    523.7421               559.2050               590.3238
 Red. masses --      4.4351                 4.3115                 3.6224
 Frc consts  --      0.7168                 0.7944                 0.7437
 IR Inten    --     23.3563                11.1959                 1.6569

                     25                     26                     27
                      A                      A                      A
 Frequencies --    599.6675               636.5931               673.8765
 Red. masses --      3.2405                 2.6649                 2.6050
 Frc consts  --      0.6866                 0.6363                 0.6970
 IR Inten    --      2.3891                 9.5995                29.0626

                     28                     29                     30
                      A                      A                      A
 Frequencies --    730.3254               756.1235               761.5648
 Red. masses --      2.5778                 3.2123                 2.6924
 Frc consts  --      0.8101                 1.0821                 0.9200
 IR Inten    --     10.9259                11.2197                27.2837

                     31                     32                     33
                      A                      A                      A
 Frequencies --    772.0360               790.1175               795.2642
 Red. masses --      1.6123                 1.4368                 1.4682
 Frc consts  --      0.5662                 0.5285                 0.5471
 IR Inten    --     25.9138                11.1739                23.1667

                     34                     35                     36
                      A                      A                      A
 Frequencies --    810.5126               830.6819               852.9597
 Red. masses --      2.8253                 3.1987                 1.3092
 Frc consts  --      1.0935                 1.3004                 0.5612
 IR Inten    --     17.0414                 1.3977               109.9077

                     37                     38                     39
                      A                      A                      A
 Frequencies --    881.9558               897.7284               915.4480
 Red. masses --      1.3845                 2.0785                 2.2997
 Frc consts  --      0.6345                 0.9869                 1.1355
 IR Inten    --      1.3649                 0.4773                 4.1642

                     40                     41                     42
                      A                      A                      A
 Frequencies --    937.4313               941.7917               946.1553
 Red. masses --      2.3789                 2.0934                 1.5758
 Frc consts  --      1.2317                 1.0940                 0.8312
 IR Inten    --     20.9971                 0.4169                 0.7679

                     43                     44                     45
                      A                      A                      A
 Frequencies --    960.5028               978.9132               993.0604
 Red. masses --      1.2526                 1.2460                 2.3101
 Frc consts  --      0.6809                 0.7035                 1.3422
 IR Inten    --      2.9409                 0.0343                 6.0490

                     46                     47                     48
                      A                      A                      A
 Frequencies --   1010.6666              1023.1326              1054.6281
 Red. masses --      2.3516                 1.7226                 1.4628
 Frc consts  --      1.4153                 1.0624                 0.9586
 IR Inten    --      3.3279                17.0441                12.8862

                     49                     50                     51
                      A                      A                      A
 Frequencies --   1066.6306              1068.9786              1080.6191
 Red. masses --      2.4584                 2.0798                 2.8055
 Frc consts  --      1.6479                 1.4002                 1.9302
 IR Inten    --      0.8108                 5.7278                13.6337

                     52                     53                     54
                      A                      A                      A
 Frequencies --   1087.9067              1106.8192              1107.8206
 Red. masses --      2.4607                 2.6749                 1.3824
 Frc consts  --      1.7159                 1.9307                 0.9996
 IR Inten    --     12.9604                 4.0713                 4.5077

                     55                     56                     57
                      A                      A                      A
 Frequencies --   1143.0815              1193.0015              1194.7739
 Red. masses --      1.8289                 1.2351                 1.1314
 Frc consts  --      1.4080                 1.0357                 0.9516
 IR Inten    --      5.9059                 6.1160                 2.5557

                     58                     59                     60
                      A                      A                      A
 Frequencies --   1197.4265              1208.6625              1212.4202
 Red. masses --      1.2983                 1.3352                 1.8824
 Frc consts  --      1.0968                 1.1493                 1.6303
 IR Inten    --      2.5603                 0.9116                 2.3226

                     61                     62                     63
                      A                      A                      A
 Frequencies --   1223.9373              1241.3225              1261.9293
 Red. masses --      1.5295                 1.4142                 1.8905
 Frc consts  --      1.3499                 1.2839                 1.7737
 IR Inten    --      3.6385                11.6782                 5.9590

                     64                     65                     66
                      A                      A                      A
 Frequencies --   1303.2721              1307.3147              1308.4370
 Red. masses --      1.7560                 1.9780                 1.5204
 Frc consts  --      1.7573                 1.9918                 1.5336
 IR Inten    --     22.4110                 4.2207                11.8245

                     67                     68                     69
                      A                      A                      A
 Frequencies --   1342.8036              1350.0249              1364.8209
 Red. masses --      1.3303                 1.4214                 3.3057
 Frc consts  --      1.4132                 1.5264                 3.6280
 IR Inten    --      8.3825                 2.9502                 0.0935

                     70                     71                     72
                      A                      A                      A
 Frequencies --   1375.5043              1378.7033              1383.8845
 Red. masses --      2.0375                 1.4938                 1.6764
 Frc consts  --      2.2713                 1.6730                 1.8916
 IR Inten    --     63.0387                 2.4811                15.7176

                     73                     74                     75
                      A                      A                      A
 Frequencies --   1395.1711              1412.7439              1440.0026
 Red. masses --      1.9125                 1.4538                 1.5051
 Frc consts  --      2.1934                 1.7096                 1.8388
 IR Inten    --    106.4533                 8.6228                 7.6072

                     76                     77                     78
                      A                      A                      A
 Frequencies --   1482.4575              1493.5976              1503.7158
 Red. masses --      1.1642                 1.3521                 1.7910
 Frc consts  --      1.5075                 1.7771                 2.3861
 IR Inten    --      7.2735                10.8118                 2.6743

                     79                     80                     81
                      A                      A                      A
 Frequencies --   1513.0960              1516.8897              1524.7803
 Red. masses --      1.2909                 1.1574                 1.2526
 Frc consts  --      1.7413                 1.5691                 1.7159
 IR Inten    --      5.6149                 6.7677                11.5812

                     82                     83                     84
                      A                      A                      A
 Frequencies --   1530.9950              1537.7375              1543.6859
 Red. masses --      1.1899                 1.2125                 1.9145
 Frc consts  --      1.6433                 1.6893                 2.6880
 IR Inten    --      1.5003                 6.4574                11.6637

                     85                     86                     87
                      A                      A                      A
 Frequencies --   1641.9989              1669.4792              1691.7878
 Red. masses --      6.0662                 6.0905                 1.0914
 Frc consts  --      9.6363                10.0014                 1.8405
 IR Inten    --      0.6720                 0.5441                32.3730

                     88                     89                     90
                      A                      A                      A
 Frequencies --   1764.7875              2969.5393              3014.2661
 Red. masses --      6.9582                 1.0739                 1.0696
 Frc consts  --     12.7683                 5.5793                 5.7258
 IR Inten    --    319.7048                63.7100                32.2104

                     91                     92                     93
                      A                      A                      A
 Frequencies --   3026.0677              3077.7049              3086.8694
 Red. masses --      1.0730                 1.0738                 1.0891
 Frc consts  --      5.7890                 5.9930                 6.1145
 IR Inten    --     20.1598                15.1169                45.1398

                     94                     95                     96
                      A                      A                      A
 Frequencies --   3098.1133              3104.0403              3112.4728
 Red. masses --      1.0892                 1.0844                 1.0866
 Frc consts  --      6.1599                 6.1559                 6.2017
 IR Inten    --     20.9542                17.2411                25.1945

                     97                     98                     99
                      A                      A                      A
 Frequencies --   3136.6710              3145.9399              3174.5767
 Red. masses --      1.0953                 1.0554                 1.0858
 Frc consts  --      6.3494                 6.1539                 6.4473
 IR Inten    --     35.5699                13.0470                10.9802

                    100                    101                    102
                      A                      A                      A
 Frequencies --   3179.5912              3191.5468              3192.7023
 Red. masses --      1.0883                 1.0590                 1.0919
 Frc consts  --      6.4825                 6.3553                 6.5580
 IR Inten    --      2.6710                 4.1091                32.0679

                    103                    104                    105
                      A                      A                      A
 Frequencies --   3207.1325              3231.8910              3282.4387
 Red. masses --      1.0972                 1.1172                 1.1129
 Frc consts  --      6.6495                 6.8752                 7.0650
 IR Inten    --     27.9501                 7.9489                 4.6977

                    106                    107                    108
                      A                      A                      A
 Frequencies --   3476.5050              3543.9553              3564.3783
 Red. masses --      1.0498                 1.0736                 1.0926
 Frc consts  --      7.4757                 7.9448                 8.1787
 IR Inten    --      1.2128                21.4831                 0.0175

 - Thermochemistry -
 -------------------
 Temperature   298.150 Kelvin.  Pressure   1.00000 Atm.
 Atom     1 has atomic number  6 and mass  12.00000

 Molecular mass:   244.15756 amu.
 Principal axes and moments of inertia in atomic units:
                           1         2         3
     Eigenvalues --  3038.092754650.753696021.37616
           X            0.99878   0.04909   0.00577
           Y           -0.04916   0.99872   0.01175
           Z           -0.00518  -0.01202   0.99991
 This molecule is an asymmetric top.
 Rotational symmetry number  1.
 Warning -- assumption of classical behavior for rotation
           may cause significant error
 Rotational temperatures (Kelvin)      0.02851     0.01862     0.01438
 Rotational constants (GHZ):           0.59404     0.38805     0.29972
 Zero-point vibrational energy     870983.8 (Joules/Mol)
                                  208.17012 (Kcal/Mol)
 Warning -- explicit consideration of  25 degrees of freedom as
           vibrations may cause significant error
 Vibrational temperatures:     51.58    86.09   117.71   125.89   171.92
          (Kelvin)            203.60   226.21   291.25   304.04   332.18
                              354.09   374.33   426.23   450.45   500.97
                              534.18   555.63   599.20   638.90   695.88
                              733.78   753.55   804.57   849.34   862.79
                              915.92   969.56  1050.78  1087.89  1095.72
                             1110.79  1136.80  1144.21  1166.15  1195.17
                             1227.22  1268.94  1291.63  1317.13  1348.75
                             1355.03  1361.31  1381.95  1408.44  1428.79
                             1454.12  1472.06  1517.37  1534.64  1538.02
                             1554.77  1565.26  1592.47  1593.91  1644.64
                             1716.46  1719.01  1722.83  1739.00  1744.40
                             1760.97  1785.99  1815.63  1875.12  1880.93
                             1882.55  1931.99  1942.38  1963.67  1979.04
                             1983.65  1991.10  2007.34  2032.62  2071.84
                             2132.93  2148.95  2163.51  2177.01  2182.47
                             2193.82  2202.76  2212.46  2221.02  2362.47
                             2402.01  2434.11  2539.14  4272.50  4336.86
                             4353.84  4428.13  4441.32  4457.49  4466.02
                             4478.15  4512.97  4526.31  4567.51  4574.72
                             4591.92  4593.59  4614.35  4649.97  4722.70
                             5001.92  5098.96  5128.35

 Zero-point correction=                           0.331740 (Hartree/Particle)
 Thermal correction to Energy=                    0.347919
 Thermal correction to Enthalpy=                  0.348864
 Thermal correction to Gibbs Free Energy=         0.288566
 Sum of electronic and zero-point Energies=           -768.087613
 Sum of electronic and thermal Energies=              -768.071434
 Sum of electronic and thermal Enthalpies=            -768.070489
 Sum of electronic and thermal Free Energies=         -768.130787

                     E (Thermal)             CV                S
                      KCal/Mol        Cal/Mol-Kelvin    Cal/Mol-Kelvin
 Total                  218.323             64.973            126.906
 Electronic               0.000              0.000              0.000
 Translational            0.889              2.981             42.379
 Rotational               0.889              2.981             32.809
 Vibrational            216.545             59.012             51.719
 Vibration     1          0.594              1.982              5.476
 Vibration     2          0.597              1.973              4.463
 Vibration     3          0.600              1.962              3.847
 Vibration     4          0.601              1.958              3.715
 Vibration     5          0.609              1.933              3.109
 Vibration     6          0.615              1.912              2.783
 Vibration     7          0.621              1.895              2.583
 Vibration     8          0.639              1.836              2.111
 Vibration     9          0.643              1.824              2.032
 Vibration    10          0.653              1.794              1.872
 Vibration    11          0.661              1.769              1.758
 Vibration    12          0.668              1.746              1.661
 Vibration    13          0.690              1.681              1.438
 Vibration    14          0.701              1.649              1.346
 Vibration    15          0.726              1.579              1.174
 Vibration    16          0.743              1.531              1.075
 Vibration    17          0.755              1.500              1.015
 Vibration    18          0.780              1.434              0.904
 Vibration    19          0.804              1.374              0.814
 Vibration    20          0.840              1.286              0.700
 Vibration    21          0.865              1.228              0.634
 Vibration    22          0.879              1.197              0.601
 Vibration    23          0.915              1.120              0.525
 Vibration    24          0.948              1.052              0.467
 Vibration    25          0.958              1.032              0.450

 Optimization completed.
    -- Stationary point found.
 Normal termination of Gaussian 16 at Fri Dec 11 23:49:37 2020.

 ----------------------------------------------------------------------
 # B3LYP/6-311++G(d,p) empiricaldispersion=gd3bj scf=xqc pop=npa geom=c
 heck
 ----------------------------------------------------------------------

 ---------------------------------------
 CID_107127843_JID_8978_Energie_neutraal
 ---------------------------------------
 Structure from the checkpoint file:  "JID_8978.chk"
 Charge =  0 Multiplicity = 1

 SCF Done:  E(RB3LYP) =  -768.636525438     A.U. after   15 cycles
 Normal termination of Gaussian 16 at Fri Dec 11 23:59:58 2020.

 ----------------------------------------------------------------------
 # B3LYP/6-311++G(d,p) empiricaldispersion=gd3bj scf=xqc pop=npa geom=c
 heck
 ----------------------------------------------------------------------

 -------------------------------------
 CID_107127843_JID_8978_Energie_kation
 -------------------------------------
 Structure from the checkpoint file:  "JID_8978.chk"
 Charge =  1 Multiplicity = 2

 SCF Done:  E(UB3LYP) =  -768.337694095     A.U. after   28 cycles
 Normal termination of Gaussian 16 at Sat Dec 12 00:27:37 2020.
 Gaussian 16:  ES64L-G16RevA.03 25-Dec-2016

 ----------------------------------------------------------------------
 # B3LYP/6-311++G(d,p) empiricaldispersion=gd3bj scf=xqc pop=npa geom=c
 heck
 ----------------------------------------------------------------------

 ------------------------------------
 CID_107127843_JID_8978_Energie_anion
 ------------------------------------
 Structure from the checkpoint file:  "JID_8978.chk"
 Charge = -1 Multiplicity = 2

                         Standard orientation:
 ---------------------------------------------------------------------
 Center     Atomic      Atomic             Coordinates (Angstroms)
 Number     Number       Type             X           Y           Z
 ---------------------------------------------------------------------
      1          6           0        0.397752    2.282127    0.782381
      2          6           0        1.910095    2.083470    0.584256
      3          6           0        2.199158    0.674807    0.129513
      4          6           0        3.187282   -0.122560    0.709563
      5          6           0        3.407730   -1.425092    0.258517
      6          6           0        2.634486   -1.937319   -0.784200
      7          6           0        1.636433   -1.148957   -1.358667
      8          6           0        1.403499    0.150005   -0.902956
      9          6           0        0.355610    1.045879   -1.509208
     10          6           0       -0.410071    1.961480   -0.502290
     11          6           0       -1.852046    1.545355   -0.182709
     12          8           0       -2.765045    2.307392   -0.483045
     13          7           0       -2.160383    0.396256    0.529991
     14          6           0       -1.506797   -0.889677    0.599480
     15          6           0       -0.302320   -1.094795    1.479828
     16          6           0       -1.641982   -1.598341    1.936415
     17          6           0       -1.703982   -1.770703   -0.624606
     18          7           0       -3.137034   -2.020586   -0.806789
     19          1           0        0.186562    3.312806    1.085370
     20          1           0        0.064507    1.647430    1.605779
     21          1           0        2.270481    2.801391   -0.168280
     22          1           0        2.448801    2.307650    1.511635
     23          1           0        3.788964    0.280740    1.520843
     24          1           0        4.180644   -2.035233    0.717403
     25          1           0        2.804232   -2.947638   -1.146099
     26          1           0        1.027897   -1.548946   -2.165855
     27          1           0       -0.348779    0.469248   -2.116232
     28          1           0        0.860295    1.720040   -2.215081
     29          1           0       -0.575981    2.904038   -1.027104
     30          1           0       -3.171857    0.297526    0.537222
     31          1           0        0.445131   -1.804563    1.142987
     32          1           0        0.108360   -0.237655    1.994141
     33          1           0       -2.141443   -1.054773    2.732093
     34          1           0       -1.827771   -2.669570    1.928824
     35          1           0       -1.343274   -1.252151   -1.517393
     36          1           0       -1.088831   -2.680521   -0.512891
     37          1           0       -3.309594   -2.465148   -1.705513
     38          1           0       -3.465144   -2.667564   -0.091805
 ---------------------------------------------------------------------

 SCF Done:  E(UB3LYP) =  -768.627356382     A.U. after   33 cycles
 SCF Done:  E(UB3LYP) =  -768.627356382     a.u. after    1 cycles

 The electronic state is 2-A.
 Alpha  occ. eigenvalues --  -18.99449 -14.23594 -14.19702 -10.17882 -10.12698
 Alpha  occ. eigenvalues --  -10.09985 -10.09709 -10.09131 -10.08933 -10.08879
 Alpha  occ. eigenvalues --  -10.08800 -10.08764 -10.08327 -10.08241 -10.08149
 Alpha  occ. eigenvalues --  -10.08107 -10.08104 -10.08015  -0.94540  -0.84076
 Alpha  occ. eigenvalues --   -0.78275  -0.78030  -0.74809  -0.72860  -0.68360
 Alpha  occ. eigenvalues --   -0.66022  -0.63276  -0.59157  -0.56825  -0.53553
 Alpha  occ. eigenvalues --   -0.52407  -0.51170  -0.50839  -0.47346  -0.44786
 Alpha  occ. eigenvalues --   -0.42963  -0.41848  -0.40382  -0.39336  -0.37630
 Alpha  occ. eigenvalues --   -0.37327  -0.36199  -0.35764  -0.35128  -0.34013
 Alpha  occ. eigenvalues --   -0.33877  -0.33095  -0.31588  -0.30837  -0.30129
 Alpha  occ. eigenvalues --   -0.29745  -0.29115  -0.28192  -0.27945  -0.26413
 Alpha  occ. eigenvalues --   -0.26081  -0.25774  -0.23708  -0.22587  -0.22052
 Alpha  occ. eigenvalues --   -0.20154  -0.17014  -0.16204  -0.15732  -0.15201
 Alpha  occ. eigenvalues --   -0.14763   0.03899
 Alpha virt. eigenvalues --    0.05621   0.06372   0.06709   0.07582   0.07655
 Alpha virt. eigenvalues --    0.08057   0.08478   0.08689   0.09038   0.09942
 Alpha virt. eigenvalues --    0.10239   0.10878   0.10991   0.11227   0.11728

  Beta  occ. eigenvalues --  -18.99447 -14.23588 -14.19657 -10.17882 -10.12699
  Beta  occ. eigenvalues --  -10.09963 -10.09706 -10.09121 -10.08935 -10.08866
  Beta  occ. eigenvalues --  -10.08785 -10.08757 -10.08320 -10.08223 -10.08141
  Beta  occ. eigenvalues --  -10.08084 -10.08081 -10.07995  -0.94537  -0.84063
  Beta  occ. eigenvalues --   -0.78216  -0.77991  -0.74790  -0.72834  -0.68329
  Beta  occ. eigenvalues --   -0.65995  -0.63238  -0.59088  -0.56795  -0.53527
  Beta  occ. eigenvalues --   -0.52377  -0.51119  -0.50797  -0.47317  -0.44764
  Beta  occ. eigenvalues --   -0.42938  -0.41802  -0.40345  -0.39307  -0.37596
  Beta  occ. eigenvalues --   -0.37288  -0.36158  -0.35727  -0.35070  -0.33990
  Beta  occ. eigenvalues --   -0.33854  -0.33070  -0.31559  -0.30809  -0.30107
  Beta  occ. eigenvalues --   -0.29719  -0.29085  -0.28161  -0.27924  -0.26382
  Beta  occ. eigenvalues --   -0.26056  -0.25738  -0.23684  -0.22566  -0.22031
  Beta  occ. eigenvalues --   -0.20137  -0.17002  -0.16137  -0.15690  -0.15146
  Beta  occ. eigenvalues --   -0.14732
  Beta virt. eigenvalues --    0.05908   0.06658   0.06814   0.07110   0.07802
  Beta virt. eigenvalues --    0.08033   0.08524   0.08818   0.09100   0.09442
  Beta virt. eigenvalues --    0.10083   0.10360   0.11188   0.11411   0.11471

 Mulliken charges and spin densities:
               1          2
     1  C   -0.280415   0.137288
     2  C    1.211066  -2.050315
     3  C   -0.645018   1.026727
     4  C   -0.359240   0.234994
     5  C    0.725723  -1.004862
     6  C    0.370964  -0.937894
     7  C   -0.751243   0.547733
     8  C   -0.195919   0.666990
     9  C   -0.141062  -0.550582
    10  C    0.900380  -0.447239
    11  C   -0.587971   0.253845
    12  O   -0.296959  -0.004875
    13  N   -0.050409   0.049691
    14  C   -1.691625   1.589589
    15  C    0.003712  -0.198052
    16  C    1.253112  -1.378598
    17  C    0.879662  -1.750970
    18  N   -0.388525   0.151591
    19  H    0.005536   0.183674
    20  H    0.060668   0.075038
    21  H    0.041592   0.119403
    22  H   -0.113412   0.283616
    23  H   -0.306904   0.467294
    24  H   -0.242808   0.413041
    25  H   -0.398503   0.572534
    26  H   -0.433696   0.600318
    27  H    0.082184   0.109975
    28  H   -0.028894   0.226172
    29  H    0.213091   0.051853
    30  H    0.279831   0.038595
    31  H    0.411237  -0.218719
    32  H    0.185353  -0.081361
    33  H    0.105617   0.053330
    34  H   -0.466418   0.648431
    35  H    0.343266  -0.194979
    36  H   -0.555683   0.717919
    37  H   -0.115426   0.353586
    38  H   -0.022862   0.245217
 Sum of Mulliken charges =  -1.00000   1.00000

 Dipole moment (field-independent basis, Debye):
    X=              1.9839    Y=              4.1840    Z=              1.9006  Tot=              5.0054
 Quadrupole moment (field-independent basis, Debye-Ang):
   XX=           -180.2372   YY=           -175.8828   ZZ=           -142.0983
   XY=              0.5766   XZ=             -6.4401   YZ=             -3.5197

 Summary of Natural Population Analysis:

                                       Natural Population
                Natural  -----------------------------------------------
    Atom  No    Charge         Core      Valence    Rydberg      Total
 -----------------------------------------------------------------------
      C    1   -0.18195      0.99961     2.17431    0.00803     3.18195
      C    2   -0.19854      0.99960     2.18946    0.00948     3.19854
      C    3   -0.01862      0.99948     2.00756    0.01158     3.01862
      C    4   -0.08217      0.99951     2.07644    0.00622     3.08217
      C    5   -0.10955      0.99958     2.09767    0.01230     3.10955
      C    6   -0.10046      0.99956     2.09024    0.01066     3.10046
      C    7   -0.09650      0.99951     2.08621    0.01079     3.09650
      C    8   -0.01565      0.99946     2.00456    0.01163     3.01565
      C    9   -0.19857      0.99958     2.18960    0.00939     3.19857
      C   10   -0.14403      0.99954     2.13354    0.01094     3.14403
      C   11    0.35525      0.99964     1.62293    0.02218     2.64475
      O   12   -0.32225      0.99988     3.31668    0.00570     4.32225
      N   13   -0.32377      0.99964     2.81386    0.01027     3.82377
      C   14    0.04071      0.99952     1.94346    0.01631     2.95929
      C   15   -0.19229      0.99957     2.18307    0.00965     3.19229
      C   16   -0.19302      0.99959     2.18478    0.00865     3.19302
      C   17   -0.08956      0.99956     2.07785    0.01214     3.08956
      N   18   -0.42523      0.99977     2.91532    0.01014     3.92523
      H   19    0.10217      0.00000     0.39698    0.00085     0.39783
      H   20    0.09815      0.00000     0.40023    0.00162     0.40185
      H   21    0.10144      0.00000     0.39729    0.00127     0.39856
      H   22    0.10374      0.00000     0.39523    0.00103     0.39626
      H   23    0.09722      0.00000     0.40130    0.00148     0.40278
      H   24    0.10105      0.00000     0.39795    0.00100     0.39895
      H   25    0.10340      0.00000     0.39536    0.00124     0.39660
      H   26    0.10246      0.00000     0.39572    0.00183     0.39754
      H   27    0.10698      0.00000     0.39147    0.00155     0.39302
      H   28    0.10747      0.00000     0.39140    0.00113     0.39253
      H   29    0.11134      0.00000     0.38738    0.00128     0.38866
      H   30    0.19808      0.00000     0.29917    0.00275     0.30192
      H   31    0.11362      0.00000     0.38445    0.00193     0.38638
      H   32    0.10496      0.00000     0.39374    0.00130     0.39504
      H   33    0.10372      0.00000     0.39533    0.00095     0.39628
      H   34    0.10502      0.00000     0.39375    0.00124     0.39498
      H   35    0.09228      0.00000     0.40577    0.00195     0.40772
      H   36    0.08784      0.00000     0.40866    0.00350     0.41216
      H   37    0.17973      0.00000     0.31803    0.00224     0.32027
      H   38    0.17555      0.00000     0.32183    0.00262     0.32445
 =======================================================================
   * Total *    0.00001     17.99257    47.77860    0.22882    65.99999

 Normal termination of Gaussian 16 at Sat Dec 12 00:59:17 2020.
