 Gaussian 16, Revision A.03,

 -----------------------------------------------------------
 # opt freq B3LYP/6-31G(d) empiricaldispersion=gd3bj scf=xqc
 -----------------------------------------------------------

 -------------------------------
 CID_148565607_JID_1794_neutraal
 -------------------------------
 Symbolic Z-matrix:
 Charge =  0 Multiplicity = 1

 SCF Done:  E(RB3LYP) =  -460.817205924     A.U. after   14 cycles
 SCF Done:  E(RB3LYP) =  -460.824342249     A.U. after   12 cycles
 SCF Done:  E(RB3LYP) =  -460.826261988     A.U. after   11 cycles
 SCF Done:  E(RB3LYP) =  -460.827181537     A.U. after   11 cycles
 SCF Done:  E(RB3LYP) =  -460.827880860     A.U. after   12 cycles
 SCF Done:  E(RB3LYP) =  -460.828189616     A.U. after   10 cycles
 SCF Done:  E(RB3LYP) =  -460.828275766     A.U. after   11 cycles
 SCF Done:  E(RB3LYP) =  -460.828299040     A.U. after   10 cycles
 SCF Done:  E(RB3LYP) =  -460.828300308     A.U. after    8 cycles
 SCF Done:  E(RB3LYP) =  -460.828300650     A.U. after    7 cycles
 SCF Done:  E(RB3LYP) =  -460.828300796     A.U. after    7 cycles
 SCF Done:  E(RB3LYP) =  -460.828300833     A.U. after    6 cycles
 Optimization completed.
    -- Stationary point found.

 1\1\GINC-NODE114\FOpt\RB3LYP\6-31G(d)\C9H14N2\VSC10255\08-Dec-2020\0\\
 # opt freq B3LYP/6-31G(d) empiricaldispersion=gd3bj scf=xqc\\CID_14856
 5607_JID_1794_neutraal\\0,1\C,0.7258022354,-1.2150123416,-0.4681095326
 \C,-0.782872216,-1.1135900811,-0.7421388532\C,-1.2089912916,0.31440267
 12,-0.9851441651\C,-0.586233156,1.3365545161,-0.367130413\C,0.56982664
 43,1.0568680215,0.5018540344\C,1.1864880469,-0.1343122268,0.4807708351
 \C,-0.9435433534,2.7724277991,-0.5995365026\C,-2.3817288262,3.21181559
 6,-0.6624392423\C,-1.5241656318,3.5925879228,0.5235922442\N,-0.0403337

 Normal termination of Gaussian 16 at Tue Dec  8 21:06:50 2020.

 --------------------------------------------------------------------
 #N Geom=AllCheck Guess=TCheck SCRF=Check GenChk RB3LYP/6-31G(d) Freq
 --------------------------------------------------------------------

 Structure from the checkpoint file:  "JID_1794.chk"
 -------------------------------
 CID_148565607_JID_1794_neutraal
 -------------------------------
 Charge =  0 Multiplicity = 1

 SCF Done:  E(RB3LYP) =  -460.828300833     A.U. after    1 cycles

  Exact polarizability: 124.027  -4.554  83.688   0.274   6.517 100.186
 Approx polarizability: 168.979  -6.952 123.055  -2.472  12.746 161.373

                      1                      2                      3
                      A                      A                      A
 Frequencies --     51.4155                82.4629               139.6101
 Red. masses --      3.5317                 3.8048                 2.6245
 Frc consts  --      0.0055                 0.0152                 0.0301
 IR Inten    --      0.1535                 0.3203                 1.1723

                      4                      5                      6
                      A                      A                      A
 Frequencies --    172.0720               192.7844               250.9392
 Red. masses --      3.2363                 2.2320                 2.7976
 Frc consts  --      0.0565                 0.0489                 0.1038
 IR Inten    --      0.5908                 0.2461                 2.8760

                      7                      8                      9
                      A                      A                      A
 Frequencies --    285.2307               307.5690               357.6501
 Red. masses --      2.1723                 1.8948                 1.7871
 Frc consts  --      0.1041                 0.1056                 0.1347
 IR Inten    --      5.2278                 5.4189                20.6706

                     10                     11                     12
                      A                      A                      A
 Frequencies --    383.5315               442.7939               460.4977
 Red. masses --      2.1927                 3.2173                 2.7821
 Frc consts  --      0.1900                 0.3717                 0.3476
 IR Inten    --      8.9270                 0.4936                 6.5283

                     13                     14                     15
                      A                      A                      A
 Frequencies --    544.1647               564.8960               623.3335
 Red. masses --      2.9374                 3.0739                 4.0150
 Frc consts  --      0.5125                 0.5779                 0.9191
 IR Inten    --      0.6391                14.6338                 8.8045

                     16                     17                     18
                      A                      A                      A
 Frequencies --    632.6866               769.2172               778.0591
 Red. masses --      1.9304                 2.1545                 1.7114
 Frc consts  --      0.4553                 0.7511                 0.6104
 IR Inten    --     16.2710                59.6917                 1.5486

                     19                     20                     21
                      A                      A                      A
 Frequencies --    799.7535               810.4421               842.7475
 Red. masses --      1.4904                 1.3096                 1.3089
 Frc consts  --      0.5616                 0.5068                 0.5477
 IR Inten    --     38.8585                44.1026                10.7005

                     22                     23                     24
                      A                      A                      A
 Frequencies --    869.5083               894.3008               943.8802
 Red. masses --      2.8630                 2.1654                 1.4839
 Frc consts  --      1.2753                 1.0204                 0.7789
 IR Inten    --      8.3131                17.3642                 6.5329

                     25                     26                     27
                      A                      A                      A
 Frequencies --    959.8480               981.3777               983.7739
 Red. masses --      2.0458                 1.9536                 1.8098
 Frc consts  --      1.1105                 1.1086                 1.0320
 IR Inten    --     11.3521                 2.4480                 5.3123

                     28                     29                     30
                      A                      A                      A
 Frequencies --    990.8855              1005.6186              1045.0405
 Red. masses --      2.3542                 2.2700                 2.0690
 Frc consts  --      1.3619                 1.3525                 1.3313
 IR Inten    --     58.5168                 2.0241                15.4070

                     31                     32                     33
                      A                      A                      A
 Frequencies --   1054.0789              1059.6055              1087.4211
 Red. masses --      2.0691                 1.4131                 1.5967
 Frc consts  --      1.3545                 0.9348                 1.1124
 IR Inten    --      1.2539                18.3512                 5.0885

                     34                     35                     36
                      A                      A                      A
 Frequencies --   1089.9942              1119.3034              1195.2506
 Red. masses --      1.8970                 1.8056                 1.4934
 Frc consts  --      1.3279                 1.3328                 1.2571
 IR Inten    --      9.9731                 3.4846                32.7488

                     37                     38                     39
                      A                      A                      A
 Frequencies --   1198.3703              1200.2154              1210.8675
 Red. masses --      1.0960                 1.1394                 1.5999
 Frc consts  --      0.9274                 0.9671                 1.3821
 IR Inten    --      0.3497                 6.5561                34.8634

                     40                     41                     42
                      A                      A                      A
 Frequencies --   1270.8448              1289.6269              1331.6987
 Red. masses --      1.3607                 2.8477                 1.3093
 Frc consts  --      1.2948                 2.7905                 1.3680
 IR Inten    --      2.6329                 3.3561                 3.0352

                     43                     44                     45
                      A                      A                      A
 Frequencies --   1334.3300              1365.0718              1380.9235
 Red. masses --      1.3332                 1.9098                 1.6234
 Frc consts  --      1.3985                 2.0967                 1.8239
 IR Inten    --      1.6697                11.7071                 1.4573

                     46                     47                     48
                      A                      A                      A
 Frequencies --   1399.6097              1445.0316              1475.5248
 Red. masses --      1.6602                 1.8096                 1.0928
 Frc consts  --      1.9161                 2.2264                 1.4018
 IR Inten    --      1.1752                 0.9103                 2.5301

                     49                     50                     51
                      A                      A                      A
 Frequencies --   1498.5603              1504.9921              1509.4226
 Red. masses --      1.0825                 1.1675                 1.1062
 Frc consts  --      1.4323                 1.5580                 1.4849
 IR Inten    --      3.0139                 1.7418                 2.0107

                     52                     53                     54
                      A                      A                      A
 Frequencies --   1532.9964              1664.5209              1721.3388
 Red. masses --      1.4142                 7.2784                 1.2390
 Frc consts  --      1.9582                11.8814                 2.1629
 IR Inten    --      5.3326                 1.5914                 6.7462

                     55                     56                     57
                      A                      A                      A
 Frequencies --   1726.2955              2983.5119              2994.9970
 Red. masses --      3.4399                 1.0743                 1.0700
 Frc consts  --      6.0398                 5.6344                 5.6551
 IR Inten    --      4.8013                16.7437                56.6144

                     58                     59                     60
                      A                      A                      A
 Frequencies --   3082.7479              3083.5378              3151.1113
 Red. masses --      1.0920                 1.0868                 1.0520
 Frc consts  --      6.1141                 6.0885                 6.1548
 IR Inten    --     21.9141                46.1468                11.3372

                     61                     62                     63
                      A                      A                      A
 Frequencies --   3158.0271              3167.7583              3179.0118
 Red. masses --      1.0559                 1.0848                 1.0899
 Frc consts  --      6.2047                 6.4138                 6.4894
 IR Inten    --      7.8127                 6.4459                17.3367

                     64                     65                     66
                      A                      A                      A
 Frequencies --   3190.9750              3233.6061              3246.1711
 Red. masses --      1.0970                 1.1199                 1.1171
 Frc consts  --      6.5813                 6.8994                 6.9358
 IR Inten    --     26.4667                 0.3059                16.1060

                     67                     68                     69
                      A                      A                      A
 Frequencies --   3360.7337              3490.7316              3516.4907
 Red. masses --      1.0558                 1.0755                 1.0836
 Frc consts  --      7.0258                 7.7214                 7.8948
 IR Inten    --     13.8646                 0.2508                 0.2681

 - Thermochemistry -
 -------------------
 Temperature   298.150 Kelvin.  Pressure   1.00000 Atm.
 Atom     1 has atomic number  6 and mass  12.00000

 Molecular mass:   150.11570 amu.
 Principal axes and moments of inertia in atomic units:
                           1         2         3
     Eigenvalues --   964.003582368.454462462.64995
           X            0.99991  -0.01325  -0.00026
           Y            0.01320   0.99407   0.10797
           Z           -0.00118  -0.10797   0.99415
 This molecule is an asymmetric top.
 Rotational symmetry number  1.
 Warning -- assumption of classical behavior for rotation
           may cause significant error
 Rotational temperatures (Kelvin)      0.08985     0.03657     0.03517
 Rotational constants (GHZ):           1.87213     0.76199     0.73285
 Zero-point vibrational energy     578223.4 (Joules/Mol)
                                  138.19870 (Kcal/Mol)
 Warning -- explicit consideration of  14 degrees of freedom as
           vibrations may cause significant error
 Vibrational temperatures:     73.98   118.65   200.87   247.57   277.37
          (Kelvin)            361.05   410.38   442.52   514.58   551.82
                              637.08   662.55   782.93   812.76   896.84
                              910.29  1106.73  1119.45  1150.67  1166.05
                             1212.53  1251.03  1286.70  1358.03  1381.01
                             1411.98  1415.43  1425.66  1446.86  1503.58
                             1516.58  1524.54  1564.56  1568.26  1610.43
                             1719.70  1724.19  1726.84  1742.17  1828.46
                             1855.49  1916.02  1919.80  1964.03  1986.84
                             2013.73  2079.08  2122.95  2156.09  2165.35
                             2171.72  2205.64  2394.87  2476.62  2483.75
                             4292.61  4309.13  4435.39  4436.52  4533.75
                             4543.70  4557.70  4573.89  4591.10  4652.44
                             4670.52  4835.35  5022.38  5059.45

 Zero-point correction=                           0.220234 (Hartree/Particle)
 Thermal correction to Energy=                    0.230797
 Thermal correction to Enthalpy=                  0.231741
 Thermal correction to Gibbs Free Energy=         0.184197
 Sum of electronic and zero-point Energies=           -460.608067
 Sum of electronic and thermal Energies=              -460.597504
 Sum of electronic and thermal Enthalpies=            -460.596560
 Sum of electronic and thermal Free Energies=         -460.644104

                     E (Thermal)             CV                S
                      KCal/Mol        Cal/Mol-Kelvin    Cal/Mol-Kelvin
 Total                  144.827             41.492            100.065
 Electronic               0.000              0.000              0.000
 Translational            0.889              2.981             40.929
 Rotational               0.889              2.981             30.109
 Vibrational            143.050             35.531             29.027
 Vibration     1          0.596              1.977              4.762
 Vibration     2          0.600              1.961              3.831
 Vibration     3          0.615              1.914              2.809
 Vibration     4          0.626              1.877              2.413
 Vibration     5          0.635              1.850              2.201
 Vibration     6          0.663              1.761              1.724
 Vibration     7          0.683              1.701              1.502
 Vibration     8          0.697              1.659              1.375
 Vibration     9          0.733              1.560              1.132
 Vibration    10          0.753              1.505              1.025
 Vibration    11          0.802              1.377              0.818
 Vibration    12          0.818              1.338              0.765
 Vibration    13          0.899              1.152              0.556
 Vibration    14          0.921              1.107              0.514

 Optimization completed.
    -- Stationary point found.

 1\1\GINC-NODE114\Freq\RB3LYP\6-31G(d)\C9H14N2\VSC10255\08-Dec-2020\0\\
 #N Geom=AllCheck Guess=TCheck SCRF=Check GenChk RB3LYP/6-31G(d) Freq\\
 CID_148565607_JID_1794_neutraal\\0,1\C,0.7258022354,-1.2150123416,-0.4
 681095326\C,-0.782872216,-1.1135900811,-0.7421388532\C,-1.2089912916,0
 .3144026712,-0.9851441651\C,-0.586233156,1.3365545161,-0.367130413\C,0
 .5698266443,1.0568680215,0.5018540344\C,1.1864880469,-0.1343122268,0.4
 807708351\C,-0.9435433534,2.7724277991,-0.5995365026\C,-2.3817288262,3
 .211815596,-0.6624392423\C,-1.5241656318,3.5925879228,0.5235922442\N,-

 Normal termination of Gaussian 16 at Tue Dec  8 21:12:38 2020.

 ----------------------------------------------------------------------
 # B3LYP/6-311++G(d,p) empiricaldispersion=gd3bj scf=xqc pop=npa geom=c
 heck
 ----------------------------------------------------------------------

 ---------------------------------------
 CID_148565607_JID_1794_Energie_neutraal
 ---------------------------------------
 Structure from the checkpoint file:  "JID_1794.chk"
 Charge =  0 Multiplicity = 1

 SCF Done:  E(RB3LYP) =  -460.963763802     A.U. after   15 cycles
 Normal termination of Gaussian 16 at Tue Dec  8 21:17:02 2020.

 ----------------------------------------------------------------------
 # B3LYP/6-311++G(d,p) empiricaldispersion=gd3bj scf=xqc pop=npa geom=c
 heck
 ----------------------------------------------------------------------

 -------------------------------------
 CID_148565607_JID_1794_Energie_kation
 -------------------------------------
 Structure from the checkpoint file:  "JID_1794.chk"
 Charge =  1 Multiplicity = 2

 SCF Done:  E(UB3LYP) =  -460.669311998     A.U. after   26 cycles
 Normal termination of Gaussian 16 at Tue Dec  8 21:27:24 2020.
 Gaussian 16:  ES64L-G16RevA.03 25-Dec-2016

 ------------------------------------
 CID_148565607_JID_1794_Energie_anion
 ------------------------------------
 Structure from the checkpoint file:  "JID_1794.chk"
 Charge = -1 Multiplicity = 2

                         Standard orientation:
 ---------------------------------------------------------------------
 Center     Atomic      Atomic             Coordinates (Angstroms)
 Number     Number       Type             X           Y           Z
 ---------------------------------------------------------------------
      1          6           0       -2.938529    0.350529   -0.091721
      2          6           0       -2.312982   -0.050491    1.253400
      3          6           0       -0.804507   -0.017280    1.196893
      4          6           0       -0.148611   -0.309986    0.057293
      5          6           0       -0.919379   -0.597318   -1.164668
      6          6           0       -2.227244   -0.310710   -1.248161
      7          6           0        1.343301   -0.256797   -0.064296
      8          6           0        2.228466   -0.818912    1.015475
      9          6           0        2.121109   -1.522234   -0.319024
     10          7           0        1.874290    0.921316   -0.738987
     11          7           0        1.530141    2.166116   -0.119914
     12          1           0       -4.006784    0.107119   -0.098767
     13          1           0       -2.871809    1.444471   -0.218660
     14          1           0       -2.686605    0.600060    2.051910
     15          1           0       -2.633104   -1.073142    1.515635
     16          1           0       -0.247338    0.167515    2.112572
     17          1           0       -0.386513   -1.036569   -2.005507
     18          1           0       -2.780090   -0.498189   -2.165661
     19          1           0        3.148213   -0.281183    1.223480
     20          1           0        1.759110   -1.284982    1.876034
     21          1           0        1.569712   -2.457430   -0.360433
     22          1           0        2.966846   -1.449298   -0.995707
     23          1           0        1.509577    0.964300   -1.688673
     24          1           0        0.596158    2.095992    0.301370
     25          1           0        2.181870    2.288506    0.653571
 ---------------------------------------------------------------------

 SCF Done:  E(UB3LYP) =  -460.946401968     A.U. after   33 cycles
 SCF Done:  E(UB3LYP) =  -460.947912434     a.u. after    6 cycles

 The electronic state is 2-A.
 Alpha  occ. eigenvalues --  -14.21478 -14.20746 -10.09573 -10.06466 -10.06108
 Alpha  occ. eigenvalues --  -10.05135 -10.04860 -10.04797 -10.04140 -10.03933
 Alpha  occ. eigenvalues --  -10.03856  -0.85687  -0.75612  -0.71351  -0.64184
 Alpha  occ. eigenvalues --   -0.62360  -0.61786  -0.51147  -0.50027  -0.47579
 Alpha  occ. eigenvalues --   -0.44895  -0.40749  -0.38684  -0.37619  -0.36796
 Alpha  occ. eigenvalues --   -0.35070  -0.33739  -0.31539  -0.30552  -0.29059
 Alpha  occ. eigenvalues --   -0.27263  -0.25999  -0.25065  -0.22367  -0.21548
 Alpha  occ. eigenvalues --   -0.20213  -0.17985  -0.17650  -0.14806  -0.13177
 Alpha  occ. eigenvalues --   -0.09712   0.05323
 Alpha virt. eigenvalues --    0.07632   0.07919   0.08157   0.09165   0.09512
 Alpha virt. eigenvalues --    0.09973   0.11074   0.11299   0.11643   0.12446
 Alpha virt. eigenvalues --    0.12664   0.13700   0.14495   0.14858   0.16465

  Beta  occ. eigenvalues --  -14.21456 -14.20735 -10.09575 -10.06462 -10.06087
  Beta  occ. eigenvalues --  -10.05128 -10.04838 -10.04788 -10.04008 -10.03865
  Beta  occ. eigenvalues --  -10.03676  -0.85661  -0.75584  -0.71170  -0.64128
  Beta  occ. eigenvalues --   -0.62204  -0.61544  -0.51069  -0.49950  -0.47380
  Beta  occ. eigenvalues --   -0.44740  -0.40686  -0.38644  -0.37509  -0.36675
  Beta  occ. eigenvalues --   -0.35008  -0.33662  -0.31411  -0.30429  -0.28958
  Beta  occ. eigenvalues --   -0.27195  -0.25970  -0.24857  -0.22249  -0.21409
  Beta  occ. eigenvalues --   -0.20121  -0.17891  -0.17297  -0.14781  -0.13130
  Beta  occ. eigenvalues --   -0.09015
  Beta virt. eigenvalues --    0.07629   0.08371   0.08622   0.09144   0.09540
  Beta virt. eigenvalues --    0.10116   0.10429   0.11225   0.11571   0.11891
  Beta virt. eigenvalues --    0.12760   0.12962   0.14089   0.14591   0.15170

 Mulliken charges and spin densities:
               1          2
     1  C   -0.257234  -0.215163
     2  C    1.574694  -2.122963
     3  C   -2.486877   2.523258
     4  C    3.701174  -3.058140
     5  C   -1.965724   1.430598
     6  C    0.700724  -0.759923
     7  C   -1.587456   1.195079
     8  C    1.030697  -1.304622
     9  C    0.128511  -0.454367
    10  N    0.095333   0.023146
    11  N   -0.476383  -0.046134
    12  H    0.034428   0.092496
    13  H   -0.093423   0.225897
    14  H   -0.475794   0.633902
    15  H    0.014403   0.111696
    16  H   -0.792156   0.993217
    17  H   -0.249692   0.405057
    18  H   -0.392717   0.550172
    19  H    0.033853   0.107416
    20  H   -0.170705   0.317330
    21  H    0.074459   0.070502
    22  H    0.015430   0.119390
    23  H    0.109041   0.137551
    24  H    0.331167  -0.104535
    25  H    0.104249   0.129141
 Sum of Mulliken charges =  -1.00000   1.00000

 Dipole moment (field-independent basis, Debye):
    X=              2.6886    Y=             -0.4243    Z=             -1.9586  Tot=              3.3533
 Quadrupole moment (field-independent basis, Debye-Ang):
   XX=           -114.9175   YY=            -96.5561   ZZ=           -108.2098
   XY=             -1.7397   XZ=              2.3522   YZ=              1.0311

 Summary of Natural Population Analysis:

                                       Natural Population
                Natural  -----------------------------------------------
    Atom  No    Charge         Core      Valence    Rydberg      Total
 -----------------------------------------------------------------------
      C    1   -0.20575      0.99963     2.19700    0.00912     3.20575
      C    2   -0.20455      0.99963     2.19521    0.00972     3.20455
      C    3   -0.04774      0.99948     2.03649    0.01176     3.04774
      C    4   -0.05176      0.99943     2.03940    0.01293     3.05176
      C    5   -0.11155      0.99949     2.10012    0.01193     3.11155
      C    6   -0.05579      0.99954     2.04645    0.00979     3.05579
      C    7    0.03854      0.99948     1.94479    0.01718     2.96146
      C    8   -0.19676      0.99959     2.18694    0.01023     3.19676
      C    9   -0.19407      0.99958     2.18646    0.00803     3.19407
      N   10   -0.24918      0.99971     2.73500    0.01447     3.74918
      N   11   -0.32712      0.99978     2.81663    0.01072     3.82712
      H   12    0.09855      0.00000     0.40023    0.00122     0.40145
      H   13    0.09819      0.00000     0.40030    0.00151     0.40181
      H   14    0.10425      0.00000     0.39259    0.00316     0.39575
      H   15    0.09877      0.00000     0.39996    0.00127     0.40123
      H   16    0.09557      0.00000     0.40228    0.00214     0.40443
      H   17    0.09572      0.00000     0.40251    0.00176     0.40428
      H   18    0.09204      0.00000     0.40679    0.00116     0.40796
      H   19    0.10239      0.00000     0.39633    0.00128     0.39761
      H   20    0.10744      0.00000     0.39116    0.00139     0.39256
      H   21    0.10332      0.00000     0.39565    0.00103     0.39668
      H   22    0.10277      0.00000     0.39593    0.00130     0.39723
      H   23    0.17196      0.00000     0.32531    0.00274     0.32804
      H   24    0.16854      0.00000     0.32863    0.00284     0.33146
      H   25    0.16622      0.00000     0.33143    0.00235     0.33378
 =======================================================================
   * Total *    0.00000     10.99533    29.85362    0.15104    41.00000

 Normal termination of Gaussian 16 at Tue Dec  8 22:14:28 2020.
