 Gaussian 16, Revision A.03,

 -----------------------------------------------------------
 # opt freq B3LYP/6-31G(d) empiricaldispersion=gd3bj scf=xqc
 -----------------------------------------------------------

 -------------------------------
 CID_115170892_JID_4960_neutraal
 -------------------------------
 Symbolic Z-matrix:
 Charge =  0 Multiplicity = 1

 SCF Done:  E(RB3LYP) =  -663.148055266     A.U. after   14 cycles
 SCF Done:  E(RB3LYP) =  -663.152114266     A.U. after   12 cycles
 SCF Done:  E(RB3LYP) =  -663.152365324     A.U. after   11 cycles
 SCF Done:  E(RB3LYP) =  -663.152440532     A.U. after   11 cycles
 SCF Done:  E(RB3LYP) =  -663.152486731     A.U. after   12 cycles
 SCF Done:  E(RB3LYP) =  -663.152544777     A.U. after   10 cycles
 SCF Done:  E(RB3LYP) =  -663.152642102     A.U. after   12 cycles
 SCF Done:  E(RB3LYP) =  -663.152664929     A.U. after   10 cycles
 SCF Done:  E(RB3LYP) =  -663.152674164     A.U. after   10 cycles
 SCF Done:  E(RB3LYP) =  -663.152678388     A.U. after   10 cycles
 SCF Done:  E(RB3LYP) =  -663.153416545     A.U. after   10 cycles
 SCF Done:  E(RB3LYP) =  -663.153419418     A.U. after   11 cycles
 SCF Done:  E(RB3LYP) =  -663.153420149     A.U. after   10 cycles
 SCF Done:  E(RB3LYP) =  -663.153420288     A.U. after    8 cycles
 SCF Done:  E(RB3LYP) =  -663.153420327     A.U. after    7 cycles
 Optimization completed.
    -- Stationary point found.
 Normal termination of Gaussian 16 at Thu Dec 10 11:20:05 2020.

 --------------------------------------------------------------------
 #N Geom=AllCheck Guess=TCheck SCRF=Check GenChk RB3LYP/6-31G(d) Freq
 --------------------------------------------------------------------

 Structure from the checkpoint file:  "JID_4960.chk"
 -------------------------------
 CID_115170892_JID_4960_neutraal
 -------------------------------
 Charge =  0 Multiplicity = 1

 SCF Done:  E(RB3LYP) =  -663.153420327     A.U. after    1 cycles

  Exact polarizability: 148.550   7.766 127.728  -8.765   5.936  63.591
 Approx polarizability: 217.312  10.011 223.193 -18.319  13.280 105.287

                      1                      2                      3
                      A                      A                      A
 Frequencies --     19.5007                48.3523                67.5789
 Red. masses --      5.0095                 8.9734                 6.3453
 Frc consts  --      0.0011                 0.0124                 0.0171
 IR Inten    --      3.0426                 0.7969                 1.2053

                      4                      5                      6
                      A                      A                      A
 Frequencies --    123.1072               202.7619               238.3289
 Red. masses --      7.0044                 6.2229                 4.8962
 Frc consts  --      0.0625                 0.1507                 0.1639
 IR Inten    --      1.4119                 1.7382                 5.6752

                      7                      8                      9
                      A                      A                      A
 Frequencies --    254.2226               344.9277               357.8115
 Red. masses --      5.2167                 2.4806                 5.3021
 Frc consts  --      0.1986                 0.1739                 0.4000
 IR Inten    --      2.9418                 1.4625                 3.8932

                     10                     11                     12
                      A                      A                      A
 Frequencies --    431.7033               441.2201               450.1993
 Red. masses --      3.1169                 1.3746                 3.5140
 Frc consts  --      0.3423                 0.1577                 0.4196
 IR Inten    --     11.5001                94.7914                12.6655

                     13                     14                     15
                      A                      A                      A
 Frequencies --    516.9754               537.2682               565.4573
 Red. masses --      2.2444                 2.0693                 1.5827
 Frc consts  --      0.3534                 0.3519                 0.2982
 IR Inten    --     13.8741                 5.0760               105.6620

                     16                     17                     18
                      A                      A                      A
 Frequencies --    569.7030               616.5564               633.7980
 Red. masses --      4.6527                 1.9913                 3.2364
 Frc consts  --      0.8897                 0.4460                 0.7660
 IR Inten    --     23.8549               102.6123                36.3261

                     19                     20                     21
                      A                      A                      A
 Frequencies --    651.4089               677.0236               764.5435
 Red. masses --      2.6860                 3.7310                 8.4381
 Frc consts  --      0.6715                 1.0076                 2.9060
 IR Inten    --      0.1771                11.5471                64.4887

                     22                     23                     24
                      A                      A                      A
 Frequencies --    771.7079               788.5389               823.6226
 Red. masses --      4.7586                 5.0987                 3.4517
 Frc consts  --      1.6697                 1.8679                 1.3796
 IR Inten    --      1.4290                11.7949                 5.0090

                     25                     26                     27
                      A                      A                      A
 Frequencies --    841.1896               857.1148               884.8708
 Red. masses --      1.7640                 1.4443                 2.3315
 Frc consts  --      0.7354                 0.6251                 1.0756
 IR Inten    --      5.5013                19.9562                 0.9481

                     28                     29                     30
                      A                      A                      A
 Frequencies --    892.3202               949.1033               953.5525
 Red. masses --      1.8615                 7.0653                 1.3681
 Frc consts  --      0.8733                 3.7498                 0.7329
 IR Inten    --     10.2039                 2.6047                 1.4344

                     31                     32                     33
                      A                      A                      A
 Frequencies --    964.0990              1002.2353              1106.9412
 Red. masses --      2.7321                 2.2529                 1.7072
 Frc consts  --      1.4962                 1.3333                 1.2325
 IR Inten    --      4.8899                42.3031                17.4048

                     34                     35                     36
                      A                      A                      A
 Frequencies --   1124.8306              1152.3318              1163.0217
 Red. masses --      3.0624                 1.6186                 2.1330
 Frc consts  --      2.2829                 1.2663                 1.6999
 IR Inten    --     35.3619                12.7045                12.0412

                     37                     38                     39
                      A                      A                      A
 Frequencies --   1210.9857              1231.4704              1281.6485
 Red. masses --      1.5112                 1.7872                 1.4262
 Frc consts  --      1.3057                 1.5969                 1.3803
 IR Inten    --    214.5425                12.5005                 8.3089

                     40                     41                     42
                      A                      A                      A
 Frequencies --   1302.6556              1307.8855              1344.6983
 Red. masses --      1.6875                 3.4823                 1.9637
 Frc consts  --      1.6872                 3.5095                 2.0920
 IR Inten    --     22.0998                50.4260                 7.5844

                     43                     44                     45
                      A                      A                      A
 Frequencies --   1382.4370              1404.0629              1419.8988
 Red. masses --      1.6122                 2.8651                 2.4419
 Frc consts  --      1.8154                 3.3279                 2.9007
 IR Inten    --     50.3600                12.9757                56.0248

                     46                     47                     48
                      A                      A                      A
 Frequencies --   1461.5443              1489.6403              1497.0309
 Red. masses --      1.9989                 2.9402                 1.5994
 Frc consts  --      2.5158                 3.8440                 2.1118
 IR Inten    --     66.8992                28.8465                36.7840

                     49                     50                     51
                      A                      A                      A
 Frequencies --   1521.6975              1537.2480              1559.3457
 Red. masses --      1.2727                 4.6582                 3.1645
 Frc consts  --      1.7364                 6.4857                 4.5336
 IR Inten    --     22.3083                16.6489                23.8246

                     52                     53                     54
                      A                      A                      A
 Frequencies --   1636.0726              1688.4351              1853.8021
 Red. masses --      6.9157                 6.6409                 7.5277
 Frc consts  --     10.9066                11.1543                15.2420
 IR Inten    --      3.4516                 7.5991               607.9557

                     55                     56                     57
                      A                      A                      A
 Frequencies --   3079.3813              3147.8256              3181.8095
 Red. masses --      1.0676                 1.0979                 1.0886
 Frc consts  --      5.9647                 6.4094                 6.4935
 IR Inten    --     32.3932                 4.0579                14.7063

                     58                     59                     60
                      A                      A                      A
 Frequencies --   3205.7620              3219.2198              3258.9267
 Red. masses --      1.0913                 1.0934                 1.0969
 Frc consts  --      6.6078                 6.6765                 6.8639
 IR Inten    --      2.5980                10.0147                 3.4857

                     61                     62                     63
                      A                      A                      A
 Frequencies --   3624.5750              3659.2809              3736.7876
 Red. masses --      1.0764                 1.0807                 1.0647
 Frc consts  --      8.3315                 8.5258                 8.7591
 IR Inten    --     29.0269                54.0806                80.8966

 - Thermochemistry -
 -------------------
 Temperature   298.150 Kelvin.  Pressure   1.00000 Atm.
 Atom     1 has atomic number  6 and mass  12.00000

 Molecular mass:   191.06948 amu.
 Principal axes and moments of inertia in atomic units:
                           1         2         3
     Eigenvalues --  1199.867864776.227065518.58311
           X            0.99995   0.00852  -0.00521
           Y           -0.00845   0.99987   0.01398
           Z            0.00533  -0.01394   0.99989
 This molecule is an asymmetric top.
 Rotational symmetry number  1.
 Warning -- assumption of classical behavior for rotation
           may cause significant error
 Rotational temperatures (Kelvin)      0.07219     0.01813     0.01569
 Rotational constants (GHZ):           1.50412     0.37786     0.32703
 Zero-point vibrational energy     472716.7 (Joules/Mol)
                                  112.98200 (Kcal/Mol)
 Warning -- explicit consideration of  17 degrees of freedom as
           vibrations may cause significant error
 Vibrational temperatures:     28.06    69.57    97.23   177.12   291.73
          (Kelvin)            342.90   365.77   496.27   514.81   621.12
                              634.82   647.74   743.81   773.01   813.57
                              819.68   887.09   911.89   937.23   974.09
                             1100.01  1110.32  1134.53  1185.01  1210.28
                             1233.20  1273.13  1283.85  1365.55  1371.95
                             1387.12  1441.99  1592.64  1618.38  1657.95
                             1673.33  1742.34  1771.81  1844.01  1874.23
                             1881.76  1934.72  1989.02  2020.13  2042.92
                             2102.84  2143.26  2153.89  2189.38  2211.76
                             2243.55  2353.94  2429.28  2667.21  4430.54
                             4529.02  4577.91  4612.38  4631.74  4688.87
                             5214.96  5264.89  5376.40

 Zero-point correction=                           0.180048 (Hartree/Particle)
 Thermal correction to Energy=                    0.191459
 Thermal correction to Enthalpy=                  0.192403
 Thermal correction to Gibbs Free Energy=         0.140648
 Sum of electronic and zero-point Energies=           -662.973372
 Sum of electronic and thermal Energies=              -662.961961
 Sum of electronic and thermal Enthalpies=            -662.961017
 Sum of electronic and thermal Free Energies=         -663.012773

                     E (Thermal)             CV                S
                      KCal/Mol        Cal/Mol-Kelvin    Cal/Mol-Kelvin
 Total                  120.142             44.172            108.929
 Electronic               0.000              0.000              0.000
 Translational            0.889              2.981             41.648
 Rotational               0.889              2.981             31.825
 Vibrational            118.365             38.210             35.455
 Vibration     1          0.593              1.986              6.684
 Vibration     2          0.595              1.978              4.884
 Vibration     3          0.598              1.970              4.223
 Vibration     4          0.610              1.930              3.051
 Vibration     5          0.639              1.836              2.108
 Vibration     6          0.656              1.782              1.815
 Vibration     7          0.665              1.756              1.701
 Vibration     8          0.723              1.586              1.189
 Vibration     9          0.733              1.559              1.132
 Vibration    10          0.793              1.401              0.853
 Vibration    11          0.801              1.380              0.823
 Vibration    12          0.809              1.360              0.795
 Vibration    13          0.872              1.212              0.617
 Vibration    14          0.892              1.168              0.571
 Vibration    15          0.921              1.106              0.513
 Vibration    16          0.926              1.097              0.505
 Vibration    17          0.976              0.997              0.422

 Optimization completed.
    -- Stationary point found.
 Normal termination of Gaussian 16 at Thu Dec 10 11:25:43 2020.

 ----------------------------------------------------------------------
 # B3LYP/6-311++G(d,p) empiricaldispersion=gd3bj scf=xqc pop=npa geom=c
 heck
 ----------------------------------------------------------------------

 ---------------------------------------
 CID_115170892_JID_4960_Energie_neutraal
 ---------------------------------------
 Structure from the checkpoint file:  "JID_4960.chk"
 Charge =  0 Multiplicity = 1

 SCF Done:  E(RB3LYP) =  -663.350147994     A.U. after   15 cycles
 Normal termination of Gaussian 16 at Thu Dec 10 11:27:41 2020.

 ----------------------------------------------------------------------
 # B3LYP/6-311++G(d,p) empiricaldispersion=gd3bj scf=xqc pop=npa geom=c
 heck
 ----------------------------------------------------------------------

 -------------------------------------
 CID_115170892_JID_4960_Energie_kation
 -------------------------------------
 Structure from the checkpoint file:  "JID_4960.chk"
 Charge =  1 Multiplicity = 2

 SCF Done:  E(UB3LYP) =  -663.045390536     A.U. after   28 cycles
 Normal termination of Gaussian 16 at Thu Dec 10 11:32:45 2020.
 Gaussian 16:  ES64L-G16RevA.03 25-Dec-2016

 ----------------------------------------------------------------------
 # B3LYP/6-311++G(d,p) empiricaldispersion=gd3bj scf=xqc pop=npa geom=c
 heck
 ----------------------------------------------------------------------

 ------------------------------------
 CID_115170892_JID_4960_Energie_anion
 ------------------------------------
 Structure from the checkpoint file:  "JID_4960.chk"
 Charge = -1 Multiplicity = 2

                         Standard orientation:
 ---------------------------------------------------------------------
 Center     Atomic      Atomic             Coordinates (Angstroms)
 Number     Number       Type             X           Y           Z
 ---------------------------------------------------------------------
      1          6           0       -0.631396    1.993487   -0.010920
      2          6           0       -1.970442    1.761928    0.286386
      3          6           0       -2.446562    0.451300    0.190416
      4          6           0       -1.562159   -0.585413   -0.204157
      5          6           0       -0.222528   -0.358559   -0.506993
      6          6           0        0.240396    0.955878   -0.403937
      7          6           0        1.699113    1.260772   -0.684249
      8          7           0        2.612024    0.746173    0.337672
      9          6           0        3.196795   -0.482214    0.333710
     10          8           0        3.782534   -0.986025    1.274674
     11          8           0        3.084884   -1.105529   -0.881141
     12          7           0       -2.346781   -1.727056   -0.198761
     13          6           0       -3.613102   -1.340851    0.185463
     14          7           0       -3.719562   -0.059278    0.425197
     15          1           0       -0.238171    3.004817    0.057024
     16          1           0       -2.635083    2.565681    0.585804
     17          1           0        0.448010   -1.157377   -0.809231
     18          1           0        2.013805    0.832127   -1.637155
     19          1           0        1.847302    2.343637   -0.748587
     20          1           0        2.546128    1.144353    1.264691
     21          1           0        3.583865   -1.932988   -0.770988
     22          1           0       -2.047824   -2.664392   -0.422013
     23          1           0       -4.417844   -2.060254    0.269123
 ---------------------------------------------------------------------

 SCF Done:  E(UB3LYP) =  -663.345134031     A.U. after   33 cycles
 SCF Done:  E(UB3LYP) =  -663.345134031     a.u. after    1 cycles

 The electronic state is 2-A.
 Alpha  occ. eigenvalues --  -19.06779 -19.00090 -14.25684 -14.24594 -14.19345
 Alpha  occ. eigenvalues --  -10.22573 -10.12884 -10.11697 -10.10507 -10.08806
 Alpha  occ. eigenvalues --  -10.07638 -10.07051 -10.06771 -10.06687  -1.01234
 Alpha  occ. eigenvalues --   -0.91704  -0.91012  -0.83896  -0.77371  -0.74580
 Alpha  occ. eigenvalues --   -0.66259  -0.64193  -0.59668  -0.54146  -0.52930
 Alpha  occ. eigenvalues --   -0.50962  -0.48993  -0.44556  -0.42740  -0.40645
 Alpha  occ. eigenvalues --   -0.39589  -0.38049  -0.37101  -0.35973  -0.34073
 Alpha  occ. eigenvalues --   -0.33755  -0.33332  -0.31756  -0.31223  -0.29329
 Alpha  occ. eigenvalues --   -0.27915  -0.25674  -0.23908  -0.22797  -0.20531
 Alpha  occ. eigenvalues --   -0.18905  -0.17551  -0.17167  -0.13237  -0.12554
 Alpha  occ. eigenvalues --    0.04148
 Alpha virt. eigenvalues --    0.06414   0.06876   0.07228   0.09089   0.09247
 Alpha virt. eigenvalues --    0.09398   0.10888   0.10921   0.11849   0.12887
 Alpha virt. eigenvalues --    0.13140   0.14048   0.14467   0.14983   0.15062

  Beta  occ. eigenvalues --  -19.06738 -19.00080 -14.25617 -14.24568 -14.19353
  Beta  occ. eigenvalues --  -10.22565 -10.12792 -10.11689 -10.10523 -10.08777
  Beta  occ. eigenvalues --  -10.07604 -10.07063 -10.06699 -10.06588  -1.01181
  Beta  occ. eigenvalues --   -0.91660  -0.90922  -0.83851  -0.77289  -0.74484
  Beta  occ. eigenvalues --   -0.66164  -0.64068  -0.59578  -0.54060  -0.52806
  Beta  occ. eigenvalues --   -0.50809  -0.48925  -0.44443  -0.42677  -0.40592
  Beta  occ. eigenvalues --   -0.39507  -0.38001  -0.37051  -0.35909  -0.34012
  Beta  occ. eigenvalues --   -0.33581  -0.33255  -0.31693  -0.31173  -0.29282
  Beta  occ. eigenvalues --   -0.27863  -0.25618  -0.23662  -0.22750  -0.20350
  Beta  occ. eigenvalues --   -0.18881  -0.17540  -0.17123  -0.13005  -0.12172
  Beta virt. eigenvalues --    0.06594   0.07509   0.07780   0.08049   0.09237
  Beta virt. eigenvalues --    0.09446   0.10350   0.10975   0.11055   0.12091
  Beta virt. eigenvalues --    0.13136   0.13398   0.14180   0.14497   0.14927

 Mulliken charges and spin densities:
               1          2
     1  C   -0.564566  -0.112487
     2  C   -0.209335  -0.136031
     3  C   -0.015738   0.072388
     4  C    0.485608  -0.273371
     5  C   -0.535638  -0.154431
     6  C    0.722181   0.167564
     7  C    0.817660  -1.618277
     8  N   -0.084240  -0.049895
     9  C    0.447606  -0.352577
    10  O   -0.366759   0.014536
    11  O   -0.244759   0.025653
    12  N   -0.141943  -0.054371
    13  C    0.139985   0.237691
    14  N   -0.169024  -0.016381
    15  H   -0.044870   0.148797
    16  H    0.114624   0.028508
    17  H   -0.234791   0.428656
    18  H    0.007703   0.214983
    19  H   -0.001831   0.191331
    20  H    0.232650   0.056383
    21  H   -0.092319   0.392305
    22  H   -0.591428   0.922065
    23  H   -0.670775   0.866959
 Sum of Mulliken charges =  -1.00000   1.00000

 Dipole moment (field-independent basis, Debye):
    X=              2.0057    Y=              6.6238    Z=              0.6934  Tot=              6.9555
 Quadrupole moment (field-independent basis, Debye-Ang):
   XX=           -152.8968   YY=           -121.3753   ZZ=           -105.0032
   XY=             -1.9216   XZ=             -4.9728   YZ=             -3.2732

 Summary of Natural Population Analysis:

                                       Natural Population
                Natural  -----------------------------------------------
    Atom  No    Charge         Core      Valence    Rydberg      Total
 -----------------------------------------------------------------------
      C    1   -0.11630      0.99953     2.10793    0.00884     3.11630
      C    2   -0.08856      0.99952     2.08036    0.00868     3.08856
      C    3    0.05602      0.99945     1.92999    0.01454     2.94398
      C    4    0.06401      0.99946     1.92427    0.01226     2.93599
      C    5   -0.09650      0.99947     2.08760    0.00943     3.09650
      C    6   -0.02796      0.99952     2.01953    0.00892     3.02796
      C    7   -0.09424      0.99957     2.08323    0.01144     3.09424
      N    8   -0.32283      0.99966     2.81334    0.00982     3.82283
      C    9    0.45721      0.99972     1.51885    0.02423     2.54279
      O   10   -0.33674      0.99987     3.33081    0.00605     4.33674
      O   11   -0.35617      0.99988     3.34952    0.00676     4.35617
      N   12   -0.27561      0.99966     2.76498    0.01097     3.77561
      C   13    0.14006      0.99965     1.84233    0.01796     2.85994
      N   14   -0.26344      0.99971     2.75399    0.00973     3.76344
      H   15    0.09520      0.00000     0.40371    0.00110     0.40480
      H   16    0.10003      0.00000     0.39871    0.00126     0.39997
      H   17    0.11088      0.00000     0.38701    0.00211     0.38912
      H   18    0.11231      0.00000     0.38608    0.00161     0.38769
      H   19    0.09555      0.00000     0.40320    0.00125     0.40445
      H   20    0.19579      0.00000     0.30204    0.00217     0.30421
      H   21    0.24641      0.00000     0.24693    0.00666     0.25359
      H   22    0.21260      0.00000     0.26426    0.02314     0.28740
      H   23    0.09229      0.00000     0.40610    0.00161     0.40771
 =======================================================================
   * Total *   -0.00000     13.99469    35.80479    0.20053    50.00000

 Normal termination of Gaussian 16 at Thu Dec 10 11:38:30 2020.
