 Gaussian 16, Revision A.03,

 -----------------------------------------------------------
 # opt freq B3LYP/6-31G(d) empiricaldispersion=gd3bj scf=xqc
 -----------------------------------------------------------

 -------------------------------
 CID_114382875_JID_9569_neutraal
 -------------------------------
 Symbolic Z-matrix:
 Charge =  0 Multiplicity = 1

 SCF Done:  E(RB3LYP) =  -914.090008266     A.U. after   14 cycles
 SCF Done:  E(RB3LYP) =  -914.099071098     A.U. after   14 cycles
 SCF Done:  E(RB3LYP) =  -914.102387879     A.U. after   14 cycles
 SCF Done:  E(RB3LYP) =  -914.104166833     A.U. after   13 cycles
 SCF Done:  E(RB3LYP) =  -914.105120314     A.U. after   12 cycles
 SCF Done:  E(RB3LYP) =  -914.105228624     A.U. after   12 cycles
 SCF Done:  E(RB3LYP) =  -914.105616738     A.U. after   11 cycles
 SCF Done:  E(RB3LYP) =  -914.105698186     A.U. after   10 cycles
 SCF Done:  E(RB3LYP) =  -914.105722334     A.U. after   11 cycles
 SCF Done:  E(RB3LYP) =  -914.105746870     A.U. after    9 cycles
 SCF Done:  E(RB3LYP) =  -914.105784668     A.U. after    8 cycles
 SCF Done:  E(RB3LYP) =  -914.105785525     A.U. after    8 cycles
 SCF Done:  E(RB3LYP) =  -914.105785924     A.U. after    7 cycles
 SCF Done:  E(RB3LYP) =  -914.105786145     A.U. after    7 cycles
 SCF Done:  E(RB3LYP) =  -914.105786217     A.U. after    6 cycles
 Optimization completed.
    -- Stationary point found.
 Normal termination of Gaussian 16 at Mon Dec 14 16:50:58 2020.

 --------------------------------------------------------------------
 #N Geom=AllCheck Guess=TCheck SCRF=Check GenChk RB3LYP/6-31G(d) Freq
 --------------------------------------------------------------------

 Structure from the checkpoint file:  "JID_9569.chk"
 -------------------------------
 CID_114382875_JID_9569_neutraal
 -------------------------------
 Charge =  0 Multiplicity = 1

 SCF Done:  E(RB3LYP) =  -914.105786217     A.U. after    1 cycles

  Exact polarizability: 232.132  -5.034 146.542  13.185   2.533 119.302
 Approx polarizability: 279.827 -10.049 231.910  18.808   6.955 181.302

                      1                      2                      3
                      A                      A                      A
 Frequencies --     11.0664                19.5445                32.4679
 Red. masses --      4.4188                 4.7368                 4.0840
 Frc consts  --      0.0003                 0.0011                 0.0025
 IR Inten    --      0.0507                 0.2765                 0.2297

                      4                      5                      6
                      A                      A                      A
 Frequencies --     49.3627                83.5558                95.6389
 Red. masses --      4.1328                 3.7554                 4.5292
 Frc consts  --      0.0059                 0.0154                 0.0244
 IR Inten    --      1.8977                 3.0685                 1.8798

                      7                      8                      9
                      A                      A                      A
 Frequencies --    114.0407               120.8734               136.7419
 Red. masses --      4.3605                 3.7877                 5.9377
 Frc consts  --      0.0334                 0.0326                 0.0654
 IR Inten    --      1.1923                 0.7228                 2.6996

                     10                     11                     12
                      A                      A                      A
 Frequencies --    141.4407               163.0220               209.8738
 Red. masses --      3.3782                 1.1266                 1.0849
 Frc consts  --      0.0398                 0.0176                 0.0282
 IR Inten    --      1.9974                 0.0733                 0.0219

                     13                     14                     15
                      A                      A                      A
 Frequencies --    217.1596               227.5508               249.1129
 Red. masses --      3.6419                 3.9641                 6.1357
 Frc consts  --      0.1012                 0.1209                 0.2243
 IR Inten    --      2.6985                 5.4707                 2.6107

                     16                     17                     18
                      A                      A                      A
 Frequencies --    252.2753               256.3935               269.7083
 Red. masses --      3.2349                 1.0670                 2.2207
 Frc consts  --      0.1213                 0.0413                 0.0952
 IR Inten    --      3.6680                 0.3799                13.1171

                     19                     20                     21
                      A                      A                      A
 Frequencies --    274.2956               324.9814               351.2579
 Red. masses --      1.0790                 3.2071                 2.4921
 Frc consts  --      0.0478                 0.1996                 0.1812
 IR Inten    --      0.2515                 9.1235                 1.7536

                     22                     23                     24
                      A                      A                      A
 Frequencies --    370.3045               409.7769               430.3971
 Red. masses --      3.0288                 3.1432                 3.2153
 Frc consts  --      0.2447                 0.3110                 0.3509
 IR Inten    --      1.0255                 1.8046                15.2732

                     25                     26                     27
                      A                      A                      A
 Frequencies --    461.8629               470.9873               473.0092
 Red. masses --      2.9281                 3.2093                 2.5084
 Frc consts  --      0.3680                 0.4195                 0.3307
 IR Inten    --      3.2047                 0.0750                10.5136

                     28                     29                     30
                      A                      A                      A
 Frequencies --    493.7539               534.0886               561.5974
 Red. masses --      4.0145                 1.7030                 2.3647
 Frc consts  --      0.5766                 0.2862                 0.4394
 IR Inten    --      3.0768                24.3315               125.3071

                     31                     32                     33
                      A                      A                      A
 Frequencies --    607.1908               633.6271               659.1077
 Red. masses --      1.9952                 2.5167                 3.4036
 Frc consts  --      0.4334                 0.5953                 0.8712
 IR Inten    --     67.2592                42.7662                19.5963

                     34                     35                     36
                      A                      A                      A
 Frequencies --    677.7331               708.1283               765.6445
 Red. masses --      2.6892                10.6238                11.5821
 Frc consts  --      0.7278                 3.1387                 4.0003
 IR Inten    --     43.2588                 8.8287                30.5564

                     37                     38                     39
                      A                      A                      A
 Frequencies --    778.7991               792.8423               830.5977
 Red. masses --      2.1065                 3.9078                 2.4639
 Frc consts  --      0.7528                 1.4473                 1.0015
 IR Inten    --      6.8704                 1.3823                42.3084

                     40                     41                     42
                      A                      A                      A
 Frequencies --    836.5527               860.0133               902.9990
 Red. masses --      4.3288                 3.6778                 1.8646
 Frc consts  --      1.7848                 1.6027                 0.8958
 IR Inten    --     20.4948                 3.2019                 5.9972

                     43                     44                     45
                      A                      A                      A
 Frequencies --    937.3858               937.6136               944.4384
 Red. masses --      1.6380                 1.7241                 2.2196
 Frc consts  --      0.8480                 0.8930                 1.1665
 IR Inten    --      0.0774                 1.6554                 4.5552

                     46                     47                     48
                      A                      A                      A
 Frequencies --    982.3472               990.0957               990.7174
 Red. masses --      1.1981                 3.6170                 1.4886
 Frc consts  --      0.6812                 2.0891                 0.8608
 IR Inten    --      0.3044                10.0203                 2.1921

                     49                     50                     51
                      A                      A                      A
 Frequencies --   1003.7586              1054.1769              1067.2106
 Red. masses --      6.7021                 3.1681                 1.4021
 Frc consts  --      3.9785                 2.0743                 0.9409
 IR Inten    --     10.0634               107.4510                 0.2326

                     52                     53                     54
                      A                      A                      A
 Frequencies --   1077.1901              1080.6486              1105.0222
 Red. masses --      1.7873                 2.7358                 2.0369
 Frc consts  --      1.2219                 1.8824                 1.4654
 IR Inten    --     59.0873                37.6552                17.5375

                     55                     56                     57
                      A                      A                      A
 Frequencies --   1153.4747              1175.8608              1184.4436
 Red. masses --      2.6716                 3.0239                 1.2646
 Frc consts  --      2.0943                 2.4634                 1.0452
 IR Inten    --    129.0083                80.2959                 0.5995

                     58                     59                     60
                      A                      A                      A
 Frequencies --   1204.9361              1224.9237              1243.9333
 Red. masses --      1.4630                 2.2228                 1.5200
 Frc consts  --      1.2514                 1.9650                 1.3857
 IR Inten    --      5.8542               337.2030                11.4578

                     61                     62                     63
                      A                      A                      A
 Frequencies --   1261.0823              1286.7650              1287.3227
 Red. masses --      2.1803                 2.6452                 2.1494
 Frc consts  --      2.0429                 2.5805                 2.0987
 IR Inten    --    326.9732                17.1434                 6.3892

                     64                     65                     66
                      A                      A                      A
 Frequencies --   1295.8637              1302.1521              1346.6795
 Red. masses --      1.9037                 1.6349                 4.2322
 Frc consts  --      1.8835                 1.6333                 4.5222
 IR Inten    --     83.0085                17.1661                75.4279

                     67                     68                     69
                      A                      A                      A
 Frequencies --   1363.1415              1373.2697              1407.3762
 Red. masses --      1.6996                 1.8448                 1.5276
 Frc consts  --      1.8607                 2.0498                 1.7827
 IR Inten    --    225.7464                37.4999                26.5197

                     70                     71                     72
                      A                      A                      A
 Frequencies --   1418.0350              1423.0510              1429.5696
 Red. masses --      1.8450                 1.2873                 1.5067
 Frc consts  --      2.1858                 1.5359                 1.8142
 IR Inten    --    188.5566                19.1693               131.9180

                     73                     74                     75
                      A                      A                      A
 Frequencies --   1451.6567              1454.5039              1478.1920
 Red. masses --      1.2404                 1.8542                 1.5035
 Frc consts  --      1.5401                 2.3112                 1.9356
 IR Inten    --     37.1305               125.2468                 8.8492

                     76                     77                     78
                      A                      A                      A
 Frequencies --   1485.5268              1499.7337              1510.1257
 Red. masses --      1.6763                 1.0468                 1.0490
 Frc consts  --      2.1795                 1.3872                 1.4094
 IR Inten    --    170.1350                 0.5555                 5.0721

                     79                     80                     81
                      A                      A                      A
 Frequencies --   1520.2135              1520.5452              1524.5537
 Red. masses --      1.0476                 1.0517                 1.0665
 Frc consts  --      1.4265                 1.4327                 1.4605
 IR Inten    --      1.0649                 0.6579                34.0661

                     82                     83                     84
                      A                      A                      A
 Frequencies --   1525.2844              1533.6455              1535.2055
 Red. masses --      1.0551                 1.4359                 1.4557
 Frc consts  --      1.4462                 1.9899                 2.0214
 IR Inten    --     33.1160                18.4880                61.1638

                     85                     86                     87
                      A                      A                      A
 Frequencies --   1535.5034              1542.2854              1558.0401
 Red. masses --      1.0626                 1.1684                 1.0569
 Frc consts  --      1.4761                 1.6375                 1.5117
 IR Inten    --      1.3825                31.4691                18.7506

                     88                     89                     90
                      A                      A                      A
 Frequencies --   1568.5768              1617.0692              1657.9431
 Red. masses --      2.6245                 4.9051                 6.4899
 Frc consts  --      3.8045                 7.5572                10.5107
 IR Inten    --    140.7381               166.7692               817.0473

                     91                     92                     93
                      A                      A                      A
 Frequencies --   1814.3862              2994.3242              3010.8990
 Red. masses --      9.0392                 1.0748                 1.0712
 Frc consts  --     17.5323                 5.6780                 5.7216
 IR Inten    --    444.0322                37.4459                60.4081

                     94                     95                     96
                      A                      A                      A
 Frequencies --   3057.2644              3058.8343              3066.0140
 Red. masses --      1.0355                 1.0384                 1.0385
 Frc consts  --      5.7023                 5.7243                 5.7516
 IR Inten    --      9.4227                25.8261                21.6958

                     97                     98                     99
                      A                      A                      A
 Frequencies --   3071.9876              3103.4423              3120.4980
 Red. masses --      1.0292                 1.0920                 1.1026
 Frc consts  --      5.7226                 6.1968                 6.3260
 IR Inten    --     48.1822                17.4668                 7.0496

                    100                    101                    102
                      A                      A                      A
 Frequencies --   3122.7929              3130.0758              3132.9618
 Red. masses --      1.1023                 1.0894                 1.1032
 Frc consts  --      6.3332                 6.2885                 6.3797
 IR Inten    --     20.4016                13.4180                33.2474

                    103                    104                    105
                      A                      A                      A
 Frequencies --   3136.9676              3145.7826              3174.5617
 Red. masses --      1.1024                 1.1073                 1.1071
 Frc consts  --      6.3916                 6.4564                 6.5737
 IR Inten    --     51.8134                23.3260                26.9760

                    106                    107                    108
                      A                      A                      A
 Frequencies --   3174.9616              3177.9007              3181.4818
 Red. masses --      1.0995                 1.0990                 1.0908
 Frc consts  --      6.5303                 6.5390                 6.5051
 IR Inten    --      0.6892                 9.6265                35.7304

                    109                    110                    111
                      A                      A                      A
 Frequencies --   3249.9441              3571.3105              3617.8058
 Red. masses --      1.0918                 1.0753                 1.0765
 Frc consts  --      6.7943                 8.0807                 8.3011
 IR Inten    --      4.0154                25.9075                71.7964

 - Thermochemistry -
 -------------------
 Temperature   298.150 Kelvin.  Pressure   1.00000 Atm.
 Atom     1 has atomic number  6 and mass  12.00000

 Molecular mass:   268.15354 amu.
 Principal axes and moments of inertia in atomic units:
                           1         2         3
     Eigenvalues --  1609.51036********************
           X            0.99999  -0.00137   0.00360
           Y            0.00138   0.99999  -0.00518
           Z           -0.00359   0.00518   0.99998
 This molecule is an asymmetric top.
 Rotational symmetry number  1.
 Warning -- assumption of classical behavior for rotation
           may cause significant error
 Rotational temperatures (Kelvin)      0.05381     0.00510     0.00501
 Rotational constants (GHZ):           1.12130     0.10626     0.10429
 Zero-point vibrational energy     867559.8 (Joules/Mol)
                                  207.35176 (Kcal/Mol)
 Warning -- explicit consideration of  31 degrees of freedom as
           vibrations may cause significant error
 Vibrational temperatures:     15.92    28.12    46.71    71.02   120.22
          (Kelvin)            137.60   164.08   173.91   196.74   203.50
                              234.55   301.96   312.44   327.39   358.42
                              362.97   368.89   388.05   394.65   467.58
                              505.38   532.79   589.58   619.25   664.52
                              677.65   680.55   710.40   768.43   808.01
                              873.61   911.65   948.31   975.11  1018.84
                             1101.59  1120.52  1140.72  1195.04  1203.61
                             1237.37  1299.21  1348.69  1349.02  1358.84
                             1413.38  1424.53  1425.42  1444.18  1516.73
                             1535.48  1549.84  1554.81  1589.88  1659.59
                             1691.80  1704.15  1733.63  1762.39  1789.74
                             1814.42  1851.37  1852.17  1864.46  1873.51
                             1937.57  1961.26  1975.83  2024.90  2040.24
                             2047.45  2056.83  2088.61  2092.71  2126.79
                             2137.34  2157.78  2172.73  2187.25  2187.73
                             2193.49  2194.54  2206.57  2208.82  2209.25
                             2219.00  2241.67  2256.83  2326.60  2385.41
                             2610.50  4308.16  4332.01  4398.72  4400.98
                             4411.31  4419.90  4465.16  4489.70  4493.00
                             4503.48  4507.63  4513.40  4526.08  4567.49
                             4568.06  4572.29  4577.44  4675.94  5138.32
                             5205.22

 Zero-point correction=                           0.330436 (Hartree/Particle)
 Thermal correction to Energy=                    0.350535
 Thermal correction to Enthalpy=                  0.351480
 Thermal correction to Gibbs Free Energy=         0.279039
 Sum of electronic and zero-point Energies=           -913.775350
 Sum of electronic and thermal Energies=              -913.755251
 Sum of electronic and thermal Enthalpies=            -913.754307
 Sum of electronic and thermal Free Energies=         -913.826747

                     E (Thermal)             CV                S
                      KCal/Mol        Cal/Mol-Kelvin    Cal/Mol-Kelvin
 Total                  219.964             73.963            152.464
 Electronic               0.000              0.000              0.000
 Translational            0.889              2.981             42.658
 Rotational               0.889              2.981             34.513
 Vibrational            218.187             68.002             75.292
 Vibration     1          0.593              1.987              7.810
 Vibration     2          0.593              1.986              6.680
 Vibration     3          0.594              1.983              5.673
 Vibration     4          0.595              1.978              4.843
 Vibration     5          0.600              1.960              3.806
 Vibration     6          0.603              1.952              3.541
 Vibration     7          0.607              1.938              3.199
 Vibration     8          0.609              1.932              3.086
 Vibration     9          0.614              1.917              2.849
 Vibration    10          0.615              1.912              2.784
 Vibration    11          0.623              1.888              2.514
 Vibration    12          0.642              1.826              2.045
 Vibration    13          0.646              1.815              1.983
 Vibration    14          0.651              1.799              1.898
 Vibration    15          0.662              1.764              1.737
 Vibration    16          0.664              1.759              1.715
 Vibration    17          0.666              1.752              1.686
 Vibration    18          0.674              1.729              1.598
 Vibration    19          0.677              1.721              1.569
 Vibration    20          0.709              1.626              1.285
 Vibration    21          0.728              1.573              1.161
 Vibration    22          0.742              1.533              1.079
 Vibration    23          0.774              1.449              0.927
 Vibration    24          0.792              1.404              0.857
 Vibration    25          0.820              1.335              0.761
 Vibration    26          0.828              1.314              0.735
 Vibration    27          0.830              1.310              0.729
 Vibration    28          0.849              1.264              0.674
 Vibration    29          0.889              1.175              0.578
 Vibration    30          0.917              1.114              0.521
 Vibration    31          0.966              1.017              0.437

                           ! Non-Optimized Parameters !
 Normal termination of Gaussian 16 at Mon Dec 14 17:06:55 2020.

 ----------------------------------------------------------------------
 # B3LYP/6-311++G(d,p) empiricaldispersion=gd3bj scf=xqc pop=npa geom=c
 heck
 ----------------------------------------------------------------------

 ---------------------------------------
 CID_114382875_JID_9569_Energie_neutraal
 ---------------------------------------
 Structure from the checkpoint file:  "JID_9569.chk"
 Charge =  0 Multiplicity = 1

 SCF Done:  E(RB3LYP) =  -914.370424737     A.U. after   14 cycles
 Normal termination of Gaussian 16 at Mon Dec 14 17:14:21 2020.

 ----------------------------------------------------------------------
 # B3LYP/6-311++G(d,p) empiricaldispersion=gd3bj scf=xqc pop=npa geom=c
 heck
 ----------------------------------------------------------------------

 -------------------------------------
 CID_114382875_JID_9569_Energie_kation
 -------------------------------------
 Structure from the checkpoint file:  "JID_9569.chk"
 Charge =  1 Multiplicity = 2

 SCF Done:  E(UB3LYP) =  -914.065903326     A.U. after   25 cycles
 Normal termination of Gaussian 16 at Mon Dec 14 17:33:27 2020.
 Gaussian 16:  ES64L-G16RevA.03 25-Dec-2016

 ----------------------------------------------------------------------
 # B3LYP/6-311++G(d,p) empiricaldispersion=gd3bj scf=xqc pop=npa geom=c
 heck
 ----------------------------------------------------------------------

 ------------------------------------
 CID_114382875_JID_9569_Energie_anion
 ------------------------------------
 Structure from the checkpoint file:  "JID_9569.chk"
 Charge = -1 Multiplicity = 2

                         Standard orientation:
 ---------------------------------------------------------------------
 Center     Atomic      Atomic             Coordinates (Angstroms)
 Number     Number       Type             X           Y           Z
 ---------------------------------------------------------------------
      1          6           0        5.615988    0.733426    1.352872
      2          6           0        5.057998    0.250076    0.014524
      3          6           0        5.354796    1.260741   -1.095047
      4          6           0        5.581166   -1.148601   -0.318787
      5          8           0        3.613583    0.196399    0.272320
      6          6           0        2.754291   -0.186564   -0.702968
      7          8           0        3.050093   -0.536319   -1.833251
      8          7           0        1.464851   -0.108900   -0.250837
      9          6           0        1.072326    0.100070    1.130684
     10          6           0       -0.419032    0.408912    1.198611
     11          7           0       -1.182249   -0.704146    0.659439
     12          6           0       -2.523469   -0.640572    0.371329
     13          6           0       -3.231438    0.556824    0.237179
     14          6           0       -4.580407    0.433335   -0.107031
     15          7           0       -5.189600   -0.741304   -0.290702
     16          6           0       -4.408012   -1.815439   -0.119214
     17          7           0       -3.122282   -1.845693    0.200026
     18          8           0       -5.282790    1.570378   -0.248920
     19          6           0       -6.666442    1.441790   -0.598471
     20          1           0        6.706202    0.814863    1.297567
     21          1           0        5.359678    0.031565    2.152875
     22          1           0        5.206429    1.715837    1.608863
     23          1           0        6.438482    1.382717   -1.199316
     24          1           0        4.942007    0.925694   -2.047094
     25          1           0        4.924008    2.235813   -0.843069
     26          1           0        5.310500   -1.852344    0.475850
     27          1           0        5.167749   -1.503385   -1.263322
     28          1           0        6.673744   -1.123075   -0.394604
     29          1           0        0.780962   -0.529313   -0.866439
     30          1           0        1.300676   -0.777762    1.757404
     31          1           0        1.637946    0.938698    1.542423
     32          1           0       -0.701230    0.640740    2.237490
     33          1           0       -0.621614    1.296620    0.591688
     34          1           0       -0.898508   -1.633884    0.948817
     35          1           0       -2.793235    1.534694    0.383867
     36          1           0       -4.891005   -2.781352   -0.256743
     37          1           0       -6.780705    0.929718   -1.557605
     38          1           0       -7.211860    0.881837    0.165934
     39          1           0       -7.038948    2.464977   -0.663337
 ---------------------------------------------------------------------

 SCF Done:  E(UB3LYP) =  -914.361506478     A.U. after   33 cycles
 SCF Done:  E(UB3LYP) =  -914.361506478     a.u. after    1 cycles

 The electronic state is 2-A.
 Alpha  occ. eigenvalues --  -19.08227 -19.06556 -19.00046 -14.24990 -14.24403
 Alpha  occ. eigenvalues --  -14.21735 -14.21627 -10.22650 -10.18662 -10.16815
 Alpha  occ. eigenvalues --  -10.15470 -10.14539 -10.14504 -10.12717 -10.12260
 Alpha  occ. eigenvalues --  -10.08510 -10.07140 -10.07062 -10.07056  -1.01099
 Alpha  occ. eigenvalues --   -1.00619  -0.92274  -0.90365  -0.86049  -0.83538
 Alpha  occ. eigenvalues --   -0.78355  -0.72223  -0.70464  -0.66907  -0.63411
 Alpha  occ. eigenvalues --   -0.60721  -0.60685  -0.58304  -0.55440  -0.54847
 Alpha  occ. eigenvalues --   -0.52962  -0.47499  -0.46543  -0.45467  -0.42295
 Alpha  occ. eigenvalues --   -0.41379  -0.40466  -0.39940  -0.39126  -0.38641
 Alpha  occ. eigenvalues --   -0.37562  -0.37155  -0.36983  -0.35549  -0.35105
 Alpha  occ. eigenvalues --   -0.34528  -0.33984  -0.33371  -0.32240  -0.31044
 Alpha  occ. eigenvalues --   -0.30186  -0.29948  -0.29041  -0.28077  -0.27838
 Alpha  occ. eigenvalues --   -0.27659  -0.27061  -0.26421  -0.24941  -0.24097
 Alpha  occ. eigenvalues --   -0.21491  -0.20961  -0.18460  -0.18000  -0.17682
 Alpha  occ. eigenvalues --   -0.16986  -0.14739   0.03832
 Alpha virt. eigenvalues --    0.05168   0.05585   0.06280   0.07148   0.07592
 Alpha virt. eigenvalues --    0.07779   0.08064   0.08522   0.08681   0.08967
 Alpha virt. eigenvalues --    0.09522   0.09712   0.10166   0.10692   0.11106

  Beta  occ. eigenvalues --  -19.08223 -19.06548 -19.00041 -14.24983 -14.24397
  Beta  occ. eigenvalues --  -14.21732 -14.21616 -10.22647 -10.18639 -10.16803
  Beta  occ. eigenvalues --  -10.15469 -10.14489 -10.14423 -10.12691 -10.12228
  Beta  occ. eigenvalues --  -10.08455 -10.07105 -10.07042 -10.07037  -1.01088
  Beta  occ. eigenvalues --   -1.00599  -0.92265  -0.90295  -0.86003  -0.83513
  Beta  occ. eigenvalues --   -0.78307  -0.72203  -0.70376  -0.66867  -0.63364
  Beta  occ. eigenvalues --   -0.60685  -0.60637  -0.58175  -0.55380  -0.54778
  Beta  occ. eigenvalues --   -0.52904  -0.47460  -0.46503  -0.45422  -0.42264
  Beta  occ. eigenvalues --   -0.41347  -0.40426  -0.39881  -0.39089  -0.38595
  Beta  occ. eigenvalues --   -0.37517  -0.37121  -0.36935  -0.35501  -0.35037
  Beta  occ. eigenvalues --   -0.34489  -0.33950  -0.33252  -0.32193  -0.31003
  Beta  occ. eigenvalues --   -0.30147  -0.29907  -0.28996  -0.28046  -0.27812
  Beta  occ. eigenvalues --   -0.27560  -0.27037  -0.26396  -0.24916  -0.23885
  Beta  occ. eigenvalues --   -0.21459  -0.20949  -0.18445  -0.17970  -0.17533
  Beta  occ. eigenvalues --   -0.16944  -0.14582
  Beta virt. eigenvalues --    0.05422   0.05992   0.06445   0.07081   0.07455
  Beta virt. eigenvalues --    0.07692   0.08001   0.08354   0.08790   0.08981
  Beta virt. eigenvalues --    0.09170   0.09555   0.09859   0.10435   0.10878

 Mulliken charges and spin densities:
               1          2
     1  C    0.442116  -0.842833
     2  C   -1.257275   1.118722
     3  C    0.323951  -0.739757
     4  C    0.457729  -0.851764
     5  O    0.061058  -0.015924
     6  C    0.128642  -0.010696
     7  O   -0.282814  -0.006686
     8  N   -0.371069   0.133481
     9  C    0.167955  -0.524010
    10  C    0.698927  -1.171266
    11  N   -0.183836   0.128234
    12  C   -0.264921  -0.207627
    13  C   -0.275012  -0.039844
    14  C    0.393404   0.042196
    15  N   -0.205215   0.016398
    16  C   -0.147168   0.198135
    17  N   -0.163243   0.018052
    18  O   -0.167391   0.018276
    19  C    0.070056  -0.389133
    20  H   -0.129724   0.267775
    21  H   -0.194319   0.353097
    22  H   -0.228564   0.387729
    23  H   -0.039134   0.193922
    24  H    0.108899   0.067532
    25  H   -0.005230   0.151215
    26  H   -0.009630   0.154693
    27  H    0.129419   0.051178
    28  H   -0.038526   0.189210
    29  H    0.292010   0.040448
    30  H   -0.286150   0.469728
    31  H   -0.052618   0.259949
    32  H   -0.385298   0.594501
    33  H    0.019025   0.168659
    34  H    0.230845   0.067228
    35  H   -0.019040   0.214007
    36  H    0.121470   0.061203
    37  H    0.072448   0.101711
    38  H    0.027161   0.148111
    39  H   -0.038940   0.184150
 Sum of Mulliken charges =  -1.00000   1.00000

 Dipole moment (field-independent basis, Debye):
    X=             -4.3722    Y=             -0.6022    Z=             -1.9901  Tot=              4.8414
 Quadrupole moment (field-independent basis, Debye-Ang):
   XX=           -237.1900   YY=           -148.1669   ZZ=           -155.4317
   XY=             -3.9914   XZ=             -6.2562   YZ=             -3.3322

 Summary of Natural Population Analysis:

                                       Natural Population
                Natural  -----------------------------------------------
    Atom  No    Charge         Core      Valence    Rydberg      Total
 -----------------------------------------------------------------------
      C    1   -0.28945      0.99960     2.28250    0.00734     3.28945
      C    2    0.13344      0.99954     1.85159    0.01543     2.86656
      C    3   -0.30114      0.99960     2.29602    0.00552     3.30114
      C    4   -0.30089      0.99960     2.29575    0.00554     3.30089
      O    5   -0.30201      0.99985     3.29189    0.01026     4.30201
      C    6    0.46772      0.99969     1.50816    0.02444     2.53228
      O    7   -0.33767      0.99987     3.33290    0.00490     4.33767
      N    8   -0.32790      0.99967     2.81940    0.00883     3.82790
      C    9   -0.08798      0.99962     2.07759    0.01078     3.08798
      C   10   -0.09152      0.99961     2.07959    0.01231     3.09152
      N   11   -0.31497      0.99966     2.80445    0.01085     3.81497
      C   12    0.21906      0.99954     1.76706    0.01434     2.78094
      C   13   -0.18271      0.99947     2.17588    0.00736     3.18271
      C   14    0.28960      0.99947     1.69477    0.01615     2.71040
      N   15   -0.29931      0.99967     2.78996    0.00968     3.79931
      C   16    0.17214      0.99968     1.80945    0.01873     2.82786
      N   17   -0.27691      0.99968     2.76745    0.00978     3.77691
      O   18   -0.27046      0.99985     3.26151    0.00910     4.27046
      C   19   -0.10128      0.99959     2.09347    0.00822     3.10128
      H   20    0.10133      0.00000     0.39745    0.00123     0.39867
      H   21    0.10512      0.00000     0.39349    0.00140     0.39488
      H   22    0.10496      0.00000     0.39369    0.00135     0.39504
      H   23    0.10156      0.00000     0.39750    0.00094     0.39844
      H   24    0.11441      0.00000     0.38461    0.00098     0.38559
      H   25    0.10294      0.00000     0.39610    0.00096     0.39706
      H   26    0.10279      0.00000     0.39622    0.00099     0.39721
      H   27    0.11442      0.00000     0.38460    0.00098     0.38558
      H   28    0.10138      0.00000     0.39769    0.00094     0.39862
      H   29    0.19964      0.00000     0.29783    0.00253     0.30036
      H   30    0.09058      0.00000     0.40741    0.00200     0.40942
      H   31    0.11171      0.00000     0.38625    0.00204     0.38829
      H   32    0.09746      0.00000     0.40043    0.00210     0.40254
      H   33    0.09926      0.00000     0.39901    0.00173     0.40074
      H   34    0.19318      0.00000     0.30334    0.00348     0.30682
      H   35    0.11303      0.00000     0.38532    0.00165     0.38697
      H   36    0.07978      0.00000     0.41921    0.00101     0.42022
      H   37    0.08989      0.00000     0.40839    0.00172     0.41011
      H   38    0.09029      0.00000     0.40796    0.00174     0.40971
      H   39    0.08850      0.00000     0.41028    0.00122     0.41150
 =======================================================================
   * Total *    0.00000     18.99326    52.76618    0.24056    72.00000

 Normal termination of Gaussian 16 at Mon Dec 14 17:58:53 2020.
