 Gaussian 16, Revision A.03,

 -----------------------------------------------------------
 # opt freq B3LYP/6-31G(d) empiricaldispersion=gd3bj scf=xqc
 -----------------------------------------------------------

 -------------------------------
 CID_106187059_JID_5706_neutraal
 -------------------------------
 Symbolic Z-matrix:
 Charge =  0 Multiplicity = 1

 SCF Done:  E(RB3LYP) =  -747.017776151     A.U. after   14 cycles
 SCF Done:  E(RB3LYP) =  -747.019420522     A.U. after   13 cycles
 SCF Done:  E(RB3LYP) =  -747.022493983     A.U. after   13 cycles
 SCF Done:  E(RB3LYP) =  -747.024290960     A.U. after   12 cycles
 SCF Done:  E(RB3LYP) =  -747.024892130     A.U. after   12 cycles
 SCF Done:  E(RB3LYP) =  -747.025018540     A.U. after   12 cycles
 SCF Done:  E(RB3LYP) =  -747.025191296     A.U. after   11 cycles
 SCF Done:  E(RB3LYP) =  -747.025225709     A.U. after   11 cycles
 SCF Done:  E(RB3LYP) =  -747.025268777     A.U. after   10 cycles
 SCF Done:  E(RB3LYP) =  -747.025307612     A.U. after   11 cycles
 SCF Done:  E(RB3LYP) =  -747.025980119     A.U. after   11 cycles
 SCF Done:  E(RB3LYP) =  -747.026069733     A.U. after   10 cycles
 SCF Done:  E(RB3LYP) =  -747.026110331     A.U. after   10 cycles
 SCF Done:  E(RB3LYP) =  -747.026131406     A.U. after    9 cycles
 SCF Done:  E(RB3LYP) =  -747.026132610     A.U. after    8 cycles
 Optimization completed.
    -- Stationary point found.
 Normal termination of Gaussian 16 at Thu Dec 10 16:41:33 2020.

 --------------------------------------------------------------------
 #N Geom=AllCheck Guess=TCheck SCRF=Check GenChk RB3LYP/6-31G(d) Freq
 --------------------------------------------------------------------

 Structure from the checkpoint file:  "JID_5706.chk"
 -------------------------------
 CID_106187059_JID_5706_neutraal
 -------------------------------
 Charge =  0 Multiplicity = 1

 SCF Done:  E(RB3LYP) =  -747.026132610     A.U. after    1 cycles

  Exact polarizability: 134.433   3.861 110.752   1.131  -4.354 111.479
 Approx polarizability: 174.122  10.644 152.214  -9.028 -20.959 185.714

                      1                      2                      3
                      A                      A                      A
 Frequencies --     37.0663                49.9454                74.6491
 Red. masses --      3.8598                 3.8585                 4.3446
 Frc consts  --      0.0031                 0.0057                 0.0143
 IR Inten    --      0.1441                 0.6607                 0.1613

                      4                      5                      6
                      A                      A                      A
 Frequencies --     88.5066               100.5269               121.1565
 Red. masses --      2.5328                 3.5618                 3.6071
 Frc consts  --      0.0117                 0.0212                 0.0312
 IR Inten    --      6.1569                 3.5380                 3.0174

                      7                      8                      9
                      A                      A                      A
 Frequencies --    161.1641               193.7792               202.5925
 Red. masses --      3.4531                 3.9404                 3.3257
 Frc consts  --      0.0528                 0.0872                 0.0804
 IR Inten    --      4.2471                 0.5661                 3.9739

                     10                     11                     12
                      A                      A                      A
 Frequencies --    225.8926               234.4910               241.9842
 Red. masses --      1.4637                 1.5073                 1.5256
 Frc consts  --      0.0440                 0.0488                 0.0526
 IR Inten    --      0.9604                 2.8458                 1.2527

                     13                     14                     15
                      A                      A                      A
 Frequencies --    269.9635               274.9573               300.7175
 Red. masses --      1.3469                 2.0545                 4.3716
 Frc consts  --      0.0578                 0.0915                 0.2329
 IR Inten    --      0.6656                 0.9154                 2.7302

                     16                     17                     18
                      A                      A                      A
 Frequencies --    315.0286               339.1859               365.4819
 Red. masses --      3.5339                 2.7895                 2.4493
 Frc consts  --      0.2066                 0.1891                 0.1928
 IR Inten    --      5.6492                 2.8526                 1.3788

                     19                     20                     21
                      A                      A                      A
 Frequencies --    384.7954               434.6060               520.5528
 Red. masses --      3.3894                 4.4347                 3.2059
 Frc consts  --      0.2957                 0.4935                 0.5118
 IR Inten    --      1.8779                28.0757                 6.2134

                     22                     23                     24
                      A                      A                      A
 Frequencies --    552.2318               582.6642               606.6124
 Red. masses --      3.5196                 4.6725                 3.6917
 Frc consts  --      0.6324                 0.9346                 0.8004
 IR Inten    --      9.8634                 9.1400                 8.5168

                     25                     26                     27
                      A                      A                      A
 Frequencies --    624.4763               664.6550               686.2724
 Red. masses --      3.1272                 2.4136                 1.5253
 Frc consts  --      0.7185                 0.6282                 0.4233
 IR Inten    --      1.7491                35.5461               138.4834

                     28                     29                     30
                      A                      A                      A
 Frequencies --    713.4183               768.1072               849.7943
 Red. masses --      3.5614                 6.8910                 3.9780
 Frc consts  --      1.0680                 2.3954                 1.6926
 IR Inten    --      7.7008                10.5378                21.1550

                     31                     32                     33
                      A                      A                      A
 Frequencies --    906.9749               932.7623               937.0204
 Red. masses --      2.5583                 1.9585                 1.8890
 Frc consts  --      1.2399                 1.0039                 0.9772
 IR Inten    --     16.2012                 8.8367                 5.7672

                     34                     35                     36
                      A                      A                      A
 Frequencies --    976.4035               984.2993               989.1268
 Red. masses --      1.6088                 1.9377                 2.3695
 Frc consts  --      0.9037                 1.1061                 1.3659
 IR Inten    --      0.5976                 2.2892                35.1404

                     37                     38                     39
                      A                      A                      A
 Frequencies --   1013.2768              1024.2498              1052.2822
 Red. masses --      3.3271                 2.1971                 1.3977
 Frc consts  --      2.0127                 1.3580                 0.9118
 IR Inten    --      3.9802                 3.5395                 0.7084

                     40                     41                     42
                      A                      A                      A
 Frequencies --   1118.1232              1138.2804              1144.5848
 Red. masses --      3.0104                 2.3440                 1.9396
 Frc consts  --      2.2175                 1.7894                 1.4971
 IR Inten    --    136.9943                 6.1736                17.2291

                     43                     44                     45
                      A                      A                      A
 Frequencies --   1148.6881              1172.4937              1190.8417
 Red. masses --      2.6895                 4.7428                 1.6457
 Frc consts  --      2.0909                 3.8416                 1.3750
 IR Inten    --     13.7874               134.7613                26.5537

                     46                     47                     48
                      A                      A                      A
 Frequencies --   1203.8192              1236.0553              1245.7993
 Red. masses --      1.9129                 1.6326                 1.8036
 Frc consts  --      1.6333                 1.4696                 1.6492
 IR Inten    --     16.3148                24.5042                 6.9229

                     49                     50                     51
                      A                      A                      A
 Frequencies --   1262.9009              1273.4565              1278.2121
 Red. masses --      2.1664                 1.4303                 1.6086
 Frc consts  --      2.0358                 1.3666                 1.5485
 IR Inten    --     10.2283                22.7137                 4.4031

                     52                     53                     54
                      A                      A                      A
 Frequencies --   1289.0332              1330.0869              1343.0419
 Red. masses --      1.4944                 1.3988                 2.3021
 Frc consts  --      1.4630                 1.4580                 2.4466
 IR Inten    --     71.1125                13.5910                20.4559

                     55                     56                     57
                      A                      A                      A
 Frequencies --   1397.7305              1411.8103              1426.3847
 Red. masses --      3.5131                 1.2960                 1.2235
 Frc consts  --      4.0437                 1.5220                 1.4667
 IR Inten    --    188.5059                11.7850                 3.4178

                     58                     59                     60
                      A                      A                      A
 Frequencies --   1443.5045              1449.2090              1454.4776
 Red. masses --      1.3101                 1.3988                 1.5592
 Frc consts  --      1.6083                 1.7309                 1.9434
 IR Inten    --     31.6291                13.1956                65.0887

                     61                     62                     63
                      A                      A                      A
 Frequencies --   1493.2583              1495.5585              1503.4802
 Red. masses --      1.0904                 1.1920                 1.1633
 Frc consts  --      1.4325                 1.5709                 1.5493
 IR Inten    --      7.4214               122.1571                 2.9339

                     64                     65                     66
                      A                      A                      A
 Frequencies --   1513.2131              1515.0566              1521.8148
 Red. masses --      1.0493                 1.0491                 1.0486
 Frc consts  --      1.4157                 1.4188                 1.4308
 IR Inten    --      0.4823                 5.0949                 4.5266

                     67                     68                     69
                      A                      A                      A
 Frequencies --   1528.8309              1531.0770              1533.0838
 Red. masses --      1.0829                 1.0576                 1.0676
 Frc consts  --      1.4912                 1.4607                 1.4784
 IR Inten    --      4.2120                 7.7175                 5.9454

                     70                     71                     72
                      A                      A                      A
 Frequencies --   1541.2432              1552.1566              1779.6207
 Red. masses --      1.0577                 1.0850                11.4705
 Frc consts  --      1.4804                 1.5401                21.4036
 IR Inten    --     12.4878                 4.0941               506.9593

                     73                     74                     75
                      A                      A                      A
 Frequencies --   1862.2677              2994.5761              2996.4634
 Red. masses --     12.0898                 1.0397                 1.0707
 Frc consts  --     24.7032                 5.4935                 5.6640
 IR Inten    --     59.2477                71.9952                46.7222

                     76                     77                     78
                      A                      A                      A
 Frequencies --   3009.9921              3042.3514              3053.7103
 Red. masses --      1.0630                 1.1050                 1.0347
 Frc consts  --      5.6742                 6.0261                 5.6849
 IR Inten    --     57.7375                63.0983                21.3901

                     79                     80                     81
                      A                      A                      A
 Frequencies --   3056.7947              3068.8329              3073.9916
 Red. masses --      1.0362                 1.0960                 1.0647
 Frc consts  --      5.7044                 6.0814                 5.9278
 IR Inten    --     17.9232                15.8285                 7.7679

                     82                     83                     84
                      A                      A                      A
 Frequencies --   3092.1966              3112.1441              3120.4199
 Red. masses --      1.0926                 1.0855                 1.1030
 Frc consts  --      6.1554                 6.1947                 6.3280
 IR Inten    --     32.6701                19.6994                18.4860

                     85                     86                     87
                      A                      A                      A
 Frequencies --   3126.1661              3128.0559              3140.3261
 Red. masses --      1.0996                 1.1035                 1.0981
 Frc consts  --      6.3317                 6.3618                 6.3806
 IR Inten    --      6.6635                21.2709                21.3117

                     88                     89                     90
                      A                      A                      A
 Frequencies --   3140.4220              3144.3566              3594.5127
 Red. masses --      1.1021                 1.1017                 1.0657
 Frc consts  --      6.4039                 6.4179                 8.1128
 IR Inten    --      9.0046                21.4795               241.6931

 - Thermochemistry -
 -------------------
 Temperature   298.150 Kelvin.  Pressure   1.00000 Atm.
 Atom     1 has atomic number  6 and mass  12.00000

 Molecular mass:   215.11576 amu.
 Principal axes and moments of inertia in atomic units:
                           1         2         3
     Eigenvalues --  2274.763973657.821444423.92607
           X            0.99945  -0.03088   0.01221
           Y            0.03011   0.99779   0.05926
           Z           -0.01401  -0.05886   0.99817
 This molecule is an asymmetric top.
 Rotational symmetry number  1.
 Warning -- assumption of classical behavior for rotation
           may cause significant error
 Rotational temperatures (Kelvin)      0.03808     0.02368     0.01958
 Rotational constants (GHZ):           0.79338     0.49339     0.40795
 Zero-point vibrational energy     717916.0 (Joules/Mol)
                                  171.58604 (Kcal/Mol)
 Warning -- explicit consideration of  24 degrees of freedom as
           vibrations may cause significant error
 Vibrational temperatures:     53.33    71.86   107.40   127.34   144.64
          (Kelvin)            174.32   231.88   278.81   291.49   325.01
                              337.38   348.16   388.42   395.60   432.67
                              453.26   488.01   525.85   553.63   625.30
                              748.96   794.54   838.32   872.78   898.48
                              956.29   987.39  1026.45  1105.14  1222.66
                             1304.93  1342.04  1348.16  1404.83  1416.19
                             1423.13  1457.88  1473.67  1514.00  1608.73
                             1637.73  1646.80  1652.71  1686.96  1713.36
                             1732.03  1778.41  1792.43  1817.03  1832.22
                             1839.06  1854.63  1913.70  1932.34  2011.02
                             2031.28  2052.25  2076.88  2085.09  2092.67
                             2148.47  2151.78  2163.17  2177.18  2179.83
                             2189.55  2199.65  2202.88  2205.77  2217.51
                             2233.21  2560.48  2679.39  4308.53  4311.24
                             4330.71  4377.27  4393.61  4398.05  4415.37
                             4422.79  4448.98  4477.68  4489.59  4497.86
                             4500.57  4518.23  4518.37  4524.03  5171.70

 Zero-point correction=                           0.273440 (Hartree/Particle)
 Thermal correction to Energy=                    0.289339
 Thermal correction to Enthalpy=                  0.290283
 Thermal correction to Gibbs Free Energy=         0.230180
 Sum of electronic and zero-point Energies=           -746.752693
 Sum of electronic and thermal Energies=              -746.736794
 Sum of electronic and thermal Enthalpies=            -746.735849
 Sum of electronic and thermal Free Energies=         -746.795953

                     E (Thermal)             CV                S
                      KCal/Mol        Cal/Mol-Kelvin    Cal/Mol-Kelvin
 Total                  181.563             58.622            126.498
 Electronic               0.000              0.000              0.000
 Translational            0.889              2.981             42.001
 Rotational               0.889              2.981             31.976
 Vibrational            179.786             52.661             52.521
 Vibration     1          0.594              1.982              5.410
 Vibration     2          0.595              1.978              4.820
 Vibration     3          0.599              1.966              4.027
 Vibration     4          0.601              1.957              3.693
 Vibration     5          0.604              1.949              3.444
 Vibration     6          0.609              1.932              3.082
 Vibration     7          0.622              1.890              2.536
 Vibration     8          0.635              1.849              2.191
 Vibration     9          0.639              1.836              2.109
 Vibration    10          0.650              1.802              1.911
 Vibration    11          0.654              1.788              1.844
 Vibration    12          0.658              1.776              1.788
 Vibration    13          0.674              1.728              1.596
 Vibration    14          0.677              1.720              1.565
 Vibration    15          0.693              1.672              1.413
 Vibration    16          0.702              1.645              1.336
 Vibration    17          0.719              1.597              1.216
 Vibration    18          0.739              1.543              1.099
 Vibration    19          0.754              1.503              1.020
 Vibration    20          0.795              1.395              0.844
 Vibration    21          0.876              1.204              0.609
 Vibration    22          0.908              1.135              0.540
 Vibration    23          0.939              1.069              0.480
 Vibration    24          0.965              1.018              0.438

                           ! Non-Optimized Parameters !
 Normal termination of Gaussian 16 at Thu Dec 10 16:54:02 2020.

 ----------------------------------------------------------------------
 # B3LYP/6-311++G(d,p) empiricaldispersion=gd3bj scf=xqc pop=npa geom=c
 heck
 ----------------------------------------------------------------------

 ---------------------------------------
 CID_106187059_JID_5706_Energie_neutraal
 ---------------------------------------
 Structure from the checkpoint file:  "JID_5706.chk"
 Charge =  0 Multiplicity = 1

 SCF Done:  E(RB3LYP) =  -747.252081326     A.U. after   14 cycles
 Normal termination of Gaussian 16 at Thu Dec 10 17:03:41 2020.

 ----------------------------------------------------------------------
 # B3LYP/6-311++G(d,p) empiricaldispersion=gd3bj scf=xqc pop=npa geom=c
 heck
 ----------------------------------------------------------------------

 -------------------------------------
 CID_106187059_JID_5706_Energie_kation
 -------------------------------------
 Structure from the checkpoint file:  "JID_5706.chk"
 Charge =  1 Multiplicity = 2

 SCF Done:  E(UB3LYP) =  -746.919282601     A.U. after   26 cycles
 Normal termination of Gaussian 16 at Thu Dec 10 17:27:29 2020.
 Gaussian 16:  ES64L-G16RevA.03 25-Dec-2016

 ----------------------------------------------------------------------
 # B3LYP/6-311++G(d,p) empiricaldispersion=gd3bj scf=xqc pop=npa geom=c
 heck
 ----------------------------------------------------------------------

 ------------------------------------
 CID_106187059_JID_5706_Energie_anion
 ------------------------------------
 Structure from the checkpoint file:  "JID_5706.chk"
 Charge = -1 Multiplicity = 2

                         Standard orientation:
 ---------------------------------------------------------------------
 Center     Atomic      Atomic             Coordinates (Angstroms)
 Number     Number       Type             X           Y           Z
 ---------------------------------------------------------------------
      1          6           0        2.481406    1.335118    0.668951
      2          6           0        2.274214   -0.095776    0.129914
      3          6           0        1.686869   -1.017583    1.216366
      4          6           0        0.196460   -1.078587    0.932983
      5          8           0       -0.656264   -1.572023    1.658475
      6          7           0       -0.033044   -0.513148   -0.305467
      7          6           0        1.138320   -0.003933   -0.892863
      8          8           0        1.198108    0.458263   -2.010057
      9          6           0       -1.351770   -0.231040   -0.891709
     10          6           0       -2.253985   -1.471085   -1.021805
     11          8           0       -2.971712   -1.798981    0.145709
     12          6           0       -2.027982    0.888716   -0.101316
     13          8           0       -1.129743    1.978820   -0.022829
     14          6           0       -1.657951    3.059142    0.717497
     15          6           0        3.552806   -0.628503   -0.520787
     16          1           0        2.795188    2.001838   -0.139382
     17          1           0        3.253191    1.334426    1.446461
     18          1           0        1.551828    1.730405    1.091967
     19          1           0        2.086820   -2.036647    1.156100
     20          1           0        1.851438   -0.665076    2.238279
     21          1           0       -1.113286    0.135614   -1.894084
     22          1           0       -3.003180   -1.257867   -1.791789
     23          1           0       -1.638323   -2.309318   -1.387495
     24          1           0       -2.307990   -1.901629    0.857568
     25          1           0       -2.958631    1.175387   -0.616586
     26          1           0       -2.300995    0.535215    0.901176
     27          1           0       -2.568147    3.464663    0.248862
     28          1           0       -1.903092    2.761355    1.749231
     29          1           0       -0.892165    3.838334    0.740517
     30          1           0        3.835731    0.003228   -1.367361
     31          1           0        4.375323   -0.635176    0.202578
     32          1           0        3.414174   -1.650166   -0.891534
 ---------------------------------------------------------------------

 SCF Done:  E(UB3LYP) =  -747.242450446     A.U. after   33 cycles
 SCF Done:  E(UB3LYP) =  -747.242450446     a.u. after    1 cycles

 The electronic state is 2-A.
 Alpha  occ. eigenvalues --  -19.03431 -19.01264 -19.00381 -18.99869 -14.25911
 Alpha  occ. eigenvalues --  -10.17413 -10.16864 -10.12662 -10.12427 -10.12178
 Alpha  occ. eigenvalues --  -10.11864 -10.09755 -10.07940 -10.06694 -10.06133
 Alpha  occ. eigenvalues --   -0.96431  -0.94735  -0.94273  -0.91951  -0.85197
 Alpha  occ. eigenvalues --   -0.73893  -0.68409  -0.62400  -0.61295  -0.59373
 Alpha  occ. eigenvalues --   -0.55690  -0.54634  -0.53513  -0.47663  -0.43454
 Alpha  occ. eigenvalues --   -0.42111  -0.40237  -0.39649  -0.38736  -0.37415
 Alpha  occ. eigenvalues --   -0.36585  -0.34975  -0.34491  -0.34240  -0.33837
 Alpha  occ. eigenvalues --   -0.31946  -0.31785  -0.31445  -0.30660  -0.28703
 Alpha  occ. eigenvalues --   -0.28160  -0.27328  -0.26943  -0.26505  -0.25391
 Alpha  occ. eigenvalues --   -0.24428  -0.23649  -0.23140  -0.18516  -0.18089
 Alpha  occ. eigenvalues --   -0.17401  -0.16557  -0.15538   0.04450
 Alpha virt. eigenvalues --    0.06130   0.06944   0.07723   0.08808   0.08948
 Alpha virt. eigenvalues --    0.09189   0.10146   0.10558   0.11118   0.11253
 Alpha virt. eigenvalues --    0.11668   0.11939   0.12708   0.13152   0.13970

  Beta  occ. eigenvalues --  -19.03426 -19.01262 -19.00259 -18.99743 -14.25967
  Beta  occ. eigenvalues --  -10.17220 -10.16739 -10.12656 -10.12420 -10.12174
  Beta  occ. eigenvalues --  -10.11827 -10.09763 -10.07929 -10.06675 -10.06084
  Beta  occ. eigenvalues --   -0.96239  -0.94700  -0.94038  -0.91930  -0.85126
  Beta  occ. eigenvalues --   -0.73852  -0.68376  -0.62302  -0.61239  -0.59301
  Beta  occ. eigenvalues --   -0.55630  -0.54401  -0.53437  -0.47598  -0.43382
  Beta  occ. eigenvalues --   -0.42034  -0.40198  -0.39573  -0.38593  -0.37214
  Beta  occ. eigenvalues --   -0.36509  -0.34885  -0.34397  -0.34161  -0.33780
  Beta  occ. eigenvalues --   -0.31810  -0.31582  -0.31315  -0.30476  -0.28571
  Beta  occ. eigenvalues --   -0.28098  -0.27184  -0.26774  -0.26285  -0.25355
  Beta  occ. eigenvalues --   -0.24386  -0.23509  -0.23006  -0.18467  -0.17913
  Beta  occ. eigenvalues --   -0.17319  -0.16475  -0.15439
  Beta virt. eigenvalues --    0.06628   0.07389   0.07682   0.08508   0.09259
  Beta virt. eigenvalues --    0.09454   0.09692   0.10607   0.10846   0.11115
  Beta virt. eigenvalues --    0.11630   0.11954   0.12386   0.12841   0.13417

 Mulliken charges and spin densities:
               1          2
     1  C    0.132371  -0.688832
     2  C   -1.146689   2.174902
     3  C    0.662135  -1.536076
     4  C   -0.118490   0.402438
     5  O   -0.387675   0.073824
     6  N    0.321413   0.003680
     7  C    0.351019  -0.840033
     8  O   -0.296945   0.045534
     9  C   -0.079786   0.109713
    10  C   -0.086928  -0.302468
    11  O   -0.250805   0.002808
    12  C   -0.613298   0.054652
    13  O   -0.164560   0.036515
    14  C    0.721695  -0.986370
    15  C    0.732836  -1.295164
    16  H    0.027526   0.144749
    17  H   -0.018523   0.169690
    18  H    0.049863   0.122007
    19  H   -0.545812   0.777634
    20  H    0.179204   0.022491
    21  H    0.183997   0.044899
    22  H    0.056872   0.102747
    23  H    0.062264   0.104012
    24  H    0.212229   0.058908
    25  H   -0.008810   0.160594
    26  H    0.291059  -0.097266
    27  H   -0.324282   0.445074
    28  H   -0.183319   0.316965
    29  H   -0.135227   0.276234
    30  H    0.047393   0.110333
    31  H   -0.388518   0.546113
    32  H   -0.282208   0.439693
 Sum of Mulliken charges =  -1.00000   1.00000

 Dipole moment (field-independent basis, Debye):
    X=             -2.2014    Y=              0.7719    Z=             -0.6766  Tot=              2.4289
 Quadrupole moment (field-independent basis, Debye-Ang):
   XX=           -152.5690   YY=           -142.2427   ZZ=           -120.9110
   XY=              9.1240   XZ=              4.7594   YZ=              4.9683

 Summary of Natural Population Analysis:

                                       Natural Population
                Natural  -----------------------------------------------
    Atom  No    Charge         Core      Valence    Rydberg      Total
 -----------------------------------------------------------------------
      C    1   -0.27641      0.99962     2.27102    0.00577     3.27641
      C    2   -0.08335      0.99955     2.07129    0.01251     3.08335
      C    3   -0.22837      0.99957     2.21911    0.00969     3.22837
      C    4    0.38849      0.99965     1.58900    0.02286     2.61151
      O    5   -0.31835      0.99986     3.31268    0.00582     4.31835
      N    6   -0.27216      0.99958     2.76043    0.01216     3.77216
      C    7    0.38978      0.99960     1.58502    0.02561     2.61022
      O    8   -0.29164      0.99987     3.28602    0.00575     4.29164
      C    9   -0.03308      0.99957     2.02064    0.01287     3.03308
      C   10   -0.01011      0.99958     1.99864    0.01189     3.01011
      O   11   -0.38387      0.99990     3.37660    0.00737     4.38387
      C   12   -0.01387      0.99955     2.00138    0.01295     3.01387
      O   13   -0.29761      0.99988     3.28832    0.00940     4.29761
      C   14   -0.09671      0.99962     2.08759    0.00950     3.09671
      C   15   -0.28059      0.99963     2.27331    0.00765     3.28059
      H   16    0.10543      0.00000     0.39356    0.00101     0.39457
      H   17    0.09755      0.00000     0.40154    0.00091     0.40245
      H   18    0.10591      0.00000     0.39249    0.00160     0.39409
      H   19    0.12099      0.00000     0.37543    0.00358     0.37901
      H   20    0.11216      0.00000     0.38681    0.00104     0.38784
      H   21    0.11844      0.00000     0.37935    0.00220     0.38156
      H   22    0.08598      0.00000     0.41284    0.00118     0.41402
      H   23    0.08179      0.00000     0.41685    0.00136     0.41821
      H   24    0.24503      0.00000     0.25152    0.00346     0.25497
      H   25    0.08353      0.00000     0.41528    0.00119     0.41647
      H   26    0.09145      0.00000     0.40711    0.00144     0.40855
      H   27    0.07826      0.00000     0.41993    0.00181     0.42174
      H   28    0.07886      0.00000     0.41981    0.00133     0.42114
      H   29    0.09183      0.00000     0.40698    0.00120     0.40817
      H   30    0.10630      0.00000     0.39259    0.00110     0.39370
      H   31    0.10079      0.00000     0.39778    0.00143     0.39921
      H   32    0.10357      0.00000     0.39495    0.00148     0.39643
 =======================================================================
   * Total *    0.00000     14.99501    42.80586    0.19912    58.00000

 Normal termination of Gaussian 16 at Thu Dec 10 17:45:38 2020.
