 Gaussian 16, Revision A.03,

 -----------------------------------------------------------
 # opt freq B3LYP/6-31G(d) empiricaldispersion=gd3bj scf=xqc
 -----------------------------------------------------------

 ------------------------------
 CID_83949468_JID_5681_neutraal
 ------------------------------
 Symbolic Z-matrix:
 Charge =  0 Multiplicity = 1

 SCF Done:  E(RB3LYP) =  -667.724524634     A.U. after   15 cycles
 SCF Done:  E(RB3LYP) =  -667.729521024     A.U. after   12 cycles
 SCF Done:  E(RB3LYP) =  -667.730029924     A.U. after   11 cycles
 SCF Done:  E(RB3LYP) =  -667.730214593     A.U. after   11 cycles
 SCF Done:  E(RB3LYP) =  -667.730370393     A.U. after   11 cycles
 SCF Done:  E(RB3LYP) =  -667.730400348     A.U. after   11 cycles
 SCF Done:  E(RB3LYP) =  -667.730490522     A.U. after   10 cycles
 SCF Done:  E(RB3LYP) =  -667.730560613     A.U. after   11 cycles
 SCF Done:  E(RB3LYP) =  -667.730563857     A.U. after   10 cycles
 SCF Done:  E(RB3LYP) =  -667.730564311     A.U. after    8 cycles
 SCF Done:  E(RB3LYP) =  -667.730564699     A.U. after    7 cycles
 SCF Done:  E(RB3LYP) =  -667.730564926     A.U. after    8 cycles
 Optimization completed.
    -- Stationary point found.
 Normal termination of Gaussian 16 at Thu Dec 10 16:31:36 2020.

 --------------------------------------------------------------------
 #N Geom=AllCheck Guess=TCheck SCRF=Check GenChk RB3LYP/6-31G(d) Freq
 --------------------------------------------------------------------

 Structure from the checkpoint file:  "JID_5681.chk"
 ------------------------------
 CID_83949468_JID_5681_neutraal
 ------------------------------
 Charge =  0 Multiplicity = 1

 SCF Done:  E(RB3LYP) =  -667.730564926     A.U. after    1 cycles

  Exact polarizability: 197.373   3.354 129.723   3.005  -6.275  85.899
 Approx polarizability: 267.260   2.583 221.382   9.667 -18.701 125.916

                      1                      2                      3
                      A                      A                      A
 Frequencies --     24.0135                54.7965                58.7562
 Red. masses --      3.5545                 3.3885                 3.6898
 Frc consts  --      0.0012                 0.0060                 0.0075
 IR Inten    --      0.2742                 0.9146                 1.0936

                      4                      5                      6
                      A                      A                      A
 Frequencies --     87.4007               126.4841               145.6543
 Red. masses --      2.1510                 3.1316                 2.8982
 Frc consts  --      0.0097                 0.0295                 0.0362
 IR Inten    --      0.8080                 0.3401                 6.5628

                      7                      8                      9
                      A                      A                      A
 Frequencies --    192.2883               233.8334               237.6897
 Red. masses --      3.6763                 2.0568                 1.4156
 Frc consts  --      0.0801                 0.0663                 0.0471
 IR Inten    --      0.4869                12.6007                 2.7130

                     10                     11                     12
                      A                      A                      A
 Frequencies --    257.8695               275.0819               283.8179
 Red. masses --      2.0180                 1.3103                 2.0563
 Frc consts  --      0.0791                 0.0584                 0.0976
 IR Inten    --     18.0927                46.5381                17.2319

                     13                     14                     15
                      A                      A                      A
 Frequencies --    309.7128               351.0968               409.0259
 Red. masses --      3.7709                 2.5997                 4.1085
 Frc consts  --      0.2131                 0.1888                 0.4050
 IR Inten    --      4.5750                18.8627                 7.0989

                     16                     17                     18
                      A                      A                      A
 Frequencies --    420.9907               457.4846               474.6903
 Red. masses --      3.6845                 3.6635                 3.8591
 Frc consts  --      0.3847                 0.4517                 0.5123
 IR Inten    --     13.9051                 2.3167                 3.2016

                     19                     20                     21
                      A                      A                      A
 Frequencies --    494.1276               554.4227               623.8255
 Red. masses --      4.1536                 4.5205                 4.6123
 Frc consts  --      0.5975                 0.8187                 1.0575
 IR Inten    --      5.5487                 9.0489                 1.7391

                     22                     23                     24
                      A                      A                      A
 Frequencies --    635.2904               693.9307               738.6595
 Red. masses --      4.4282                 2.8947                 4.9930
 Frc consts  --      1.0530                 0.8213                 1.6051
 IR Inten    --      8.5161                 8.6827                 0.7559

                     25                     26                     27
                      A                      A                      A
 Frequencies --    766.8273               780.4383               816.8936
 Red. masses --      5.1712                 3.9999                 1.4509
 Frc consts  --      1.7916                 1.4354                 0.5705
 IR Inten    --      2.0827                 2.0870                34.5622

                     28                     29                     30
                      A                      A                      A
 Frequencies --    826.1387               852.4150               875.0014
 Red. masses --      1.7579                 2.5676                 1.2943
 Frc consts  --      0.7069                 1.0992                 0.5839
 IR Inten    --     20.4521                17.7046                92.0175

                     31                     32                     33
                      A                      A                      A
 Frequencies --    890.9920               927.9999               941.4766
 Red. masses --      2.2124                 1.3476                 1.3153
 Frc consts  --      1.0348                 0.6838                 0.6869
 IR Inten    --      8.1560                14.9573                 2.5215

                     34                     35                     36
                      A                      A                      A
 Frequencies --    951.6029               963.7980               980.2098
 Red. masses --      3.7302                 2.3402                 2.7813
 Frc consts  --      1.9902                 1.2808                 1.5745
 IR Inten    --     71.3066                56.8662               163.3063

                     37                     38                     39
                      A                      A                      A
 Frequencies --   1021.0074              1050.1631              1066.9208
 Red. masses --      1.7932                 2.6581                 1.3405
 Frc consts  --      1.1014                 1.7271                 0.8991
 IR Inten    --     14.3222                 2.5281                 5.5086

                     40                     41                     42
                      A                      A                      A
 Frequencies --   1068.1155              1122.0727              1147.8184
 Red. masses --      2.5720                 1.8148                 2.0027
 Frc consts  --      1.7289                 1.3462                 1.5546
 IR Inten    --      4.3210                72.1419                 6.6296

                     43                     44                     45
                      A                      A                      A
 Frequencies --   1153.3932              1162.5663              1177.3789
 Red. masses --      2.4853                 2.2200                 1.8055
 Frc consts  --      1.9480                 1.7678                 1.4746
 IR Inten    --      7.4044                 0.3669                49.6309

                     46                     47                     48
                      A                      A                      A
 Frequencies --   1192.7520              1239.0805              1265.9722
 Red. masses --      1.2427                 2.2175                 1.7661
 Frc consts  --      1.0416                 2.0059                 1.6677
 IR Inten    --     10.9839                 4.9668                 8.4767

                     49                     50                     51
                      A                      A                      A
 Frequencies --   1287.0698              1291.9406              1303.0930
 Red. masses --      1.8864                 2.8673                 1.3399
 Frc consts  --      1.8411                 2.8198                 1.3405
 IR Inten    --      1.2295                58.1449                 6.9537

                     52                     53                     54
                      A                      A                      A
 Frequencies --   1334.6068              1375.6913              1384.6724
 Red. masses --      1.3737                 1.7516                 1.4380
 Frc consts  --      1.4416                 1.9531                 1.6244
 IR Inten    --      2.9641                10.4020                 2.2101

                     55                     56                     57
                      A                      A                      A
 Frequencies --   1397.3481              1428.4077              1445.8628
 Red. masses --      2.4066                 1.4642                 1.6868
 Frc consts  --      2.7686                 1.7602                 2.0776
 IR Inten    --      5.5660                 4.1904                63.4312

                     58                     59                     60
                      A                      A                      A
 Frequencies --   1448.6242              1480.4511              1516.0263
 Red. masses --      1.2440                 3.1625                 1.1226
 Frc consts  --      1.5381                 4.0839                 1.5201
 IR Inten    --      1.9471                26.4045                 7.7482

                     61                     62                     63
                      A                      A                      A
 Frequencies --   1520.0068              1531.3012              1535.1365
 Red. masses --      2.2973                 1.0463                 1.0617
 Frc consts  --      3.1273                 1.4455                 1.4742
 IR Inten    --     14.5991                 2.4993                 6.1917

                     64                     65                     66
                      A                      A                      A
 Frequencies --   1538.1307              1617.4512              1662.0634
 Red. masses --      1.1884                 9.1107                 7.5120
 Frc consts  --      1.6566                14.0431                12.2265
 IR Inten    --      0.2699                55.0901                 0.4204

                     67                     68                     69
                      A                      A                      A
 Frequencies --   1677.9679              1692.8002              1709.5456
 Red. masses --      5.3790                 1.1549                 1.0989
 Frc consts  --      8.9232                 1.9499                 1.8922
 IR Inten    --      4.7832                29.8589                30.4213

                     70                     71                     72
                      A                      A                      A
 Frequencies --   2961.1358              3039.5813              3044.6641
 Red. masses --      1.0733                 1.0877                 1.0667
 Frc consts  --      5.5448                 5.9209                 5.8263
 IR Inten    --     78.5603                34.6871                13.5033

                     73                     74                     75
                      A                      A                      A
 Frequencies --   3053.5548              3064.9939              3097.6963
 Red. masses --      1.0374                 1.0808                 1.0992
 Frc consts  --      5.6992                 5.9822                 6.2147
 IR Inten    --     19.7012                25.3839                10.6401

                     76                     77                     78
                      A                      A                      A
 Frequencies --   3119.0077              3130.6506              3185.7974
 Red. masses --      1.1023                 1.1020                 1.0887
 Frc consts  --      6.3179                 6.3634                 6.5104
 IR Inten    --     36.5057                52.2062                12.3261

                     79                     80                     81
                      A                      A                      A
 Frequencies --   3225.1699              3237.9079              3459.1297
 Red. masses --      1.0939                 1.0913                 1.0504
 Frc consts  --      6.7038                 6.7408                 7.4052
 IR Inten    --      7.7579                 0.1847                 0.4500

                     82                     83                     84
                      A                      A                      A
 Frequencies --   3469.9029              3537.9021              3558.9055
 Red. masses --      1.0497                 1.0910                 1.0930
 Frc consts  --      7.4464                 8.0454                 8.1562
 IR Inten    --      1.8373                 0.8387                 0.7487

 - Thermochemistry -
 -------------------
 Temperature   298.150 Kelvin.  Pressure   1.00000 Atm.
 Atom     1 has atomic number  6 and mass  12.00000

 Molecular mass:   205.12151 amu.
 Principal axes and moments of inertia in atomic units:
                           1         2         3
     Eigenvalues --  1312.340006105.086286632.49399
           X            0.99998  -0.00465  -0.00476
           Y            0.00474   0.99980   0.01940
           Z            0.00467  -0.01942   0.99980
 This molecule is an asymmetric top.
 Rotational symmetry number  1.
 Warning -- assumption of classical behavior for rotation
           may cause significant error
 Rotational temperatures (Kelvin)      0.06600     0.01419     0.01306
 Rotational constants (GHZ):           1.37521     0.29561     0.27211
 Zero-point vibrational energy     668390.6 (Joules/Mol)
                                  159.74918 (Kcal/Mol)
 Warning -- explicit consideration of  20 degrees of freedom as
           vibrations may cause significant error
 Vibrational temperatures:     34.55    78.84    84.54   125.75   181.98
          (Kelvin)            209.56   276.66   336.43   341.98   371.02
                              395.78   408.35   445.61   505.15   588.50
                              605.71   658.22   682.97   710.94   797.69
                              897.55   914.04   998.41  1062.77  1103.29
                             1122.88  1175.33  1188.63  1226.44  1258.93
                             1281.94  1335.18  1354.57  1369.14  1386.69
                             1410.30  1469.00  1510.95  1535.06  1536.78
                             1614.41  1651.45  1659.48  1672.67  1693.99
                             1716.10  1782.76  1821.45  1851.81  1858.81
                             1874.86  1920.20  1979.31  1992.23  2010.47
                             2055.16  2080.27  2084.25  2130.04  2181.22
                             2186.95  2203.20  2208.72  2213.03  2327.15
                             2391.34  2414.22  2435.56  2459.65  4260.41
                             4373.28  4380.59  4393.38  4409.84  4456.89
                             4487.56  4504.31  4583.65  4640.30  4658.63
                             4976.92  4992.42  5090.25  5120.47

 Zero-point correction=                           0.254577 (Hartree/Particle)
 Thermal correction to Energy=                    0.268879
 Thermal correction to Enthalpy=                  0.269824
 Thermal correction to Gibbs Free Energy=         0.212356
 Sum of electronic and zero-point Energies=           -667.475988
 Sum of electronic and thermal Energies=              -667.461686
 Sum of electronic and thermal Enthalpies=            -667.460741
 Sum of electronic and thermal Free Energies=         -667.518209

                     E (Thermal)             CV                S
                      KCal/Mol        Cal/Mol-Kelvin    Cal/Mol-Kelvin
 Total                  168.724             54.231            120.951
 Electronic               0.000              0.000              0.000
 Translational            0.889              2.981             41.860
 Rotational               0.889              2.981             32.341
 Vibrational            166.947             48.269             46.751
 Vibration     1          0.593              1.985              6.271
 Vibration     2          0.596              1.976              4.636
 Vibration     3          0.596              1.974              4.499
 Vibration     4          0.601              1.958              3.717
 Vibration     5          0.611              1.927              2.999
 Vibration     6          0.617              1.907              2.728
 Vibration     7          0.634              1.851              2.206
 Vibration     8          0.654              1.789              1.849
 Vibration     9          0.656              1.783              1.820
 Vibration    10          0.667              1.749              1.676
 Vibration    11          0.677              1.719              1.564
 Vibration    12          0.682              1.704              1.511
 Vibration    13          0.699              1.655              1.364
 Vibration    14          0.728              1.573              1.161
 Vibration    15          0.773              1.451              0.930
 Vibration    16          0.783              1.425              0.889
 Vibration    17          0.816              1.344              0.773
 Vibration    18          0.831              1.306              0.725
 Vibration    19          0.850              1.263              0.673
 Vibration    20          0.910              1.130              0.535

                           ! Non-Optimized Parameters !
 Normal termination of Gaussian 16 at Thu Dec 10 16:40:49 2020.

 ----------------------------------------------------------------------
 # B3LYP/6-311++G(d,p) empiricaldispersion=gd3bj scf=xqc pop=npa geom=c
 heck
 ----------------------------------------------------------------------

 --------------------------------------
 CID_83949468_JID_5681_Energie_neutraal
 --------------------------------------
 Structure from the checkpoint file:  "JID_5681.chk"
 Charge =  0 Multiplicity = 1

 SCF Done:  E(RB3LYP) =  -667.922704239     A.U. after   16 cycles
 Normal termination of Gaussian 16 at Thu Dec 10 16:45:54 2020.

 ----------------------------------------------------------------------
 # B3LYP/6-311++G(d,p) empiricaldispersion=gd3bj scf=xqc pop=npa geom=c
 heck
 ----------------------------------------------------------------------

 ------------------------------------
 CID_83949468_JID_5681_Energie_kation
 ------------------------------------
 Structure from the checkpoint file:  "JID_5681.chk"
 Charge =  1 Multiplicity = 2

 SCF Done:  E(UB3LYP) =  -667.623348226     A.U. after   28 cycles
 Normal termination of Gaussian 16 at Thu Dec 10 16:58:26 2020.
 Gaussian 16:  ES64L-G16RevA.03 25-Dec-2016

 ----------------------------------------------------------------------
 # B3LYP/6-311++G(d,p) empiricaldispersion=gd3bj scf=xqc pop=npa geom=c
 heck
 ----------------------------------------------------------------------

 -----------------------------------
 CID_83949468_JID_5681_Energie_anion
 -----------------------------------
 Structure from the checkpoint file:  "JID_5681.chk"
 Charge = -1 Multiplicity = 2

                         Standard orientation:
 ---------------------------------------------------------------------
 Center     Atomic      Atomic             Coordinates (Angstroms)
 Number     Number       Type             X           Y           Z
 ---------------------------------------------------------------------
      1          6           0       -3.493097    1.203084    1.544463
      2          6           0       -3.716171   -0.190033    0.953557
      3          6           0       -3.093732   -0.400502   -0.442174
      4          6           0       -1.602427   -0.197073   -0.402073
      5          7           0       -0.697267   -1.093115   -0.166982
      6          6           0        0.515505   -0.392088   -0.198505
      7          6           0        0.241897    0.956169   -0.468991
      8          8           0       -1.123224    1.083186   -0.601906
      9          6           0        1.221788    1.929833   -0.564146
     10          6           0        2.533116    1.489309   -0.369879
     11          6           0        2.845851    0.140728   -0.105228
     12          6           0        1.830513   -0.817231   -0.014676
     13          6           0        4.297265   -0.270715    0.054080
     14          7           0        4.441068   -1.378851    1.002258
     15          7           0       -3.468539   -1.726922   -0.936256
     16          1           0       -2.431489    1.408950    1.714202
     17          1           0       -4.010243    1.299085    2.504904
     18          1           0       -3.877608    1.983166    0.876901
     19          1           0       -3.303931   -0.953309    1.627040
     20          1           0       -4.786439   -0.399144    0.851163
     21          1           0       -3.511429    0.351702   -1.122631
     22          1           0        0.986444    2.969212   -0.764931
     23          1           0        3.342674    2.212798   -0.422208
     24          1           0        2.071894   -1.850968    0.203509
     25          1           0        4.682050   -0.624226   -0.912811
     26          1           0        4.890247    0.625198    0.309835
     27          1           0        5.415499   -1.670002    1.047540
     28          1           0        4.184653   -1.063170    1.936526
     29          1           0       -3.094589   -1.849802   -1.876875
     30          1           0       -2.981828   -2.421648   -0.368619
 ---------------------------------------------------------------------

 SCF Done:  E(UB3LYP) =  -667.912039180     A.U. after   33 cycles
 SCF Done:  E(UB3LYP) =  -667.912039180     a.u. after    1 cycles

 The electronic state is 2-A.
 Alpha  occ. eigenvalues --  -19.08033 -14.20393 -14.19465 -14.18394 -10.14122
 Alpha  occ. eigenvalues --  -10.11684 -10.11557 -10.08518 -10.08370 -10.07506
 Alpha  occ. eigenvalues --  -10.06598 -10.06415 -10.06376 -10.05928 -10.04610
 Alpha  occ. eigenvalues --   -1.01228  -0.81843  -0.79637  -0.77726  -0.73604
 Alpha  occ. eigenvalues --   -0.68284  -0.64793  -0.63298  -0.58933  -0.55457
 Alpha  occ. eigenvalues --   -0.51901  -0.49866  -0.48098  -0.46881  -0.41652
 Alpha  occ. eigenvalues --   -0.39809  -0.39334  -0.38245  -0.37089  -0.35462
 Alpha  occ. eigenvalues --   -0.35194  -0.34914  -0.32758  -0.32335  -0.30510
 Alpha  occ. eigenvalues --   -0.29958  -0.29111  -0.28340  -0.26830  -0.25587
 Alpha  occ. eigenvalues --   -0.24828  -0.24503  -0.23720  -0.23426  -0.21446
 Alpha  occ. eigenvalues --   -0.18200  -0.16428  -0.14144  -0.12771  -0.12092
 Alpha  occ. eigenvalues --    0.04658
 Alpha virt. eigenvalues --    0.06067   0.07057   0.08120   0.08304   0.08834
 Alpha virt. eigenvalues --    0.09462   0.09528   0.10235   0.11070   0.11431
 Alpha virt. eigenvalues --    0.11613   0.11832   0.12661   0.13064   0.13627

  Beta  occ. eigenvalues --  -19.08004 -14.20373 -14.19439 -14.18355 -10.13891
  Beta  occ. eigenvalues --  -10.11703 -10.11587 -10.08490 -10.08343 -10.07475
  Beta  occ. eigenvalues --  -10.06574 -10.06409 -10.06304 -10.05866 -10.04425
  Beta  occ. eigenvalues --   -1.01120  -0.81719  -0.79558  -0.77644  -0.73454
  Beta  occ. eigenvalues --   -0.68210  -0.64659  -0.63034  -0.58809  -0.55358
  Beta  occ. eigenvalues --   -0.51735  -0.49709  -0.47993  -0.46780  -0.41557
  Beta  occ. eigenvalues --   -0.39717  -0.39229  -0.38172  -0.36854  -0.35321
  Beta  occ. eigenvalues --   -0.35151  -0.34809  -0.32650  -0.32245  -0.30448
  Beta  occ. eigenvalues --   -0.29876  -0.29068  -0.28258  -0.26770  -0.25450
  Beta  occ. eigenvalues --   -0.24762  -0.24396  -0.23608  -0.23149  -0.21037
  Beta  occ. eigenvalues --   -0.18144  -0.16326  -0.13992  -0.12067  -0.11656
  Beta virt. eigenvalues --    0.06776   0.07370   0.07918   0.08411   0.08787
  Beta virt. eigenvalues --    0.09067   0.09696   0.09918   0.10501   0.11394
  Beta virt. eigenvalues --    0.11612   0.11731   0.12024   0.12691   0.13418

 Mulliken charges and spin densities:
               1          2
     1  C    0.157871  -0.805184
     2  C   -0.210286   0.304215
     3  C   -0.244610   0.080753
     4  C   -0.224515  -0.159631
     5  N    0.031317   0.003251
     6  C   -0.074579   0.197478
     7  C    0.338686  -0.029955
     8  O   -0.050802   0.003751
     9  C   -0.301311  -0.144946
    10  C   -0.257732  -0.515982
    11  C   -0.262889   0.972183
    12  C   -0.911488   0.602335
    13  C    1.615559  -2.177190
    14  N   -0.436617   0.099130
    15  N   -0.223822  -0.003958
    16  H    0.149209   0.017439
    17  H   -0.182334   0.320801
    18  H   -0.029005   0.152389
    19  H    0.122677  -0.005774
    20  H   -0.137105   0.320777
    21  H    0.122529   0.097094
    22  H    0.139183  -0.003791
    23  H    0.016415   0.093765
    24  H    0.188306   0.004208
    25  H   -0.037486   0.193336
    26  H   -0.600380   0.773690
    27  H   -0.228450   0.471427
    28  H    0.067985   0.128506
    29  H    0.213820   0.008441
    30  H    0.249854   0.001442
 Sum of Mulliken charges =  -1.00000   1.00000

 Dipole moment (field-independent basis, Debye):
    X=             -5.1020    Y=              1.7520    Z=             -2.4515  Tot=              5.9253
 Quadrupole moment (field-independent basis, Debye-Ang):
   XX=           -202.1784   YY=           -115.5713   ZZ=           -109.2550
   XY=              9.9921   XZ=             -2.5726   YZ=             -1.0464

 Summary of Natural Population Analysis:

                                       Natural Population
                Natural  -----------------------------------------------
    Atom  No    Charge         Core      Valence    Rydberg      Total
 -----------------------------------------------------------------------
      C    1   -0.28884      0.99966     2.28357    0.00560     3.28884
      C    2   -0.18524      0.99962     2.17596    0.00966     3.18524
      C    3   -0.04248      0.99955     2.02983    0.01310     3.04248
      C    4    0.30722      0.99956     1.67128    0.02195     2.69278
      N    5   -0.26038      0.99966     2.75317    0.00756     3.76038
      C    6    0.04537      0.99944     1.94141    0.01377     2.95463
      C    7    0.12362      0.99933     1.86333    0.01371     2.87638
      O    8   -0.24790      0.99985     3.24148    0.00656     4.24790
      C    9   -0.10330      0.99944     2.09491    0.00895     3.10330
      C   10   -0.09574      0.99955     2.08550    0.01068     3.09574
      C   11   -0.03438      0.99953     2.02461    0.01024     3.03438
      C   12   -0.06731      0.99945     2.05858    0.00929     3.06731
      C   13   -0.09127      0.99960     2.07908    0.01259     3.09127
      N   14   -0.42161      0.99978     2.91067    0.01117     3.92161
      N   15   -0.41189      0.99978     2.90416    0.00795     3.91189
      H   16    0.10188      0.00000     0.39714    0.00098     0.39812
      H   17    0.09828      0.00000     0.40083    0.00090     0.40172
      H   18    0.09675      0.00000     0.40214    0.00111     0.40325
      H   19    0.09564      0.00000     0.40330    0.00106     0.40436
      H   20    0.10116      0.00000     0.39719    0.00164     0.39884
      H   21    0.09773      0.00000     0.40041    0.00186     0.40227
      H   22    0.09963      0.00000     0.39898    0.00139     0.40037
      H   23    0.09609      0.00000     0.40273    0.00118     0.40391
      H   24    0.11045      0.00000     0.38760    0.00195     0.38955
      H   25    0.09309      0.00000     0.40562    0.00129     0.40691
      H   26    0.08173      0.00000     0.41589    0.00238     0.41827
      H   27    0.17702      0.00000     0.31931    0.00368     0.32298
      H   28    0.17262      0.00000     0.32555    0.00182     0.32738
      H   29    0.17390      0.00000     0.32483    0.00127     0.32610
      H   30    0.17814      0.00000     0.32018    0.00168     0.32186
 =======================================================================
   * Total *    0.00000     14.99380    39.81925    0.18695    55.00000

 Normal termination of Gaussian 16 at Thu Dec 10 17:13:48 2020.
