 Gaussian 16, Revision A.03,

 -----------------------------------------------------------
 # opt freq B3LYP/6-31G(d) empiricaldispersion=gd3bj scf=xqc
 -----------------------------------------------------------

 -------------------------------
 CID_103835073_JID_6279_neutraal
 -------------------------------
 Symbolic Z-matrix:
 Charge =  0 Multiplicity = 1

 SCF Done:  E(RB3LYP) =  -788.741994737     A.U. after   14 cycles
 SCF Done:  E(RB3LYP) =  -788.745048985     A.U. after   12 cycles
 SCF Done:  E(RB3LYP) =  -788.745446382     A.U. after   11 cycles
 SCF Done:  E(RB3LYP) =  -788.746111760     A.U. after   11 cycles
 SCF Done:  E(RB3LYP) =  -788.746343848     A.U. after   11 cycles
 SCF Done:  E(RB3LYP) =  -788.746573192     A.U. after   11 cycles
 SCF Done:  E(RB3LYP) =  -788.747645578     A.U. after   14 cycles
 SCF Done:  E(RB3LYP) =  -788.747795491     A.U. after   13 cycles
 SCF Done:  E(RB3LYP) =  -788.749932954     A.U. after   11 cycles
 SCF Done:  E(RB3LYP) =  -788.750405771     A.U. after   12 cycles
 SCF Done:  E(RB3LYP) =  -788.752122193     A.U. after   10 cycles
 SCF Done:  E(RB3LYP) =  -788.752136132     A.U. after    9 cycles
 SCF Done:  E(RB3LYP) =  -788.752142008     A.U. after    8 cycles
 SCF Done:  E(RB3LYP) =  -788.752143401     A.U. after    8 cycles
 SCF Done:  E(RB3LYP) =  -788.752143646     A.U. after    7 cycles
 SCF Done:  E(RB3LYP) =  -788.752143738     A.U. after    6 cycles
 Optimization completed.
    -- Stationary point found.
 Normal termination of Gaussian 16 at Thu Dec 10 22:08:38 2020.

 --------------------------------------------------------------------
 #N Geom=AllCheck Guess=TCheck SCRF=Check GenChk RB3LYP/6-31G(d) Freq
 --------------------------------------------------------------------

 Structure from the checkpoint file:  "JID_6279.chk"
 -------------------------------
 CID_103835073_JID_6279_neutraal
 -------------------------------
 Charge =  0 Multiplicity = 1

 SCF Done:  E(RB3LYP) =  -788.752143738     A.U. after    1 cycles

  Exact polarizability: 152.489  -5.494 142.065  -6.029   0.216 111.328
 Approx polarizability: 196.411  -0.248 189.759 -14.131   1.632 168.747

                      1                      2                      3
                      A                      A                      A
 Frequencies --     28.4738                45.5185                56.9193
 Red. masses --      3.5600                 3.4389                 3.6420
 Frc consts  --      0.0017                 0.0042                 0.0070
 IR Inten    --      0.6097                 1.5522                 1.0005

                      4                      5                      6
                      A                      A                      A
 Frequencies --     64.2776                88.3465               101.8078
 Red. masses --      4.1615                 2.5792                 4.2919
 Frc consts  --      0.0101                 0.0119                 0.0262
 IR Inten    --      0.2639                 0.7871                 1.2252

                      7                      8                      9
                      A                      A                      A
 Frequencies --    129.3637               152.8697               168.7556
 Red. masses --      3.0922                 3.1110                 2.9177
 Frc consts  --      0.0305                 0.0428                 0.0490
 IR Inten    --      2.5426                 0.3395                 2.7357

                     10                     11                     12
                      A                      A                      A
 Frequencies --    192.5656               210.3301               225.3562
 Red. masses --      2.2350                 1.1687                 1.8513
 Frc consts  --      0.0488                 0.0305                 0.0554
 IR Inten    --      0.4309                 0.8198                 3.8518

                     13                     14                     15
                      A                      A                      A
 Frequencies --    247.1540               249.2493               262.3859
 Red. masses --      1.1774                 1.2858                 1.5222
 Frc consts  --      0.0424                 0.0471                 0.0617
 IR Inten    --      1.5063                 3.8061                 2.1188

                     16                     17                     18
                      A                      A                      A
 Frequencies --    271.8335               278.9697               306.0535
 Red. masses --      1.5534                 1.7211                 2.8598
 Frc consts  --      0.0676                 0.0789                 0.1578
 IR Inten    --      0.3854                 1.2634                 0.7175

                     19                     20                     21
                      A                      A                      A
 Frequencies --    325.1978               338.1856               352.9439
 Red. masses --      3.1538                 3.0956                 2.5292
 Frc consts  --      0.1965                 0.2086                 0.1856
 IR Inten    --      4.3119                 2.3886                 2.4889

                     22                     23                     24
                      A                      A                      A
 Frequencies --    366.7919               383.9997               423.6642
 Red. masses --      2.8496                 2.6192                 2.1205
 Frc consts  --      0.2259                 0.2276                 0.2243
 IR Inten    --      1.3580                 1.8381                 1.3641

                     25                     26                     27
                      A                      A                      A
 Frequencies --    435.1149               446.6428               464.9235
 Red. masses --      2.7664                 2.7719                 2.9937
 Frc consts  --      0.3086                 0.3258                 0.3813
 IR Inten    --      1.3170                 7.0768                 3.1035

                     28                     29                     30
                      A                      A                      A
 Frequencies --    506.1959               536.7627               562.5797
 Red. masses --      2.0445                 1.3009                 1.8589
 Frc consts  --      0.3087                 0.2208                 0.3466
 IR Inten    --     31.9665                97.1812               121.4760

                     31                     32                     33
                      A                      A                      A
 Frequencies --    591.1904               635.9525               663.2277
 Red. masses --      2.3093                 1.7553                 3.8099
 Frc consts  --      0.4755                 0.4183                 0.9874
 IR Inten    --     17.7013                43.5295                11.6407

                     34                     35                     36
                      A                      A                      A
 Frequencies --    756.2525               766.8871               791.2185
 Red. masses --      3.5911                 8.5825                 4.1359
 Frc consts  --      1.2101                 2.9739                 1.5255
 IR Inten    --      9.6807                19.9011                19.9130

                     37                     38                     39
                      A                      A                      A
 Frequencies --    836.0015               871.2461               893.0914
 Red. masses --      2.3834                 3.8516                 1.9537
 Frc consts  --      0.9814                 1.7225                 0.9181
 IR Inten    --     15.0705                 8.2949                 8.0661

                     40                     41                     42
                      A                      A                      A
 Frequencies --    937.6799               939.2058               953.2376
 Red. masses --      1.6338                 1.6368                 2.0411
 Frc consts  --      0.8464                 0.8507                 1.0927
 IR Inten    --      0.1518                 0.0622                 1.3055

                     43                     44                     45
                      A                      A                      A
 Frequencies --    955.9111               985.4196               990.4059
 Red. masses --      2.7531                 1.1989                 1.7869
 Frc consts  --      1.4822                 0.6859                 1.0327
 IR Inten    --      4.5892                 0.2748                11.5201

                     46                     47                     48
                      A                      A                      A
 Frequencies --   1020.1221              1049.5710              1065.3572
 Red. masses --      2.8408                 1.9708                 2.0826
 Frc consts  --      1.7418                 1.2792                 1.3926
 IR Inten    --     21.0848                22.7584                 8.0666

                     49                     50                     51
                      A                      A                      A
 Frequencies --   1067.5844              1076.4172              1126.1108
 Red. masses --      1.4176                 1.4630                 2.5002
 Frc consts  --      0.9519                 0.9987                 1.8680
 IR Inten    --      0.7779                 0.9108               102.5109

                     52                     53                     54
                      A                      A                      A
 Frequencies --   1157.8529              1171.4623              1187.7327
 Red. masses --      4.8139                 2.3375                 1.3933
 Frc consts  --      3.8023                 1.8900                 1.1580
 IR Inten    --    142.4241                 5.3349                 5.1831

                     55                     56                     57
                      A                      A                      A
 Frequencies --   1200.3539              1217.2976              1228.4666
 Red. masses --      1.8810                 2.0973                 2.2197
 Frc consts  --      1.5968                 1.8311                 1.9737
 IR Inten    --     13.5366               140.0515               130.1450

                     58                     59                     60
                      A                      A                      A
 Frequencies --   1241.5980              1284.6859              1286.9099
 Red. masses --      1.8954                 1.2439                 2.6811
 Frc consts  --      1.7215                 1.2095                 2.6162
 IR Inten    --     76.4725                 3.4366                16.4363

                     61                     62                     63
                      A                      A                      A
 Frequencies --   1293.9803              1308.6241              1324.3062
 Red. masses --      2.3750                 1.5782                 1.5798
 Frc consts  --      2.3430                 1.5924                 1.6324
 IR Inten    --     34.3040                 3.7930                19.8929

                     64                     65                     66
                      A                      A                      A
 Frequencies --   1377.6256              1389.2525              1419.2114
 Red. masses --      1.6200                 1.3625                 1.6416
 Frc consts  --      1.8115                 1.5494                 1.9481
 IR Inten    --    165.3472                15.5489               110.0409

                     67                     68                     69
                      A                      A                      A
 Frequencies --   1423.3265              1427.9471              1429.4112
 Red. masses --      1.3058                 1.3223                 1.2689
 Frc consts  --      1.5586                 1.5886                 1.5276
 IR Inten    --     28.6790                44.9022                 2.8018

                     70                     71                     72
                      A                      A                      A
 Frequencies --   1439.5293              1451.2471              1473.1884
 Red. masses --      1.3410                 1.2382                 1.6093
 Frc consts  --      1.6372                 1.5365                 2.0578
 IR Inten    --     43.9471                30.9679                72.5442

                     73                     74                     75
                      A                      A                      A
 Frequencies --   1494.4293              1498.3948              1499.1292
 Red. masses --      1.1334                 1.0645                 1.3023
 Frc consts  --      1.4913                 1.4081                 1.7244
 IR Inten    --     17.2349                 3.3151                18.9225

                     76                     77                     78
                      A                      A                      A
 Frequencies --   1507.5627              1510.8004              1511.8879
 Red. masses --      1.1363                 1.1263                 1.1317
 Frc consts  --      1.5215                 1.5146                 1.5241
 IR Inten    --     11.2473                14.8678                16.2885

                     79                     80                     81
                      A                      A                      A
 Frequencies --   1517.3913              1519.7133              1521.6750
 Red. masses --      1.0653                 1.0527                 1.0560
 Frc consts  --      1.4451                 1.4325                 1.4407
 IR Inten    --      5.0481                 0.9837                 2.2624

                     82                     83                     84
                      A                      A                      A
 Frequencies --   1523.4285              1532.4074              1536.1299
 Red. masses --      1.0595                 1.0618                 1.0523
 Frc consts  --      1.4488                 1.4691                 1.4630
 IR Inten    --     12.8466                11.9489                 1.7136

                     85                     86                     87
                      A                      A                      A
 Frequencies --   1538.0302              1558.2723              1561.8111
 Red. masses --      1.0537                 1.0582                 1.0884
 Frc consts  --      1.4686                 1.5139                 1.5642
 IR Inten    --      4.6896                23.0134                 4.0509

                     88                     89                     90
                      A                      A                      A
 Frequencies --   1812.0768              2992.8692              3007.6170
 Red. masses --      8.4423                 1.0523                 1.0396
 Frc consts  --     16.3329                 5.5534                 5.5408
 IR Inten    --    423.6582                26.0290                75.6004

                     91                     92                     93
                      A                      A                      A
 Frequencies --   3020.8698              3050.6250              3054.2506
 Red. masses --      1.1059                 1.0630                 1.0553
 Frc consts  --      5.9458                 5.8284                 5.8002
 IR Inten    --     56.7361                14.7033                20.4549

                     94                     95                     96
                      A                      A                      A
 Frequencies --   3055.5305              3056.1872              3059.2975
 Red. masses --      1.0855                 1.0539                 1.0376
 Frc consts  --      5.9711                 5.7997                 5.7215
 IR Inten    --     69.7449                 2.4229                22.3306

                     97                     98                     99
                      A                      A                      A
 Frequencies --   3061.4342              3067.7110              3099.6192
 Red. masses --      1.0525                 1.0395                 1.1017
 Frc consts  --      5.8121                 5.7637                 6.2364
 IR Inten    --     62.4064                19.0909                20.3131

                    100                    101                    102
                      A                      A                      A
 Frequencies --   3119.1805              3129.0604              3130.7493
 Red. masses --      1.1024                 1.1013                 1.1017
 Frc consts  --      6.3194                 6.3530                 6.3621
 IR Inten    --     13.6268                25.7614                 0.3184

                    103                    104                    105
                      A                      A                      A
 Frequencies --   3131.8856              3138.2728              3138.8201
 Red. masses --      1.1025                 1.1018                 1.1023
 Frc consts  --      6.3714                 6.3932                 6.3988
 IR Inten    --     34.3523                73.9176                16.5652

                    106                    107                    108
                      A                      A                      A
 Frequencies --   3153.1926              3156.6561              3173.9024
 Red. masses --      1.0975                 1.0931                 1.0995
 Frc consts  --      6.4290                 6.4173                 6.5257
 IR Inten    --     19.7895                10.7987                 2.2352

                    109                    110                    111
                      A                      A                      A
 Frequencies --   3178.4615              3627.6657              3684.1652
 Red. masses --      1.0993                 1.0760                 1.0652
 Frc consts  --      6.5433                 8.3427                 8.5181
 IR Inten    --      7.7942                24.6352               127.7286

 - Thermochemistry -
 -------------------
 Temperature   298.150 Kelvin.  Pressure   1.00000 Atm.
 Atom     1 has atomic number  6 and mass  12.00000

 Molecular mass:   233.16271 amu.
 Principal axes and moments of inertia in atomic units:
                           1         2         3
     Eigenvalues --  2672.577224490.378616104.19040
           X            0.99919  -0.03876  -0.01044
           Y            0.03861   0.99916  -0.01393
           Z            0.01097   0.01352   0.99985
 This molecule is an asymmetric top.
 Rotational symmetry number  1.
 Warning -- assumption of classical behavior for rotation
           may cause significant error
 Rotational temperatures (Kelvin)      0.03241     0.01929     0.01419
 Rotational constants (GHZ):           0.67528     0.40191     0.29566
 Zero-point vibrational energy     908327.5 (Joules/Mol)
                                  217.09548 (Kcal/Mol)
 Warning -- explicit consideration of  31 degrees of freedom as
           vibrations may cause significant error
 Vibrational temperatures:     40.97    65.49    81.89    92.48   127.11
          (Kelvin)            146.48   186.13   219.95   242.80   277.06
                              302.62   324.24   355.60   358.61   377.51
                              391.11   401.38   440.34   467.89   486.57
                              507.81   527.73   552.49   609.56   626.03
                              642.62   668.92   728.30   772.28   809.43
                              850.59   914.99   954.24  1088.08  1103.38
                             1138.39  1202.82  1253.53  1284.96  1349.11
                             1351.31  1371.50  1375.34  1417.80  1424.97
                             1467.73  1510.10  1532.81  1536.02  1548.72
                             1620.22  1665.89  1685.47  1708.88  1727.04
                             1751.42  1767.49  1786.38  1848.38  1851.58
                             1861.75  1882.82  1905.38  1982.10  1998.82
                             2041.93  2047.85  2054.50  2056.60  2071.16
                             2088.02  2119.59  2150.15  2155.86  2156.91
                             2169.05  2173.70  2175.27  2183.19  2186.53
                             2189.35  2191.87  2204.79  2210.15  2212.88
                             2242.01  2247.10  2607.17  4306.07  4327.29
                             4346.36  4389.17  4394.39  4396.23  4397.17
                             4401.65  4404.72  4413.75  4459.66  4487.81
                             4502.02  4504.45  4506.08  4515.27  4516.06
                             4536.74  4541.72  4566.54  4573.10  5219.40
                             5300.69

 Zero-point correction=                           0.345964 (Hartree/Particle)
 Thermal correction to Energy=                    0.365053
 Thermal correction to Enthalpy=                  0.365997
 Thermal correction to Gibbs Free Energy=         0.299155
 Sum of electronic and zero-point Energies=           -788.406180
 Sum of electronic and thermal Energies=              -788.387091
 Sum of electronic and thermal Enthalpies=            -788.386147
 Sum of electronic and thermal Free Energies=         -788.452988

                     E (Thermal)             CV                S
                      KCal/Mol        Cal/Mol-Kelvin    Cal/Mol-Kelvin
 Total                  229.074             71.369            140.680
 Electronic               0.000              0.000              0.000
 Translational            0.889              2.981             42.241
 Rotational               0.889              2.981             32.660
 Vibrational            227.297             65.407             65.778
 Vibration     1          0.593              1.984              5.933
 Vibration     2          0.595              1.979              5.003
 Vibration     3          0.596              1.975              4.561
 Vibration     4          0.597              1.971              4.321
 Vibration     5          0.601              1.957              3.696
 Vibration     6          0.604              1.948              3.419
 Vibration     7          0.612              1.924              2.955
 Vibration     8          0.619              1.899              2.636
 Vibration     9          0.625              1.881              2.449
 Vibration    10          0.635              1.850              2.203
 Vibration    11          0.642              1.825              2.041
 Vibration    12          0.650              1.802              1.916
 Vibration    13          0.661              1.767              1.751
 Vibration    14          0.662              1.764              1.736
 Vibration    15          0.670              1.742              1.646
 Vibration    16          0.675              1.725              1.585
 Vibration    17          0.679              1.712              1.540
 Vibration    18          0.696              1.662              1.384
 Vibration    19          0.709              1.625              1.284
 Vibration    20          0.718              1.599              1.221
 Vibration    21          0.729              1.569              1.153
 Vibration    22          0.740              1.541              1.093
 Vibration    23          0.753              1.504              1.023
 Vibration    24          0.786              1.419              0.880
 Vibration    25          0.796              1.394              0.842
 Vibration    26          0.806              1.368              0.806
 Vibration    27          0.822              1.328              0.752
 Vibration    28          0.861              1.236              0.643
 Vibration    29          0.892              1.169              0.572
 Vibration    30          0.918              1.112              0.519
 Vibration    31          0.949              1.051              0.465

                           ! Non-Optimized Parameters !
 Normal termination of Gaussian 16 at Thu Dec 10 22:23:56 2020.

 ----------------------------------------------------------------------
 # B3LYP/6-311++G(d,p) empiricaldispersion=gd3bj scf=xqc pop=npa geom=c
 heck
 ----------------------------------------------------------------------

 ---------------------------------------
 CID_103835073_JID_6279_Energie_neutraal
 ---------------------------------------
 Structure from the checkpoint file:  "JID_6279.chk"
 Charge =  0 Multiplicity = 1

 SCF Done:  E(RB3LYP) =  -788.994979039     A.U. after   14 cycles
 Normal termination of Gaussian 16 at Thu Dec 10 22:30:44 2020.

 ----------------------------------------------------------------------
 # B3LYP/6-311++G(d,p) empiricaldispersion=gd3bj scf=xqc pop=npa geom=c
 heck
 ----------------------------------------------------------------------

 -------------------------------------
 CID_103835073_JID_6279_Energie_kation
 -------------------------------------
 Structure from the checkpoint file:  "JID_6279.chk"
 Charge =  1 Multiplicity = 2

 SCF Done:  E(UB3LYP) =  -788.680977922     A.U. after   25 cycles
 Normal termination of Gaussian 16 at Thu Dec 10 22:49:17 2020.
 Gaussian 16:  ES64L-G16RevA.03 25-Dec-2016

 ----------------------------------------------------------------------
 # B3LYP/6-311++G(d,p) empiricaldispersion=gd3bj scf=xqc pop=npa geom=c
 heck
 ----------------------------------------------------------------------

 ------------------------------------
 CID_103835073_JID_6279_Energie_anion
 ------------------------------------
 Structure from the checkpoint file:  "JID_6279.chk"
 Charge = -1 Multiplicity = 2

                         Standard orientation:
 ---------------------------------------------------------------------
 Center     Atomic      Atomic             Coordinates (Angstroms)
 Number     Number       Type             X           Y           Z
 ---------------------------------------------------------------------
      1          6           0       -1.906186    2.193158    0.116958
      2          6           0       -2.430582    0.758084    0.173384
      3          6           0       -2.552039    0.287669    1.625325
      4          6           0       -3.746032    0.624047   -0.595257
      5          8           0       -1.375464    0.011858   -0.516371
      6          6           0       -1.401935   -1.340445   -0.540136
      7          8           0       -2.341118   -2.047042   -0.214216
      8          7           0       -0.233988   -1.842985   -1.059956
      9          6           0        1.026501   -1.123092   -1.081328
     10          6           0        1.774870   -1.105334    0.276714
     11          6           0        2.056940   -2.525832    0.764151
     12          6           0        3.102247   -0.321179    0.151255
     13          6           0        2.989864    1.066916   -0.471083
     14          8           0        2.005455    1.823422    0.226630
     15          6           0        1.792302    3.100367   -0.343012
     16          8           0        0.953186   -0.515274    1.282002
     17          1           0       -2.626192    2.877843    0.576352
     18          1           0       -1.742713    2.502407   -0.920570
     19          1           0       -0.956690    2.271845    0.655731
     20          1           0       -3.194936    0.979563    2.180653
     21          1           0       -2.979503   -0.713885    1.677367
     22          1           0       -1.564730    0.267801    2.096678
     23          1           0       -3.613626    0.948126   -1.633240
     24          1           0       -4.087439   -0.411761   -0.588091
     25          1           0       -4.512103    1.256582   -0.132738
     26          1           0       -0.199507   -2.850490   -0.990094
     27          1           0        1.666068   -1.574161   -1.850324
     28          1           0        0.805961   -0.101356   -1.390519
     29          1           0        2.623635   -3.098595    0.021196
     30          1           0        2.631486   -2.494653    1.694824
     31          1           0        1.115663   -3.042743    0.972733
     32          1           0        3.519950   -0.232010    1.160374
     33          1           0        3.821117   -0.894288   -0.448830
     34          1           0        3.960833    1.584747   -0.417788
     35          1           0        2.716819    1.002641   -1.536070
     36          1           0        2.718565    3.694109   -0.341899
     37          1           0        1.424510    3.021678   -1.377229
     38          1           0        1.040128    3.606221    0.265514
     39          1           0        0.898458    0.431394    1.059476
 ---------------------------------------------------------------------

 SCF Done:  E(UB3LYP) =  -788.984349114     A.U. after   31 cycles

 The electronic state is 2-A.
 Alpha  occ. eigenvalues --  -19.05937 -19.04178 -19.01088 -18.99671 -14.23816
 Alpha  occ. eigenvalues --  -10.22169 -10.15229 -10.13406 -10.12362 -10.11801
 Alpha  occ. eigenvalues --  -10.10594 -10.07481 -10.07147 -10.07094 -10.06661
 Alpha  occ. eigenvalues --  -10.06642  -1.00687  -0.95339  -0.92071  -0.91878
 Alpha  occ. eigenvalues --   -0.83046  -0.71988  -0.70257  -0.65195  -0.60709
 Alpha  occ. eigenvalues --   -0.60553  -0.60445  -0.58605  -0.54741  -0.52733
 Alpha  occ. eigenvalues --   -0.48010  -0.45034  -0.42737  -0.41818  -0.40587
 Alpha  occ. eigenvalues --   -0.39130  -0.38583  -0.37605  -0.37352  -0.36434
 Alpha  occ. eigenvalues --   -0.35599  -0.34400  -0.33960  -0.33207  -0.32403
 Alpha  occ. eigenvalues --   -0.31693  -0.30228  -0.29833  -0.29409  -0.29213
 Alpha  occ. eigenvalues --   -0.28054  -0.27909  -0.26885  -0.26653  -0.25894
 Alpha  occ. eigenvalues --   -0.25730  -0.25415  -0.24596  -0.21881  -0.20593
 Alpha  occ. eigenvalues --   -0.18844  -0.17805  -0.17620  -0.15265   0.04101
 Alpha virt. eigenvalues --    0.06015   0.06577   0.07902   0.08074   0.08680
 Alpha virt. eigenvalues --    0.09183   0.09509   0.10087   0.10368   0.10906
 Alpha virt. eigenvalues --    0.11373   0.11652   0.12158   0.12410   0.12997

  Beta  occ. eigenvalues --  -19.05932 -19.04166 -19.01083 -18.99669 -14.23810
  Beta  occ. eigenvalues --  -10.22169 -10.15226 -10.13406 -10.12329 -10.11755
  Beta  occ. eigenvalues --  -10.10569 -10.07459 -10.07124 -10.07084 -10.06654
  Beta  occ. eigenvalues --  -10.06624  -1.00682  -0.95319  -0.92059  -0.91873
  Beta  occ. eigenvalues --   -0.83032  -0.71976  -0.70226  -0.65156  -0.60682
  Beta  occ. eigenvalues --   -0.60516  -0.60423  -0.58529  -0.54716  -0.52647
  Beta  occ. eigenvalues --   -0.47975  -0.45010  -0.42714  -0.41806  -0.40507
  Beta  occ. eigenvalues --   -0.39107  -0.38553  -0.37580  -0.37331  -0.36407
  Beta  occ. eigenvalues --   -0.35576  -0.34375  -0.33929  -0.33180  -0.32382
  Beta  occ. eigenvalues --   -0.31665  -0.30204  -0.29815  -0.29377  -0.29178
  Beta  occ. eigenvalues --   -0.28029  -0.27888  -0.26866  -0.26628  -0.25856
  Beta  occ. eigenvalues --   -0.25710  -0.25368  -0.24579  -0.21845  -0.20583
  Beta  occ. eigenvalues --   -0.18834  -0.17789  -0.17599  -0.15253
  Beta virt. eigenvalues --    0.06214   0.06923   0.07403   0.08303   0.08630
  Beta virt. eigenvalues --    0.09074   0.09502   0.09846   0.10308   0.10867
  Beta virt. eigenvalues --    0.11234   0.11722   0.11837   0.12220   0.12656

 Mulliken charges and spin densities:
               1          2
     1  C   -0.203363  -0.278363
     2  C   -0.230607   0.244673
     3  C   -0.167863  -0.313708
     4  C   -0.193613  -0.233652
     5  O    0.056189  -0.012097
     6  C    0.225242  -0.184875
     7  O   -0.289372   0.007469
     8  N   -0.146028   0.003322
     9  C    0.422265  -1.284470
    10  C   -1.032440   1.352651
    11  C    0.432908  -0.935322
    12  C    0.440483  -0.828955
    13  C   -0.058495  -0.326187
    14  O   -0.242057   0.070729
    15  C    0.900288  -1.158284
    16  O   -0.084356  -0.016057
    17  H   -0.145936   0.292073
    18  H   -0.003320   0.158518
    19  H    0.193844  -0.047524
    20  H    0.062445   0.080513
    21  H    0.155584   0.019524
    22  H    0.113668   0.037572
    23  H   -0.000034   0.143896
    24  H    0.165068   0.015557
    25  H    0.082477   0.059235
    26  H    0.201679   0.108591
    27  H   -0.776320   0.966203
    28  H    0.803762  -0.554624
    29  H   -0.102206   0.262644
    30  H   -0.039945   0.189670
    31  H    0.174333  -0.004367
    32  H    0.186800   0.012103
    33  H   -0.360152   0.533449
    34  H   -0.619399   0.804700
    35  H   -0.136167   0.310945
    36  H   -0.343607   0.485570
    37  H   -0.296599   0.438578
    38  H   -0.406174   0.547289
    39  H    0.261018   0.033011
 Sum of Mulliken charges =  -1.00000   1.00000

 Dipole moment (field-independent basis, Debye):
    X=             -5.4814    Y=             -2.0848    Z=              2.5365  Tot=              6.3895
 Quadrupole moment (field-independent basis, Debye-Ang):
   XX=           -172.4647   YY=           -158.7555   ZZ=           -136.7851
   XY=             -9.4792   XZ=              8.9324   YZ=             -0.2151

 Summary of Natural Population Analysis:

                                       Natural Population
                Natural  -----------------------------------------------
    Atom  No    Charge         Core      Valence    Rydberg      Total
 -----------------------------------------------------------------------
      C    1   -0.28892      0.99960     2.28168    0.00764     3.28892
      C    2    0.13579      0.99954     1.85132    0.01335     2.86421
      C    3   -0.30364      0.99960     2.29877    0.00527     3.30364
      C    4   -0.30028      0.99960     2.29518    0.00550     3.30028
      O    5   -0.30202      0.99984     3.29182    0.01036     4.30202
      C    6    0.46960      0.99969     1.50392    0.02679     2.53040
      O    7   -0.33954      0.99987     3.33528    0.00439     4.33954
      N    8   -0.32325      0.99967     2.81371    0.00986     3.82325
      C    9   -0.10332      0.99955     2.09042    0.01336     3.10332
      C   10    0.12358      0.99954     1.86058    0.01630     2.87642
      C   11   -0.29193      0.99961     2.28518    0.00714     3.29193
      C   12   -0.21025      0.99957     2.19957    0.01111     3.21025
      C   13   -0.00871      0.99958     1.99644    0.01269     3.00871
      O   14   -0.31103      0.99988     3.30161    0.00954     4.31103
      C   15   -0.09463      0.99961     2.08586    0.00915     3.09463
      O   16   -0.38803      0.99989     3.38164    0.00651     4.38803
      H   17    0.10003      0.00000     0.39907    0.00090     0.39997
      H   18    0.10474      0.00000     0.39414    0.00112     0.39526
      H   19    0.10320      0.00000     0.39507    0.00173     0.39680
      H   20    0.09868      0.00000     0.40058    0.00073     0.40132
      H   21    0.11332      0.00000     0.38584    0.00085     0.38668
      H   22    0.11017      0.00000     0.38894    0.00089     0.38983
      H   23    0.10175      0.00000     0.39741    0.00084     0.39825
      H   24    0.11439      0.00000     0.38475    0.00086     0.38561
      H   25    0.09900      0.00000     0.40022    0.00078     0.40100
      H   26    0.19362      0.00000     0.30444    0.00194     0.30638
      H   27    0.10160      0.00000     0.39667    0.00173     0.39840
      H   28    0.10973      0.00000     0.38788    0.00239     0.39027
      H   29    0.10062      0.00000     0.39841    0.00098     0.39938
      H   30    0.10385      0.00000     0.39534    0.00081     0.39615
      H   31    0.10262      0.00000     0.39640    0.00098     0.39738
      H   32    0.10401      0.00000     0.39466    0.00132     0.39599
      H   33    0.10817      0.00000     0.38999    0.00185     0.39183
      H   34    0.08749      0.00000     0.41054    0.00198     0.41251
      H   35    0.08200      0.00000     0.41565    0.00235     0.41800
      H   36    0.08288      0.00000     0.41510    0.00202     0.41712
      H   37    0.08187      0.00000     0.41648    0.00165     0.41813
      H   38    0.09068      0.00000     0.40791    0.00141     0.40932
      H   39    0.24218      0.00000     0.25383    0.00399     0.25782
 =======================================================================
   * Total *   -0.00000     15.99465    47.80230    0.20305    64.00000

 Normal termination of Gaussian 16 at Thu Dec 10 23:10:45 2020.
