 Gaussian 16, Revision A.03,

 -----------------------------------------------------------
 # opt freq B3LYP/6-31G(d) empiricaldispersion=gd3bj scf=xqc
 -----------------------------------------------------------

 ------------------------------
 CID_65915165_JID_9140_neutraal
 ------------------------------
 Symbolic Z-matrix:
 Charge =  0 Multiplicity = 1

 SCF Done:  E(RB3LYP) =  -808.941481082     A.U. after   13 cycles
 SCF Done:  E(RB3LYP) =  -808.946427529     A.U. after   12 cycles
 SCF Done:  E(RB3LYP) =  -808.946756800     A.U. after   11 cycles
 SCF Done:  E(RB3LYP) =  -808.947205462     A.U. after   12 cycles
 SCF Done:  E(RB3LYP) =  -808.947959328     A.U. after   10 cycles
 SCF Done:  E(RB3LYP) =  -808.948098904     A.U. after   11 cycles
 SCF Done:  E(RB3LYP) =  -808.948170117     A.U. after   10 cycles
 SCF Done:  E(RB3LYP) =  -808.948257037     A.U. after   10 cycles
 SCF Done:  E(RB3LYP) =  -808.948279775     A.U. after   10 cycles
 SCF Done:  E(RB3LYP) =  -808.948296499     A.U. after   10 cycles
 SCF Done:  E(RB3LYP) =  -808.958426200     A.U. after   10 cycles
 SCF Done:  E(RB3LYP) =  -808.958430936     A.U. after    9 cycles
 SCF Done:  E(RB3LYP) =  -808.958431890     A.U. after    8 cycles
 SCF Done:  E(RB3LYP) =  -808.958431981     A.U. after    7 cycles
 Optimization completed.
    -- Stationary point found.
 Normal termination of Gaussian 16 at Sat Dec 12 09:47:13 2020.

 --------------------------------------------------------------------
 #N Geom=AllCheck Guess=TCheck SCRF=Check GenChk RB3LYP/6-31G(d) Freq
 --------------------------------------------------------------------

 Structure from the checkpoint file:  "JID_9140.chk"
 ------------------------------
 CID_65915165_JID_9140_neutraal
 ------------------------------
 Charge =  0 Multiplicity = 1

 SCF Done:  E(RB3LYP) =  -808.958431981     A.U. after    1 cycles

  Exact polarizability: 210.305   3.009 185.811  13.690  -3.894 130.399
 Approx polarizability: 273.394   6.913 283.590  30.680 -15.719 218.024

                      1                      2                      3
                      A                      A                      A
 Frequencies --     25.2630                58.8582                72.8796
 Red. masses --      3.7319                 3.0788                 4.0091
 Frc consts  --      0.0014                 0.0063                 0.0125
 IR Inten    --      0.5361                 1.0804                 0.1977

                      4                      5                      6
                      A                      A                      A
 Frequencies --     83.5182               104.8080               132.2550
 Red. masses --      2.9846                 3.4714                 2.9399
 Frc consts  --      0.0123                 0.0225                 0.0303
 IR Inten    --      0.7218                 0.3700                 1.3399

                      7                      8                      9
                      A                      A                      A
 Frequencies --    160.9216               170.9549               243.6037
 Red. masses --      3.0061                 2.9249                 1.8994
 Frc consts  --      0.0459                 0.0504                 0.0664
 IR Inten    --      0.5698                 2.0850                 1.4287

                     10                     11                     12
                      A                      A                      A
 Frequencies --    250.3054               280.1257               295.2452
 Red. masses --      2.1988                 2.7563                 3.4968
 Frc consts  --      0.0812                 0.1274                 0.1796
 IR Inten    --      1.3531                 0.3522                 3.1278

                     13                     14                     15
                      A                      A                      A
 Frequencies --    327.6978               337.4756               363.2798
 Red. masses --      2.3938                 2.9042                 3.0287
 Frc consts  --      0.1515                 0.1949                 0.2355
 IR Inten    --      3.9371                 2.7442                 1.6200

                     16                     17                     18
                      A                      A                      A
 Frequencies --    374.2668               382.5095               411.8070
 Red. masses --      2.8644                 2.0418                 3.9239
 Frc consts  --      0.2364                 0.1760                 0.3921
 IR Inten    --      0.2856                 1.6073                 1.2456

                     19                     20                     21
                      A                      A                      A
 Frequencies --    434.7613               438.9197               486.7373
 Red. masses --      2.8585                 2.5361                 3.5048
 Frc consts  --      0.3183                 0.2879                 0.4892
 IR Inten    --      1.9891                 1.9291                 7.8538

                     22                     23                     24
                      A                      A                      A
 Frequencies --    491.0570               506.5748               508.9465
 Red. masses --      2.5275                 3.2728                 3.2628
 Frc consts  --      0.3591                 0.4948                 0.4980
 IR Inten    --      0.9382                 0.3877                 2.6237

                     25                     26                     27
                      A                      A                      A
 Frequencies --    542.8294               562.4624               587.2619
 Red. masses --      3.6513                 3.1954                 2.4603
 Frc consts  --      0.6339                 0.5956                 0.4999
 IR Inten    --      0.6468                 0.3984                 2.0249

                     28                     29                     30
                      A                      A                      A
 Frequencies --    639.5401               667.2801               680.8157
 Red. masses --      2.5702                 1.8631                 1.8359
 Frc consts  --      0.6194                 0.4888                 0.5014
 IR Inten    --     13.0303                 9.6823               132.8837

                     31                     32                     33
                      A                      A                      A
 Frequencies --    715.5229               730.7038               763.2985
 Red. masses --      2.8863                 1.6974                 1.3376
 Frc consts  --      0.8706                 0.5340                 0.4592
 IR Inten    --     10.4446               109.7482                50.9731

                     34                     35                     36
                      A                      A                      A
 Frequencies --    778.2554               790.2938               796.5080
 Red. masses --      3.6115                 1.6449                 2.1954
 Frc consts  --      1.2888                 0.6053                 0.8206
 IR Inten    --      7.3227                12.6672                18.9500

                     37                     38                     39
                      A                      A                      A
 Frequencies --    831.8176               851.6973               867.5512
 Red. masses --      3.0061                 2.5245                 2.2995
 Frc consts  --      1.2255                 1.0789                 1.0197
 IR Inten    --      1.9249                24.1353                46.1511

                     40                     41                     42
                      A                      A                      A
 Frequencies --    882.9047               896.5464               915.7527
 Red. masses --      1.5062                 1.8268                 2.2159
 Frc consts  --      0.6917                 0.8652                 1.0948
 IR Inten    --      1.8870                 3.4116                 1.7975

                     43                     44                     45
                      A                      A                      A
 Frequencies --    927.2932               945.6892               962.6325
 Red. masses --      2.2241                 1.4141                 2.0414
 Frc consts  --      1.1268                 0.7451                 1.1146
 IR Inten    --      5.5297                 2.0924                11.0028

                     46                     47                     48
                      A                      A                      A
 Frequencies --    975.1276               980.6039               992.7315
 Red. masses --      2.4440                 1.2763                 1.6560
 Frc consts  --      1.3692                 0.7231                 0.9616
 IR Inten    --      2.6430                 0.4953                 3.1315

                     49                     50                     51
                      A                      A                      A
 Frequencies --    995.8334              1020.2872              1046.5853
 Red. masses --      2.1799                 2.1711                 1.9795
 Frc consts  --      1.2737                 1.3316                 1.2775
 IR Inten    --     14.2868                 0.7617                 1.7487

                     52                     53                     54
                      A                      A                      A
 Frequencies --   1074.6598              1089.6549              1093.2283
 Red. masses --      2.3357                 1.6761                 1.6812
 Frc consts  --      1.5893                 1.1725                 1.1839
 IR Inten    --      1.2117                 3.9813                30.6343

                     55                     56                     57
                      A                      A                      A
 Frequencies --   1094.0675              1118.2342              1129.5077
 Red. masses --      1.7379                 2.7256                 2.6629
 Frc consts  --      1.2257                 2.0080                 2.0017
 IR Inten    --      9.0049                16.7819                15.2860

                     58                     59                     60
                      A                      A                      A
 Frequencies --   1150.9024              1158.2108              1160.1048
 Red. masses --      1.8547                 2.1427                 3.1040
 Frc consts  --      1.4474                 1.6935                 2.4613
 IR Inten    --      4.3352                 4.7614                63.1930

                     61                     62                     63
                      A                      A                      A
 Frequencies --   1176.3456              1188.4241              1194.6075
 Red. masses --      1.6222                 1.2395                 1.2714
 Frc consts  --      1.3226                 1.0314                 1.0690
 IR Inten    --     27.6478                 6.5004                 7.5178

                     64                     65                     66
                      A                      A                      A
 Frequencies --   1197.5390              1214.4941              1226.0997
 Red. masses --      1.1636                 1.4769                 1.8115
 Frc consts  --      0.9832                 1.2835                 1.6045
 IR Inten    --      3.7273                 0.6533                 3.5904

                     67                     68                     69
                      A                      A                      A
 Frequencies --   1228.3735              1243.0629              1256.8625
 Red. masses --      1.9462                 2.2577                 1.2489
 Frc consts  --      1.7302                 2.0554                 1.1624
 IR Inten    --      6.6384                 0.9230                 0.9863

                     70                     71                     72
                      A                      A                      A
 Frequencies --   1292.3535              1301.8239              1303.4672
 Red. masses --      1.4705                 1.3575                 1.4856
 Frc consts  --      1.4471                 1.3555                 1.4872
 IR Inten    --      1.4979                 5.2727                12.5938

                     73                     74                     75
                      A                      A                      A
 Frequencies --   1325.9567              1351.1401              1355.4816
 Red. masses --      1.3686                 1.6108                 1.6567
 Frc consts  --      1.4177                 1.7326                 1.7935
 IR Inten    --     14.2298                 8.9303                 9.4258

                     76                     77                     78
                      A                      A                      A
 Frequencies --   1362.0935              1370.8053              1376.7334
 Red. masses --      1.5712                 1.7460                 1.5327
 Frc consts  --      1.7175                 1.9331                 1.7116
 IR Inten    --      1.1957                26.0922                 0.8383

                     79                     80                     81
                      A                      A                      A
 Frequencies --   1383.2814              1385.2794              1400.4014
 Red. masses --      1.4900                 1.5324                 1.4880
 Frc consts  --      1.6798                 1.7326                 1.7193
 IR Inten    --     10.4473                 0.1182                 7.6909

                     82                     83                     84
                      A                      A                      A
 Frequencies --   1411.6788              1429.9556              1445.5084
 Red. masses --      1.4070                 1.5080                 1.5793
 Frc consts  --      1.6521                 1.8168                 1.9442
 IR Inten    --     10.4195                14.3872                37.1036

                     85                     86                     87
                      A                      A                      A
 Frequencies --   1481.6046              1495.5758              1503.7259
 Red. masses --      1.1642                 1.3372                 1.8053
 Frc consts  --      1.5057                 1.7622                 2.4052
 IR Inten    --      1.7480                 6.1351                 4.3391

                     88                     89                     90
                      A                      A                      A
 Frequencies --   1506.0235              1507.8467              1509.0923
 Red. masses --      1.1336                 1.2134                 1.1714
 Frc consts  --      1.5149                 1.6254                 1.5717
 IR Inten    --      2.5000                19.7370                10.0494

                     91                     92                     93
                      A                      A                      A
 Frequencies --   1520.0348              1527.6279              1532.0247
 Red. masses --      1.1226                 1.0848                 1.0983
 Frc consts  --      1.5282                 1.4915                 1.5188
 IR Inten    --     12.2939                11.5206                 9.8730

                     94                     95                     96
                      A                      A                      A
 Frequencies --   1540.3388              1544.4433              1547.5468
 Red. masses --      1.3544                 1.0988                 1.6300
 Frc consts  --      1.8934                 1.5442                 2.3000
 IR Inten    --      4.2410                 7.1168                11.2743

                     97                     98                     99
                      A                      A                      A
 Frequencies --   1555.0094              1642.8507              1669.5860
 Red. masses --      1.0682                 6.1751                 5.9307
 Frc consts  --      1.5218                 9.8195                 9.7404
 IR Inten    --     19.8262                 0.7335                 1.9253

                    100                    101                    102
                      A                      A                      A
 Frequencies --   2968.5151              2970.7734              3024.5883
 Red. masses --      1.0588                 1.0724                 1.0777
 Frc consts  --      5.4973                 5.5764                 5.8089
 IR Inten    --     72.9452                85.2083                37.7461

                    103                    104                    105
                      A                      A                      A
 Frequencies --   3031.7069              3038.0612              3049.4949
 Red. masses --      1.0845                 1.0716                 1.0691
 Frc consts  --      5.8730                 5.8275                 5.8577
 IR Inten    --      1.2863                45.0908                 8.8892

                    106                    107                    108
                      A                      A                      A
 Frequencies --   3054.4790              3056.4122              3057.8629
 Red. masses --      1.0646                 1.0622                 1.0632
 Frc consts  --      5.8521                 5.8461                 5.8576
 IR Inten    --      6.6732                 7.4298                83.4160

                    109                    110                    111
                      A                      A                      A
 Frequencies --   3069.1965              3075.2828              3086.5262
 Red. masses --      1.0747                 1.0886                 1.0999
 Frc consts  --      5.9648                 6.0657                 6.1738
 IR Inten    --     66.9101                69.0481                10.4551

                    112                    113                    114
                      A                      A                      A
 Frequencies --   3088.3451              3095.1877              3100.6345
 Red. masses --      1.0991                 1.0982                 1.1037
 Frc consts  --      6.1764                 6.1989                 6.2516
 IR Inten    --     76.7853                59.7856                27.3614

                    115                    116                    117
                      A                      A                      A
 Frequencies --   3114.4591              3117.7297              3175.9660
 Red. masses --      1.1024                 1.0925                 1.0867
 Frc consts  --      6.3002                 6.2567                 6.4583
 IR Inten    --     33.7586                21.9753                 8.9420

                    118                    119                    120
                      A                      A                      A
 Frequencies --   3188.1423              3201.5850              3211.8414
 Red. masses --      1.0878                 1.0919                 1.0963
 Frc consts  --      6.5142                 6.5941                 6.6632
 IR Inten    --      7.2902                35.0687                22.2019

                    121                    122                    123
                      A                      A                      A
 Frequencies --   3513.3981              3547.1759              3603.8241
 Red. masses --      1.0730                 1.0753                 1.0636
 Frc consts  --      7.8036                 7.9719                 8.1385
 IR Inten    --      0.5566                 1.8778                62.6895

 - Thermochemistry -
 -------------------
 Temperature   298.150 Kelvin.  Pressure   1.00000 Atm.
 Atom     1 has atomic number  6 and mass  12.00000

 Molecular mass:   260.18886 amu.
 Principal axes and moments of inertia in atomic units:
                           1         2         3
     Eigenvalues --  2581.633067132.887278602.25021
           X            0.99986  -0.01694   0.00037
           Y            0.01694   0.99981   0.00966
           Z           -0.00053  -0.00965   0.99995
 This molecule is an asymmetric top.
 Rotational symmetry number  1.
 Warning -- assumption of classical behavior for rotation
           may cause significant error
 Rotational temperatures (Kelvin)      0.03355     0.01214     0.01007
 Rotational constants (GHZ):           0.69907     0.25302     0.20980
 Zero-point vibrational energy    1012671.5 (Joules/Mol)
                                  242.03430 (Kcal/Mol)
 Warning -- explicit consideration of  27 degrees of freedom as
           vibrations may cause significant error
 Vibrational temperatures:     36.35    84.68   104.86   120.16   150.80
          (Kelvin)            190.29   231.53   245.97   350.49   360.13
                              403.04   424.79   471.48   485.55   522.68
                              538.49   550.35   592.50   625.52   631.51
                              700.31   706.52   728.85   732.26   781.01
                              809.26   844.94   920.16   960.07   979.54
                             1029.48  1051.32  1098.22  1119.74  1137.06
                             1146.00  1196.80  1225.40  1248.21  1270.30
                             1289.93  1317.56  1334.17  1360.64  1385.01
                             1402.99  1410.87  1428.32  1432.78  1467.97
                             1505.80  1546.20  1567.77  1572.91  1574.12
                             1608.89  1625.11  1655.89  1666.41  1669.13
                             1692.50  1709.88  1718.77  1722.99  1747.39
                             1764.08  1767.36  1788.49  1808.34  1859.41
                             1873.03  1875.40  1907.76  1943.99  1950.24
                             1959.75  1972.28  1980.81  1990.23  1993.11
                             2014.87  2031.09  2057.39  2079.76  2131.70
                             2151.80  2163.53  2166.83  2169.46  2171.25
                             2186.99  2197.92  2204.24  2216.20  2222.11
                             2226.57  2237.31  2363.70  2402.16  4271.03
                             4274.28  4351.71  4361.95  4371.09  4387.54
                             4394.71  4397.50  4399.58  4415.89  4424.65
                             4440.82  4443.44  4453.28  4461.12  4481.01
                             4485.72  4569.51  4587.03  4606.37  4621.12
                             5055.00  5103.59  5185.10

 Zero-point correction=                           0.385706 (Hartree/Particle)
 Thermal correction to Energy=                    0.402540
 Thermal correction to Enthalpy=                  0.403484
 Thermal correction to Gibbs Free Energy=         0.341501
 Sum of electronic and zero-point Energies=           -808.572726
 Sum of electronic and thermal Energies=              -808.555892
 Sum of electronic and thermal Enthalpies=            -808.554948
 Sum of electronic and thermal Free Energies=         -808.616931

                     E (Thermal)             CV                S
                      KCal/Mol        Cal/Mol-Kelvin    Cal/Mol-Kelvin
 Total                  252.598             69.535            130.454
 Electronic               0.000              0.000              0.000
 Translational            0.889              2.981             42.568
 Rotational               0.889              2.981             33.426
 Vibrational            250.820             63.574             54.459
 Vibration     1          0.593              1.985              6.170
 Vibration     2          0.596              1.974              4.495
 Vibration     3          0.599              1.967              4.074
 Vibration     4          0.600              1.961              3.806
 Vibration     5          0.605              1.945              3.363
 Vibration     6          0.612              1.921              2.913
 Vibration     7          0.622              1.890              2.539
 Vibration     8          0.626              1.878              2.425
 Vibration     9          0.659              1.773              1.776
 Vibration    10          0.663              1.762              1.728
 Vibration    11          0.680              1.710              1.533
 Vibration    12          0.689              1.683              1.444
 Vibration    13          0.711              1.620              1.271
 Vibration    14          0.718              1.601              1.224
 Vibration    15          0.737              1.548              1.108
 Vibration    16          0.745              1.525              1.062
 Vibration    17          0.752              1.507              1.029
 Vibration    18          0.776              1.445              0.920
 Vibration    19          0.795              1.394              0.843
 Vibration    20          0.799              1.385              0.830
 Vibration    21          0.843              1.279              0.692
 Vibration    22          0.847              1.270              0.681
 Vibration    23          0.862              1.235              0.642
 Vibration    24          0.864              1.230              0.636
 Vibration    25          0.898              1.155              0.559
 Vibration    26          0.918              1.112              0.519
 Vibration    27          0.944              1.059              0.472

                           ! Non-Optimized Parameters !
 Normal termination of Gaussian 16 at Sat Dec 12 10:12:59 2020.

 ----------------------------------------------------------------------
 # B3LYP/6-311++G(d,p) empiricaldispersion=gd3bj scf=xqc pop=npa geom=c
 heck
 ----------------------------------------------------------------------

 --------------------------------------
 CID_65915165_JID_9140_Energie_neutraal
 --------------------------------------
 Structure from the checkpoint file:  "JID_9140.chk"
 Charge =  0 Multiplicity = 1

 SCF Done:  E(RB3LYP) =  -809.186660003     A.U. after   15 cycles
 Normal termination of Gaussian 16 at Sat Dec 12 10:23:29 2020.

 ----------------------------------------------------------------------
 # B3LYP/6-311++G(d,p) empiricaldispersion=gd3bj scf=xqc pop=npa geom=c
 heck
 ----------------------------------------------------------------------

 ------------------------------------
 CID_65915165_JID_9140_Energie_kation
 ------------------------------------
 Structure from the checkpoint file:  "JID_9140.chk"
 Charge =  1 Multiplicity = 2

 SCF Done:  E(UB3LYP) =  -808.901276854     A.U. after   33 cycles
 SCF Done:  E(UB3LYP) =  -808.901276854     a.u. after    1 cycles
 Normal termination of Gaussian 16 at Sat Dec 12 10:54:40 2020.
 Gaussian 16:  ES64L-G16RevA.03 25-Dec-2016

 ----------------------------------------------------------------------
 # B3LYP/6-311++G(d,p) empiricaldispersion=gd3bj scf=xqc pop=npa geom=c
 heck
 ----------------------------------------------------------------------

 -----------------------------------
 CID_65915165_JID_9140_Energie_anion
 -----------------------------------
 Structure from the checkpoint file:  "JID_9140.chk"
 Charge = -1 Multiplicity = 2

                         Standard orientation:
 ---------------------------------------------------------------------
 Center     Atomic      Atomic             Coordinates (Angstroms)
 Number     Number       Type             X           Y           Z
 ---------------------------------------------------------------------
      1          6           0       -4.964884    1.282216    0.675254
      2          7           0       -4.216105    0.087280    0.309484
      3          6           0       -3.190802    0.292468   -0.718944
      4          6           0       -2.598325   -1.063372   -1.131026
      5          6           0       -1.702444   -1.654109   -0.033898
      6          6           0       -0.563744   -0.716959    0.432511
      7          6           0       -1.147601    0.657425    0.775091
      8          6           0       -2.038591    1.244289   -0.328295
      9          6           0        0.596466   -0.705603   -0.642077
     10          6           0        1.641125    0.365297   -0.385025
     11          6           0        1.435855    1.673283   -0.839463
     12          6           0        2.347251    2.688566   -0.557447
     13          6           0        3.499784    2.400482    0.173639
     14          6           0        3.738415    1.091850    0.587129
     15          6           0        2.823702    0.071471    0.313265
     16          6           0        3.126771   -1.369308    0.634934
     17          6           0        2.615463   -2.225793   -0.522668
     18          7           0        1.161615   -2.081978   -0.617787
     19          8           0       -0.008359   -1.231870    1.638956
     20          1           0       -5.477758    1.669019   -0.213585
     21          1           0       -4.365008    2.107706    1.097613
     22          1           0       -5.731085    1.014773    1.410600
     23          1           0       -3.793038   -0.313704    1.142942
     24          1           0       -3.715838    0.722082   -1.583210
     25          1           0       -2.018947   -0.926587   -2.054598
     26          1           0       -3.414111   -1.756536   -1.362694
     27          1           0       -1.278758   -2.612414   -0.356347
     28          1           0       -2.300767   -1.882420    0.856556
     29          1           0       -1.743130    0.519632    1.686705
     30          1           0       -0.344290    1.349258    1.041222
     31          1           0       -1.449273    1.447278   -1.230993
     32          1           0       -2.433164    2.213674   -0.002892
     33          1           0        0.150573   -0.504855   -1.624770
     34          1           0        0.549537    1.902453   -1.422687
     35          1           0        2.160833    3.697333   -0.914865
     36          1           0        4.219170    3.183226    0.397140
     37          1           0        4.655012    0.848334    1.119403
     38          1           0        2.634142   -1.677704    1.564869
     39          1           0        4.204645   -1.512991    0.766821
     40          1           0        2.831634   -3.286678   -0.351333
     41          1           0        3.144037   -1.921106   -1.442698
     42          1           0        0.812106   -2.608990   -1.410630
     43          1           0        0.441147   -2.046162    1.336022
 ---------------------------------------------------------------------

 SCF Done:  E(UB3LYP) =  -809.175445971     A.U. after   33 cycles
 SCF Done:  E(UB3LYP) =  -809.175445971     a.u. after    1 cycles

 The electronic state is 2-A.
 Alpha  occ. eigenvalues --  -19.01091 -14.20759 -14.20623 -10.12611 -10.10982
 Alpha  occ. eigenvalues --  -10.10092 -10.10083 -10.10036 -10.08656 -10.08494
 Alpha  occ. eigenvalues --  -10.08128 -10.07974 -10.07954 -10.07850 -10.07769
 Alpha  occ. eigenvalues --  -10.06921 -10.06641 -10.06604 -10.06482  -0.92324
 Alpha  occ. eigenvalues --   -0.81950  -0.81754  -0.76263  -0.72168  -0.68914
 Alpha  occ. eigenvalues --   -0.67261  -0.64970  -0.64184  -0.62422  -0.57547
 Alpha  occ. eigenvalues --   -0.56455  -0.53577  -0.51893  -0.51183  -0.49893
 Alpha  occ. eigenvalues --   -0.46210  -0.43528  -0.42252  -0.41575  -0.40693
 Alpha  occ. eigenvalues --   -0.39660  -0.38131  -0.37047  -0.36108  -0.35789
 Alpha  occ. eigenvalues --   -0.35010  -0.34692  -0.33605  -0.32398  -0.31489
 Alpha  occ. eigenvalues --   -0.31218  -0.30629  -0.29705  -0.29088  -0.28920
 Alpha  occ. eigenvalues --   -0.28474  -0.28157  -0.27584  -0.26339  -0.25106
 Alpha  occ. eigenvalues --   -0.24614  -0.23872  -0.23519  -0.23138  -0.22782
 Alpha  occ. eigenvalues --   -0.20777  -0.17182  -0.15735  -0.14995  -0.13582
 Alpha  occ. eigenvalues --   -0.13509   0.04100
 Alpha virt. eigenvalues --    0.05898   0.06253   0.06676   0.07457   0.07904
 Alpha virt. eigenvalues --    0.08032   0.08116   0.08876   0.09094   0.09439
 Alpha virt. eigenvalues --    0.10141   0.10201   0.10769   0.10954   0.11695

  Beta  occ. eigenvalues --  -19.01088 -14.20728 -14.20620 -10.12612 -10.10969
  Beta  occ. eigenvalues --  -10.10077 -10.10075 -10.10012 -10.08657 -10.08475
  Beta  occ. eigenvalues --  -10.08113 -10.07967 -10.07943 -10.07841 -10.07752
  Beta  occ. eigenvalues --  -10.06908 -10.06638 -10.06583 -10.06476  -0.92316
  Beta  occ. eigenvalues --   -0.81906  -0.81740  -0.76229  -0.72150  -0.68886
  Beta  occ. eigenvalues --   -0.67217  -0.64946  -0.64154  -0.62394  -0.57511
  Beta  occ. eigenvalues --   -0.56416  -0.53533  -0.51858  -0.51138  -0.49869
  Beta  occ. eigenvalues --   -0.46169  -0.43493  -0.42210  -0.41517  -0.40657
  Beta  occ. eigenvalues --   -0.39638  -0.38102  -0.37016  -0.36084  -0.35761
  Beta  occ. eigenvalues --   -0.34972  -0.34660  -0.33582  -0.32366  -0.31468
  Beta  occ. eigenvalues --   -0.31190  -0.30602  -0.29679  -0.29059  -0.28894
  Beta  occ. eigenvalues --   -0.28447  -0.28127  -0.27556  -0.26296  -0.25082
  Beta  occ. eigenvalues --   -0.24590  -0.23837  -0.23493  -0.23110  -0.22758
  Beta  occ. eigenvalues --   -0.20753  -0.17162  -0.15679  -0.14942  -0.13543
  Beta  occ. eigenvalues --   -0.13493
  Beta virt. eigenvalues --    0.06008   0.06391   0.07046   0.07209   0.07752
  Beta virt. eigenvalues --    0.08100   0.08175   0.08457   0.09146   0.09525
  Beta virt. eigenvalues --    0.09701   0.10365   0.10486   0.11055   0.11198

 Mulliken charges and spin densities:
               1          2
     1  C    0.048110  -0.400092
     2  N    0.031269  -0.039197
     3  C   -1.353777   1.005159
     4  C    1.203775  -1.618632
     5  C   -0.482599   0.330221
     6  C   -0.359913  -0.175840
     7  C   -0.567034   0.279760
     8  C    0.360801  -0.690097
     9  C    0.458740  -0.604893
    10  C    0.490823   0.072289
    11  C   -0.356081   0.261677
    12  C    0.362144  -0.816662
    13  C    0.335159  -0.665208
    14  C   -0.307744   0.187409
    15  C   -0.059175   0.201241
    16  C   -0.766562   0.156584
    17  C    1.103757  -1.516077
    18  N   -0.257764   0.033850
    19  O   -0.069081  -0.018373
    20  H   -0.075709   0.215326
    21  H    0.051756   0.061055
    22  H   -0.003208   0.128225
    23  H    0.318825  -0.112367
    24  H   -0.233246   0.466175
    25  H   -0.297509   0.437399
    26  H    0.051129   0.146535
    27  H    0.079582   0.080579
    28  H    0.009944   0.146408
    29  H    0.098643   0.126378
    30  H    0.324116  -0.159307
    31  H   -0.022245   0.143703
    32  H    0.052986   0.144385
    33  H   -0.059442   0.351652
    34  H   -0.259813   0.350683
    35  H   -0.279567   0.449834
    36  H   -0.058304   0.207400
    37  H   -0.080831   0.238220
    38  H    0.149244  -0.002547
    39  H   -0.042643   0.200602
    40  H   -0.388696   0.553814
    41  H   -0.144255   0.283735
    42  H   -0.274671   0.566574
    43  H    0.269068  -0.007579
 Sum of Mulliken charges =  -1.00000   1.00000

 Dipole moment (field-independent basis, Debye):
    X=             -0.6370    Y=              1.4664    Z=              4.7598  Tot=              5.0212
 Quadrupole moment (field-independent basis, Debye-Ang):
   XX=           -188.0286   YY=           -169.8660   ZZ=           -159.1106
   XY=              2.8901   XZ=             -1.7510   YZ=             -4.8747

 Summary of Natural Population Analysis:

                                       Natural Population
                Natural  -----------------------------------------------
    Atom  No    Charge         Core      Valence    Rydberg      Total
 -----------------------------------------------------------------------
      C    1   -0.17738      0.99966     2.17102    0.00670     3.17738
      N    2   -0.34216      0.99974     2.83128    0.01114     3.84216
      C    3   -0.00821      0.99958     1.99427    0.01436     3.00821
      C    4   -0.19354      0.99960     2.18338    0.01056     3.19354
      C    5   -0.20512      0.99957     2.19486    0.01069     3.20512
      C    6    0.13920      0.99949     1.84415    0.01716     2.86080
      C    7   -0.20267      0.99957     2.19309    0.01001     3.20267
      C    8   -0.19972      0.99960     2.19123    0.00889     3.19972
      C    9   -0.02502      0.99950     2.00985    0.01567     3.02502
      C   10   -0.01369      0.99945     2.00255    0.01169     3.01369
      C   11   -0.09287      0.99951     2.08376    0.00960     3.09287
      C   12   -0.10430      0.99956     2.09486    0.00988     3.10430
      C   13   -0.10015      0.99956     2.09157    0.00902     3.10015
      C   14   -0.09904      0.99951     2.09021    0.00933     3.09904
      C   15   -0.00842      0.99946     1.99877    0.01019     3.00842
      C   16   -0.20132      0.99959     2.19294    0.00879     3.20132
      C   17   -0.07890      0.99962     2.06758    0.01170     3.07890
      N   18   -0.35866      0.99973     2.84567    0.01326     3.85866
      O   19   -0.38590      0.99989     3.37984    0.00617     4.38590
      H   20    0.09158      0.00000     0.40724    0.00118     0.40842
      H   21    0.07803      0.00000     0.42038    0.00159     0.42197
      H   22    0.09150      0.00000     0.40767    0.00083     0.40850
      H   23    0.17055      0.00000     0.32649    0.00296     0.32945
      H   24    0.09499      0.00000     0.40375    0.00127     0.40501
      H   25    0.10007      0.00000     0.39806    0.00186     0.39993
      H   26    0.10392      0.00000     0.39469    0.00139     0.39608
      H   27    0.10612      0.00000     0.39251    0.00137     0.39388
      H   28    0.09746      0.00000     0.40122    0.00132     0.40254
      H   29    0.09874      0.00000     0.39982    0.00144     0.40126
      H   30    0.11114      0.00000     0.38786    0.00100     0.38886
      H   31    0.09873      0.00000     0.39946    0.00181     0.40127
      H   32    0.09924      0.00000     0.39971    0.00105     0.40076
      H   33    0.10368      0.00000     0.39333    0.00299     0.39632
      H   34    0.10216      0.00000     0.39596    0.00188     0.39784
      H   35    0.10078      0.00000     0.39826    0.00096     0.39922
      H   36    0.09864      0.00000     0.40056    0.00080     0.40136
      H   37    0.09740      0.00000     0.40127    0.00132     0.40260
      H   38    0.10556      0.00000     0.39310    0.00134     0.39444
      H   39    0.10242      0.00000     0.39655    0.00103     0.39758
      H   40    0.09619      0.00000     0.40237    0.00144     0.40381
      H   41    0.08305      0.00000     0.41511    0.00184     0.41695
      H   42    0.18923      0.00000     0.30547    0.00529     0.31077
      H   43    0.23669      0.00000     0.26007    0.00325     0.26331
 =======================================================================
   * Total *    0.00000     18.99218    51.76179    0.24603    71.00000

 Normal termination of Gaussian 16 at Sat Dec 12 11:26:11 2020.
