 Gaussian 16, Revision A.03,

 -----------------------------------------------------------
 # opt freq B3LYP/6-31G(d) empiricaldispersion=gd3bj scf=xqc
 -----------------------------------------------------------

 -------------------------------
 CID_152013070_JID_2969_neutraal
 -------------------------------
 Symbolic Z-matrix:
 Charge =  0 Multiplicity = 1

 SCF Done:  E(RB3LYP) =  -585.530265010     A.U. after   15 cycles
 SCF Done:  E(RB3LYP) =  -585.541259941     A.U. after   15 cycles
 SCF Done:  E(RB3LYP) =  -585.542433016     A.U. after   13 cycles
 SCF Done:  E(RB3LYP) =  -585.542708861     A.U. after   13 cycles
 SCF Done:  E(RB3LYP) =  -585.542975973     A.U. after   12 cycles
 SCF Done:  E(RB3LYP) =  -585.543036255     A.U. after   11 cycles
 SCF Done:  E(RB3LYP) =  -585.543090540     A.U. after   12 cycles
 SCF Done:  E(RB3LYP) =  -585.543100361     A.U. after   11 cycles
 SCF Done:  E(RB3LYP) =  -585.543129878     A.U. after   11 cycles
 SCF Done:  E(RB3LYP) =  -585.543795553     A.U. after   16 cycles
 SCF Done:  E(RB3LYP) =  -585.548024316     A.U. after   15 cycles
 SCF Done:  E(RB3LYP) =  -585.550049110     A.U. after   13 cycles
 SCF Done:  E(RB3LYP) =  -585.550061130     A.U. after   12 cycles
 SCF Done:  E(RB3LYP) =  -585.550073099     A.U. after   12 cycles
 SCF Done:  E(RB3LYP) =  -585.550098406     A.U. after   11 cycles
 SCF Done:  E(RB3LYP) =  -585.550098814     A.U. after    8 cycles
 Optimization completed.
    -- Stationary point found.
 Normal termination of Gaussian 16 at Wed Dec  9 18:20:22 2020.

 --------------------------------------------------------------------
 #N Geom=AllCheck Guess=TCheck SCRF=Check GenChk RB3LYP/6-31G(d) Freq
 --------------------------------------------------------------------

 Structure from the checkpoint file:  "JID_2969.chk"
 -------------------------------
 CID_152013070_JID_2969_neutraal
 -------------------------------
 Charge =  0 Multiplicity = 1

 SCF Done:  E(RB3LYP) =  -585.550098814     A.U. after    1 cycles

  Exact polarizability: 150.560   7.611  90.945   0.906  -1.254  49.947
 Approx polarizability: 220.354  27.815 163.717   6.580  -1.153  80.555

                      1                      2                      3
                      A                      A                      A
 Frequencies --     40.7620                87.9085               113.0692
 Red. masses --      6.1619                 6.7930                 4.1905
 Frc consts  --      0.0060                 0.0309                 0.0316
 IR Inten    --      0.1203                 0.1122                 0.7620

                      4                      5                      6
                      A                      A                      A
 Frequencies --    138.6118               223.8016               259.2175
 Red. masses --      3.7726                 3.4592                 4.5352
 Frc consts  --      0.0427                 0.1021                 0.1795
 IR Inten    --      3.3914                 1.1184                 0.7618

                      7                      8                      9
                      A                      A                      A
 Frequencies --    291.5136               335.5207               366.1458
 Red. masses --      3.7716                 4.7314                 7.3556
 Frc consts  --      0.1888                 0.3138                 0.5810
 IR Inten    --      2.0997                 0.1419                12.2829

                     10                     11                     12
                      A                      A                      A
 Frequencies --    443.4322               469.5928               549.2043
 Red. masses --      2.6370                 3.9025                13.8881
 Frc consts  --      0.3055                 0.5070                 2.4681
 IR Inten    --      9.7870                 7.0073                 9.3619

                     13                     14                     15
                      A                      A                      A
 Frequencies --    584.7098               594.8278               627.6204
 Red. masses --      6.5598                 6.3409                 3.8233
 Frc consts  --      1.3214                 1.3219                 0.8873
 IR Inten    --     12.7916                 2.1656                 0.1971

                     16                     17                     18
                      A                      A                      A
 Frequencies --    695.6030               771.8103               789.4276
 Red. masses --      6.1493                 2.0348                 1.5934
 Frc consts  --      1.7531                 0.7141                 0.5850
 IR Inten    --     14.7206                 3.7592                 7.1793

                     19                     20                     21
                      A                      A                      A
 Frequencies --    812.8585               852.6631               913.4302
 Red. masses --      2.9754                 2.3977                10.2558
 Frc consts  --      1.1583                 1.0271                 5.0416
 IR Inten    --     13.1532                54.1184                24.9691

                     22                     23                     24
                      A                      A                      A
 Frequencies --    968.9904               991.4306               998.0408
 Red. masses --      2.6680                 4.5128                 1.4327
 Frc consts  --      1.4760                 2.6135                 0.8408
 IR Inten    --      8.1470                 3.7557                 6.8812

                     25                     26                     27
                      A                      A                      A
 Frequencies --   1041.1920              1050.3957              1091.6140
 Red. masses --      3.0346                 2.1182                 6.1908
 Frc consts  --      1.9383                 1.3770                 4.3465
 IR Inten    --     58.0287                41.2696               368.8097

                     28                     29                     30
                      A                      A                      A
 Frequencies --   1097.8191              1127.6780              1160.1528
 Red. masses --      1.0785                 4.2903                 2.1110
 Frc consts  --      0.7658                 3.2145                 1.6740
 IR Inten    --     13.9799                17.8103                23.3545

                     31                     32                     33
                      A                      A                      A
 Frequencies --   1162.1082              1179.6336              1233.3614
 Red. masses --      1.8622                 1.4313                 1.3392
 Frc consts  --      1.4818                 1.1734                 1.2003
 IR Inten    --     25.9622                14.2794                30.4845

                     34                     35                     36
                      A                      A                      A
 Frequencies --   1281.4518              1351.9192              1369.6820
 Red. masses --      1.8053                 4.8628                 1.7868
 Frc consts  --      1.7467                 5.2364                 1.9749
 IR Inten    --      8.1047               128.3768                19.2040

                     37                     38                     39
                      A                      A                      A
 Frequencies --   1377.4221              1408.9748              1455.6734
 Red. masses --      2.3548                 1.3694                 1.8993
 Frc consts  --      2.6323                 1.6017                 2.3712
 IR Inten    --     27.9503                11.8065                85.0395

                     40                     41                     42
                      A                      A                      A
 Frequencies --   1469.8884              1596.9122              1661.2849
 Red. masses --      1.1347                 1.1113                 7.7761
 Frc consts  --      1.4445                 1.6698                12.6445
 IR Inten    --     18.5912                15.2443                12.6191

                     43                     44                     45
                      A                      A                      A
 Frequencies --   1723.8988              2269.6732              3008.5583
 Red. masses --      6.4394                13.9692                 1.0695
 Frc consts  --     11.2750                42.3982                 5.7036
 IR Inten    --      2.2868               606.7286                10.2105

                     46                     47                     48
                      A                      A                      A
 Frequencies --   3011.5792              3052.2695              3096.6047
 Red. masses --      1.0518                 1.1182                 1.0904
 Frc consts  --      5.6207                 6.1378                 6.1602
 IR Inten    --    154.0907                69.6591                 9.6568

                     49                     50                     51
                      A                      A                      A
 Frequencies --   3194.2486              3202.3068              3221.1591
 Red. masses --      1.0907                 1.0866                 1.0977
 Frc consts  --      6.5569                 6.5653                 6.7103
 IR Inten    --      7.5517                 2.7987                 7.5820

 - Thermochemistry -
 -------------------
 Temperature   298.150 Kelvin.  Pressure   1.00000 Atm.
 Atom     1 has atomic number  6 and mass  12.00000

 Molecular mass:   165.05383 amu.
 Principal axes and moments of inertia in atomic units:
                           1         2         3
     Eigenvalues --   588.930873713.216293977.80822
           X            0.99999  -0.00229  -0.00423
           Y            0.00221   0.99980  -0.01962
           Z            0.00428   0.01961   0.99980
 This molecule is an asymmetric top.
 Rotational symmetry number  1.
 Warning -- assumption of classical behavior for rotation
           may cause significant error
 Rotational temperatures (Kelvin)      0.14707     0.02333     0.02177
 Rotational constants (GHZ):           3.06444     0.48603     0.45370
 Zero-point vibrational energy     369751.7 (Joules/Mol)
                                   88.37277 (Kcal/Mol)
 Warning -- explicit consideration of  14 degrees of freedom as
           vibrations may cause significant error
 Vibrational temperatures:     58.65   126.48   162.68   199.43   322.00
          (Kelvin)            372.96   419.42   482.74   526.80   638.00
                              675.64   790.18   841.27   855.82   903.01
                             1000.82  1110.46  1135.81  1169.52  1226.79
                             1314.22  1394.16  1426.45  1435.96  1498.04
                             1511.29  1570.59  1579.52  1622.48  1669.20
                             1672.01  1697.23  1774.53  1843.72  1945.11
                             1970.67  1981.80  2027.20  2094.39  2114.84
                             2297.60  2390.22  2480.31  3265.55  4328.64
                             4332.99  4391.53  4455.32  4595.81  4607.41
                             4634.53

 Zero-point correction=                           0.140831 (Hartree/Particle)
 Thermal correction to Energy=                    0.150845
 Thermal correction to Enthalpy=                  0.151789
 Thermal correction to Gibbs Free Energy=         0.104382
 Sum of electronic and zero-point Energies=           -585.409268
 Sum of electronic and thermal Energies=              -585.399254
 Sum of electronic and thermal Enthalpies=            -585.398310
 Sum of electronic and thermal Free Energies=         -585.445717

                     E (Thermal)             CV                S
                      KCal/Mol        Cal/Mol-Kelvin    Cal/Mol-Kelvin
 Total                   94.657             37.391             99.776
 Electronic               0.000              0.000              0.000
 Translational            0.889              2.981             41.212
 Rotational               0.889              2.981             30.543
 Vibrational             92.879             31.430             28.022
 Vibration     1          0.594              1.981              5.222
 Vibration     2          0.601              1.958              3.706
 Vibration     3          0.607              1.939              3.216
 Vibration     4          0.614              1.915              2.823
 Vibration     5          0.649              1.805              1.928
 Vibration     6          0.668              1.747              1.667
 Vibration     7          0.687              1.690              1.465
 Vibration     8          0.717              1.605              1.233
 Vibration     9          0.739              1.542              1.096
 Vibration    10          0.803              1.375              0.816
 Vibration    11          0.827              1.318              0.739
 Vibration    12          0.904              1.141              0.546
 Vibration    13          0.942              1.064              0.477
 Vibration    14          0.953              1.043              0.459

 Optimization completed.
    -- Stationary point found.
 Normal termination of Gaussian 16 at Wed Dec  9 18:24:18 2020.

 ----------------------------------------------------------------------
 # B3LYP/6-311++G(d,p) empiricaldispersion=gd3bj scf=xqc pop=npa geom=c
 heck
 ----------------------------------------------------------------------

 ---------------------------------------
 CID_152013070_JID_2969_Energie_neutraal
 ---------------------------------------
 Structure from the checkpoint file:  "JID_2969.chk"
 Charge =  0 Multiplicity = 1

 SCF Done:  E(RB3LYP) =  -585.712630246     A.U. after   16 cycles
 Normal termination of Gaussian 16 at Wed Dec  9 18:25:38 2020.

 ----------------------------------------------------------------------
 # B3LYP/6-311++G(d,p) empiricaldispersion=gd3bj scf=xqc pop=npa geom=c
 heck
 ----------------------------------------------------------------------

 -------------------------------------
 CID_152013070_JID_2969_Energie_kation
 -------------------------------------
 Structure from the checkpoint file:  "JID_2969.chk"
 Charge =  1 Multiplicity = 2

 SCF Done:  E(UB3LYP) =  -585.407612294     A.U. after   25 cycles
 Normal termination of Gaussian 16 at Wed Dec  9 18:28:53 2020.
 Gaussian 16:  ES64L-G16RevA.03 25-Dec-2016

 ----------------------------------------------------------------------
 # B3LYP/6-311++G(d,p) empiricaldispersion=gd3bj scf=xqc pop=npa geom=c
 heck
 ----------------------------------------------------------------------

 ------------------------------------
 CID_152013070_JID_2969_Energie_anion
 ------------------------------------
 Structure from the checkpoint file:  "JID_2969.chk"
 Charge = -1 Multiplicity = 2

                         Standard orientation:
 ---------------------------------------------------------------------
 Center     Atomic      Atomic             Coordinates (Angstroms)
 Number     Number       Type             X           Y           Z
 ---------------------------------------------------------------------
      1          6           0        0.602887   -1.134180    0.546170
      2          6           0       -0.847480   -0.871404    0.263066
      3          6           0       -1.289321    0.389960    0.101143
      4          6           0       -0.368225    1.525499    0.150788
      5          6           0        0.959577    1.348388    0.208929
      6          6           0        1.557735   -0.019417    0.130755
      7          8           0        2.189696   -0.237617   -1.163307
      8          6           0        3.429304   -0.329573   -0.469804
      9          8           0        2.827690   -0.134726    0.809004
     10          7           0       -2.640922    0.780951   -0.113559
     11          7           0       -3.490937   -0.115955   -0.173709
     12          7           0       -4.360632   -0.849779   -0.248536
     13          1           0        0.941705   -2.063307    0.075902
     14          1           0        0.743267   -1.265770    1.631586
     15          1           0       -1.531204   -1.715730    0.256917
     16          1           0       -0.808198    2.517947    0.124490
     17          1           0        1.651939    2.184017    0.219954
     18          1           0        3.911401   -1.312826   -0.571794
     19          1           0        4.132580    0.472262   -0.738277
 ---------------------------------------------------------------------

 SCF Done:  E(UB3LYP) =  -585.723265269     A.U. after   29 cycles

 The electronic state is 2-A.
 Alpha  occ. eigenvalues --  -18.99970 -18.99348 -14.32499 -14.22924 -14.21761
 Alpha  occ. eigenvalues --  -10.14918 -10.13613 -10.04778 -10.03057 -10.01192
 Alpha  occ. eigenvalues --   -9.99667  -9.99387  -0.99374  -0.99348  -0.83670
 Alpha  occ. eigenvalues --   -0.82808  -0.68980  -0.61429  -0.59748  -0.54139
 Alpha  occ. eigenvalues --   -0.48287  -0.45301  -0.40141  -0.38106  -0.37931
 Alpha  occ. eigenvalues --   -0.36799  -0.36620  -0.35387  -0.32298  -0.31423
 Alpha  occ. eigenvalues --   -0.29218  -0.27645  -0.27008  -0.25600  -0.22462
 Alpha  occ. eigenvalues --   -0.20676  -0.20041  -0.19483  -0.17464  -0.16301
 Alpha  occ. eigenvalues --   -0.12254  -0.11774  -0.06607   0.05219
 Alpha virt. eigenvalues --    0.08768   0.10272   0.10654   0.11081   0.12421
 Alpha virt. eigenvalues --    0.12461   0.13222   0.13709   0.14932   0.15153
 Alpha virt. eigenvalues --    0.16549   0.17941   0.18796   0.19527   0.19846

  Beta  occ. eigenvalues --  -18.99938 -18.99270 -14.32280 -14.22630 -14.21892
  Beta  occ. eigenvalues --  -10.14898 -10.13586 -10.04727 -10.03098 -10.01033
  Beta  occ. eigenvalues --   -9.99350  -9.98920  -0.99257  -0.98967  -0.83549
  Beta  occ. eigenvalues --   -0.82665  -0.68487  -0.61119  -0.59101  -0.53936
  Beta  occ. eigenvalues --   -0.47728  -0.44950  -0.39878  -0.37871  -0.37803
  Beta  occ. eigenvalues --   -0.36544  -0.35765  -0.35109  -0.32024  -0.30820
  Beta  occ. eigenvalues --   -0.28989  -0.27313  -0.26626  -0.25306  -0.22220
  Beta  occ. eigenvalues --   -0.20286  -0.19447  -0.19046  -0.17227  -0.16271
  Beta  occ. eigenvalues --   -0.11672  -0.10971  -0.04494
  Beta virt. eigenvalues --    0.08700   0.10365   0.10625   0.11050   0.11172
  Beta virt. eigenvalues --    0.12446   0.12749   0.13390   0.14091   0.15050
  Beta virt. eigenvalues --    0.16358   0.16583   0.17989   0.18880   0.19529

 Mulliken charges and spin densities:
               1          2
     1  C   -0.834569  -0.061109
     2  C    0.777511   0.435371
     3  C   -1.608646  -0.025281
     4  C    0.861516   0.149978
     5  C   -0.303800   0.268290
     6  C   -0.640717   0.015261
     7  O   -0.090472  -0.009915
     8  C    0.164249   0.054555
     9  O   -0.141103  -0.004957
    10  N    0.310039  -0.045614
    11  N    0.080560   0.065749
    12  N   -0.441076   0.155694
    13  H    0.110707   0.010137
    14  H    0.134708   0.042234
    15  H    0.151801  -0.022463
    16  H    0.164210  -0.008988
    17  H    0.107620  -0.018361
    18  H    0.104255  -0.002058
    19  H    0.093206   0.001474
 Sum of Mulliken charges =  -1.00000   1.00000

 Dipole moment (field-independent basis, Debye):
    X=              3.8875    Y=             -0.4702    Z=              0.0666  Tot=              3.9164
 Quadrupole moment (field-independent basis, Debye-Ang):
   XX=           -109.3181   YY=            -78.4245   ZZ=            -82.3358
   XY=             -4.6540   XZ=             -3.5392   YZ=             -1.0976

 Summary of Natural Population Analysis:

                                       Natural Population
                Natural  -----------------------------------------------
    Atom  No    Charge         Core      Valence    Rydberg      Total
 -----------------------------------------------------------------------
      C    1   -0.21954      0.99957     2.21155    0.00842     3.21954
      C    2   -0.02641      0.99950     2.01744    0.00947     3.02641
      C    3    0.04382      0.99938     1.94480    0.01200     2.95618
      C    4   -0.06364      0.99951     2.05487    0.00926     3.06364
      C    5   -0.07235      0.99948     2.06249    0.01037     3.07235
      C    6    0.29336      0.99954     1.68428    0.02282     2.70664
      O    7   -0.30971      0.99989     3.30091    0.00891     4.30971
      C    8    0.15777      0.99966     1.82747    0.01510     2.84223
      O    9   -0.31563      0.99989     3.30656    0.00918     4.31563
      N   10   -0.19615      0.99966     2.68261    0.01389     3.69615
      N   11    0.14001      0.99971     2.34352    0.01676     3.35999
      N   12   -0.03557      0.99982     2.52177    0.01398     3.53557
      H   13    0.10345      0.00000     0.39525    0.00130     0.39655
      H   14    0.11425      0.00000     0.38452    0.00123     0.38575
      H   15    0.08599      0.00000     0.41221    0.00179     0.41401
      H   16    0.09250      0.00000     0.40562    0.00188     0.40750
      H   17    0.08891      0.00000     0.40996    0.00114     0.41109
      H   18    0.05902      0.00000     0.43906    0.00192     0.44098
      H   19    0.05991      0.00000     0.43820    0.00189     0.44009
 =======================================================================
   * Total *   -0.00000     11.99559    30.84309    0.16131    43.00000

 Normal termination of Gaussian 16 at Wed Dec  9 18:32:37 2020.
