 Gaussian 16, Revision A.03,

 -----------------------------------------------------------
 # opt freq B3LYP/6-31G(d) empiricaldispersion=gd3bj scf=xqc
 -----------------------------------------------------------

 ------------------------------
 CID_79019739_JID_8674_neutraal
 ------------------------------
 Symbolic Z-matrix:
 Charge =  0 Multiplicity = 1

 SCF Done:  E(RB3LYP) =  -748.561567159     A.U. after   14 cycles
 SCF Done:  E(RB3LYP) =  -748.568101657     A.U. after   13 cycles
 SCF Done:  E(RB3LYP) =  -748.569680429     A.U. after   12 cycles
 SCF Done:  E(RB3LYP) =  -748.570433264     A.U. after   12 cycles
 SCF Done:  E(RB3LYP) =  -748.570601828     A.U. after   11 cycles
 SCF Done:  E(RB3LYP) =  -748.570586748     A.U. after   11 cycles
 SCF Done:  E(RB3LYP) =  -748.570637068     A.U. after   11 cycles
 SCF Done:  E(RB3LYP) =  -748.570681647     A.U. after   11 cycles
 SCF Done:  E(RB3LYP) =  -748.570693150     A.U. after   10 cycles
 SCF Done:  E(RB3LYP) =  -748.570695772     A.U. after    8 cycles
 SCF Done:  E(RB3LYP) =  -748.570700394     A.U. after    9 cycles
 SCF Done:  E(RB3LYP) =  -748.570700666     A.U. after    7 cycles
 SCF Done:  E(RB3LYP) =  -748.570700741     A.U. after    7 cycles
 SCF Done:  E(RB3LYP) =  -748.570700807     A.U. after    7 cycles
 SCF Done:  E(RB3LYP) =  -748.570700837     A.U. after    7 cycles
 Optimization completed.
    -- Stationary point found.
 Normal termination of Gaussian 16 at Fri Dec 11 21:36:42 2020.

 --------------------------------------------------------------------
 #N Geom=AllCheck Guess=TCheck SCRF=Check GenChk RB3LYP/6-31G(d) Freq
 --------------------------------------------------------------------

 Structure from the checkpoint file:  "JID_8674.chk"
 ------------------------------
 CID_79019739_JID_8674_neutraal
 ------------------------------
 Charge =  0 Multiplicity = 1

 SCF Done:  E(RB3LYP) =  -748.570700837     A.U. after    1 cycles

  Exact polarizability: 229.340 -16.250 178.949   0.361   7.529 115.466
 Approx polarizability: 313.857 -21.498 276.604  -2.569  12.352 183.887

                      1                      2                      3
                      A                      A                      A
 Frequencies --     25.8804                32.8278                45.9487
 Red. masses --      3.3587                 3.9945                 3.8572
 Frc consts  --      0.0013                 0.0025                 0.0048
 IR Inten    --      0.5035                 0.1050                 0.4183

                      4                      5                      6
                      A                      A                      A
 Frequencies --     70.3891                95.4555               117.8946
 Red. masses --      4.0965                 3.1089                 1.1629
 Frc consts  --      0.0120                 0.0167                 0.0095
 IR Inten    --      0.4063                 1.3684                 0.1863

                      7                      8                      9
                      A                      A                      A
 Frequencies --    120.4728               136.1465               139.8011
 Red. masses --      2.9400                 1.3790                 1.4083
 Frc consts  --      0.0251                 0.0151                 0.0162
 IR Inten    --      3.3980                 1.2588                 2.0846

                     10                     11                     12
                      A                      A                      A
 Frequencies --    160.0832               176.5751               190.9392
 Red. masses --      2.5558                 1.2464                 2.8365
 Frc consts  --      0.0386                 0.0229                 0.0609
 IR Inten    --      0.6633                 0.8127                 1.2776

                     13                     14                     15
                      A                      A                      A
 Frequencies --    222.1349               252.2406               281.1441
 Red. masses --      1.5386                 2.1604                 3.4578
 Frc consts  --      0.0447                 0.0810                 0.1610
 IR Inten    --     31.3724                10.7070                 1.2368

                     16                     17                     18
                      A                      A                      A
 Frequencies --    293.6875               306.6962               311.6183
 Red. masses --      2.8906                 2.1571                 3.0204
 Frc consts  --      0.1469                 0.1195                 0.1728
 IR Inten    --      4.1553                 8.7748                 2.1729

                     19                     20                     21
                      A                      A                      A
 Frequencies --    324.7490               355.1083               425.1859
 Red. masses --      3.2888                 3.3551                 2.5117
 Frc consts  --      0.2044                 0.2493                 0.2675
 IR Inten    --      1.9277                 2.9206                 5.7728

                     22                     23                     24
                      A                      A                      A
 Frequencies --    444.6626               461.6278               492.9908
 Red. masses --      3.2627                 3.0719                 2.5195
 Frc consts  --      0.3801                 0.3857                 0.3608
 IR Inten    --      0.9946                 2.7005                 1.9010

                     25                     26                     27
                      A                      A                      A
 Frequencies --    519.4368               562.5416               584.1686
 Red. masses --      3.5740                 5.4516                 3.7637
 Frc consts  --      0.5682                 1.0165                 0.7567
 IR Inten    --      1.1143                 0.8348                 1.0934

                     28                     29                     30
                      A                      A                      A
 Frequencies --    600.2477               659.9798               672.0546
 Red. masses --      3.5540                 6.9656                 5.1115
 Frc consts  --      0.7544                 1.7876                 1.3602
 IR Inten    --      3.2098                 1.6813                 0.6019

                     31                     32                     33
                      A                      A                      A
 Frequencies --    703.8593               726.2505               737.0669
 Red. masses --      4.8193                 2.7454                 2.4891
 Frc consts  --      1.4067                 0.8532                 0.7967
 IR Inten    --     11.8603                 2.8039                11.2104

                     34                     35                     36
                      A                      A                      A
 Frequencies --    773.3381               794.6625               813.4959
 Red. masses --      1.6821                 2.7079                 2.7929
 Frc consts  --      0.5927                 1.0075                 1.0890
 IR Inten    --     14.5304                30.0482                 1.7005

                     37                     38                     39
                      A                      A                      A
 Frequencies --    839.2869               850.4248               879.4488
 Red. masses --      3.1292                 1.8611                 1.4279
 Frc consts  --      1.2987                 0.7930                 0.6507
 IR Inten    --      0.0444                25.9221               120.1139

                     40                     41                     42
                      A                      A                      A
 Frequencies --    882.0372               947.1764               956.6213
 Red. masses --      1.3227                 1.3565                 1.8366
 Frc consts  --      0.6063                 0.7170                 0.9902
 IR Inten    --      1.9336                 1.9811                27.1033

                     43                     44                     45
                      A                      A                      A
 Frequencies --    983.1093              1009.3550              1018.2369
 Red. masses --      1.2589                 1.6598                 1.9226
 Frc consts  --      0.7169                 0.9963                 1.1745
 IR Inten    --      0.0262                 1.2745                 4.4189

                     46                     47                     48
                      A                      A                      A
 Frequencies --   1023.2148              1040.9052              1055.4157
 Red. masses --      1.6502                 1.7606                 2.7569
 Frc consts  --      1.0179                 1.1239                 1.8093
 IR Inten    --      1.7261                15.6794                21.4843

                     49                     50                     51
                      A                      A                      A
 Frequencies --   1075.3241              1076.5086              1079.5272
 Red. masses --      1.4792                 1.5053                 1.5254
 Frc consts  --      1.0077                 1.0278                 1.0474
 IR Inten    --      2.5367                 1.2788                 4.3292

                     52                     53                     54
                      A                      A                      A
 Frequencies --   1080.7422              1093.9760              1132.7056
 Red. masses --      2.0044                 2.0839                 2.3603
 Frc consts  --      1.3793                 1.4694                 1.7842
 IR Inten    --      1.7833                 6.3164                 6.0634

                     55                     56                     57
                      A                      A                      A
 Frequencies --   1153.7180              1171.0722              1180.8663
 Red. masses --      1.6116                 3.2277                 1.4510
 Frc consts  --      1.2639                 2.6080                 1.1921
 IR Inten    --      1.0185                14.8366                 2.2186

                     58                     59                     60
                      A                      A                      A
 Frequencies --   1195.5494              1220.0030              1235.9713
 Red. masses --      1.0970                 2.0672                 2.0093
 Frc consts  --      0.9238                 1.8128                 1.8085
 IR Inten    --      0.3001                 2.8116                 0.1452

                     61                     62                     63
                      A                      A                      A
 Frequencies --   1239.2833              1291.5221              1311.6304
 Red. masses --      2.1455                 1.3687                 1.8437
 Frc consts  --      1.9414                 1.3452                 1.8688
 IR Inten    --      6.6446                 1.4124                 3.5583

                     64                     65                     66
                      A                      A                      A
 Frequencies --   1337.4745              1352.9593              1365.0198
 Red. masses --      2.2828                 6.5984                 1.2247
 Frc consts  --      2.4060                 7.1164                 1.3445
 IR Inten    --      7.7552                 1.7671                 5.2123

                     67                     68                     69
                      A                      A                      A
 Frequencies --   1385.7470              1398.9212              1417.8975
 Red. masses --      1.4850                 1.4429                 3.2248
 Frc consts  --      1.6801                 1.6636                 3.8199
 IR Inten    --      5.7492                15.3366                61.3535

                     70                     71                     72
                      A                      A                      A
 Frequencies --   1437.3528              1444.0869              1445.2567
 Red. masses --      1.3827                 1.2756                 1.2680
 Frc consts  --      1.6830                 1.5673                 1.5605
 IR Inten    --      6.7087                 1.3309                 3.7903

                     73                     74                     75
                      A                      A                      A
 Frequencies --   1449.5387              1484.9738              1495.2110
 Red. masses --      1.4477                 2.3670                 1.9651
 Frc consts  --      1.7922                 3.0753                 2.5884
 IR Inten    --      8.1216                26.7177                15.9619

                     76                     77                     78
                      A                      A                      A
 Frequencies --   1502.3800              1506.3269              1512.1318
 Red. masses --      1.1018                 1.0805                 1.0644
 Frc consts  --      1.4652                 1.4445                 1.4339
 IR Inten    --      2.6333                 8.7202                 7.6458

                     79                     80                     81
                      A                      A                      A
 Frequencies --   1513.1684              1516.3327              1522.7739
 Red. masses --      1.1478                 1.7461                 1.2119
 Frc consts  --      1.5484                 2.3654                 1.6557
 IR Inten    --      9.1676                 2.2494                 9.4269

                     82                     83                     84
                      A                      A                      A
 Frequencies --   1525.4873              1529.1591              1534.1686
 Red. masses --      1.2031                 1.3394                 1.6435
 Frc consts  --      1.6495                 1.8453                 2.2792
 IR Inten    --      6.0441                21.8195                 4.8291

                     85                     86                     87
                      A                      A                      A
 Frequencies --   1537.8643              1558.8775              1630.5558
 Red. masses --      1.0927                 3.1652                 6.3009
 Frc consts  --      1.5227                 4.5319                 9.8702
 IR Inten    --      7.5350                89.3907                26.5453

                     88                     89                     90
                      A                      A                      A
 Frequencies --   1643.2612              1667.4058              1701.4715
 Red. masses --      6.1184                 6.0543                 1.0876
 Frc consts  --      9.7343                 9.9174                 1.8550
 IR Inten    --      2.3028                10.1516                20.4164

                     91                     92                     93
                      A                      A                      A
 Frequencies --   2973.2731              3037.5621              3043.0435
 Red. masses --      1.0724                 1.0613                 1.0430
 Frc consts  --      5.5859                 5.7697                 5.6903
 IR Inten    --     64.8381                25.6967                30.4439

                     94                     95                     96
                      A                      A                      A
 Frequencies --   3043.9955              3047.2521              3059.5581
 Red. masses --      1.0466                 1.0549                 1.0369
 Frc consts  --      5.7136                 5.7712                 5.7190
 IR Inten    --      3.9348                45.0032                19.6053

                     97                     98                     99
                      A                      A                      A
 Frequencies --   3071.6228              3076.6980              3092.2672
 Red. masses --      1.0975                 1.0901                 1.1013
 Frc consts  --      6.1008                 6.0800                 6.2044
 IR Inten    --     24.1596                71.7860                27.3014

                    100                    101                    102
                      A                      A                      A
 Frequencies --   3094.9864              3102.3861              3121.4174
 Red. masses --      1.1031                 1.0936                 1.0995
 Frc consts  --      6.2258                 6.2015                 6.3116
 IR Inten    --     50.7654                14.6886                16.7483

                    103                    104                    105
                      A                      A                      A
 Frequencies --   3133.4499              3140.8312              3143.4661
 Red. masses --      1.1016                 1.1029                 1.0995
 Frc consts  --      6.3724                 6.4103                 6.4015
 IR Inten    --     18.0377                15.3226                11.7450

                    106                    107                    108
                      A                      A                      A
 Frequencies --   3182.9617              3194.5010              3205.7028
 Red. masses --      1.0864                 1.0888                 1.0928
 Frc consts  --      6.4850                 6.5463                 6.6167
 IR Inten    --      6.5425                 9.1304                32.7971

                    109                    110                    111
                      A                      A                      A
 Frequencies --   3216.6505              3477.6769              3562.0190
 Red. masses --      1.0971                 1.0503                 1.0908
 Frc consts  --      6.6879                 7.4842                 8.1546
 IR Inten    --     15.0528                 2.2633                 0.2713

 - Thermochemistry -
 -------------------
 Temperature   298.150 Kelvin.  Pressure   1.00000 Atm.
 Atom     1 has atomic number  6 and mass  12.00000

 Molecular mass:   243.17355 amu.
 Principal axes and moments of inertia in atomic units:
                           1         2         3
     Eigenvalues --  2403.448337014.102878520.22722
           X            0.99998   0.00435   0.00543
           Y           -0.00436   0.99999   0.00136
           Z           -0.00542  -0.00138   0.99998
 This molecule is an asymmetric top.
 Rotational symmetry number  1.
 Warning -- assumption of classical behavior for rotation
           may cause significant error
 Rotational temperatures (Kelvin)      0.03604     0.01235     0.01017
 Rotational constants (GHZ):           0.75090     0.25730     0.21182
 Zero-point vibrational energy     891768.9 (Joules/Mol)
                                  213.13789 (Kcal/Mol)
 Warning -- explicit consideration of  28 degrees of freedom as
           vibrations may cause significant error
 Vibrational temperatures:     37.24    47.23    66.11   101.27   137.34
          (Kelvin)            169.62   173.33   195.88   201.14   230.32
                              254.05   274.72   319.60   362.92   404.50
                              422.55   441.27   448.35   467.24   510.92
                              611.75   639.77   664.18   709.30   747.35
                              809.37   840.49   863.62   949.56   966.94
                             1012.70  1044.91  1060.47  1112.66  1143.34
                             1170.44  1207.55  1223.57  1265.33  1269.05
                             1362.78  1376.36  1414.47  1452.24  1465.02
                             1472.18  1497.63  1518.51  1547.15  1548.86
                             1553.20  1554.95  1573.99  1629.71  1659.94
                             1684.91  1699.00  1720.13  1755.31  1778.29
                             1783.05  1858.21  1887.14  1924.33  1946.61
                             1963.96  1993.78  2012.74  2040.04  2068.03
                             2077.72  2079.40  2085.56  2136.55  2151.28
                             2161.59  2167.27  2175.62  2177.11  2181.66
                             2190.93  2194.84  2200.12  2207.33  2212.64
                             2242.88  2346.01  2364.29  2399.02  2448.04
                             4277.88  4370.37  4378.26  4379.63  4384.32
                             4402.02  4419.38  4426.68  4449.08  4453.00
                             4463.64  4491.02  4508.34  4518.96  4522.75
                             4579.57  4596.17  4612.29  4628.04  5003.60
                             5124.95

 Zero-point correction=                           0.339657 (Hartree/Particle)
 Thermal correction to Energy=                    0.358146
 Thermal correction to Enthalpy=                  0.359090
 Thermal correction to Gibbs Free Energy=         0.292192
 Sum of electronic and zero-point Energies=           -748.231044
 Sum of electronic and thermal Energies=              -748.212555
 Sum of electronic and thermal Enthalpies=            -748.211610
 Sum of electronic and thermal Free Energies=         -748.278509

                     E (Thermal)             CV                S
                      KCal/Mol        Cal/Mol-Kelvin    Cal/Mol-Kelvin
 Total                  224.740             69.369            140.800
 Electronic               0.000              0.000              0.000
 Translational            0.889              2.981             42.367
 Rotational               0.889              2.981             33.329
 Vibrational            222.963             63.407             65.104
 Vibration     1          0.593              1.985              6.123
 Vibration     2          0.594              1.983              5.651
 Vibration     3          0.595              1.979              4.985
 Vibration     4          0.598              1.968              4.142
 Vibration     5          0.603              1.952              3.545
 Vibration     6          0.608              1.934              3.135
 Vibration     7          0.609              1.932              3.093
 Vibration     8          0.614              1.917              2.857
 Vibration     9          0.615              1.914              2.807
 Vibration    10          0.622              1.891              2.549
 Vibration    11          0.628              1.871              2.364
 Vibration    12          0.634              1.852              2.219
 Vibration    13          0.648              1.807              1.942
 Vibration    14          0.664              1.759              1.715
 Vibration    15          0.681              1.709              1.527
 Vibration    16          0.688              1.686              1.453
 Vibration    17          0.697              1.661              1.380
 Vibration    18          0.700              1.652              1.354
 Vibration    19          0.709              1.626              1.286
 Vibration    20          0.731              1.565              1.143
 Vibration    21          0.787              1.415              0.875
 Vibration    22          0.804              1.373              0.812
 Vibration    23          0.819              1.335              0.761
 Vibration    24          0.849              1.266              0.676
 Vibration    25          0.874              1.207              0.611
 Vibration    26          0.918              1.112              0.519
 Vibration    27          0.941              1.066              0.478
 Vibration    28          0.958              1.031              0.449

                           ! Non-Optimized Parameters !
 Normal termination of Gaussian 16 at Fri Dec 11 21:57:24 2020.

 ----------------------------------------------------------------------
 # B3LYP/6-311++G(d,p) empiricaldispersion=gd3bj scf=xqc pop=npa geom=c
 heck
 ----------------------------------------------------------------------

 --------------------------------------
 CID_79019739_JID_8674_Energie_neutraal
 --------------------------------------
 Structure from the checkpoint file:  "JID_8674.chk"
 Charge =  0 Multiplicity = 1

 SCF Done:  E(RB3LYP) =  -748.772398988     A.U. after   15 cycles
 Normal termination of Gaussian 16 at Fri Dec 11 22:07:01 2020.

 ----------------------------------------------------------------------
 # B3LYP/6-311++G(d,p) empiricaldispersion=gd3bj scf=xqc pop=npa geom=c
 heck
 ----------------------------------------------------------------------

 ------------------------------------
 CID_79019739_JID_8674_Energie_kation
 ------------------------------------
 Structure from the checkpoint file:  "JID_8674.chk"
 Charge =  1 Multiplicity = 2

 SCF Done:  E(UB3LYP) =  -748.489237543     A.U. after   27 cycles
 Normal termination of Gaussian 16 at Fri Dec 11 22:31:01 2020.
 Gaussian 16:  ES64L-G16RevA.03 25-Dec-2016

 ----------------------------------------------------------------------
 # B3LYP/6-311++G(d,p) empiricaldispersion=gd3bj scf=xqc pop=npa geom=c
 heck
 ----------------------------------------------------------------------

 -----------------------------------
 CID_79019739_JID_8674_Energie_anion
 -----------------------------------
 Structure from the checkpoint file:  "JID_8674.chk"
 Charge = -1 Multiplicity = 2

                         Standard orientation:
 ---------------------------------------------------------------------
 Center     Atomic      Atomic             Coordinates (Angstroms)
 Number     Number       Type             X           Y           Z
 ---------------------------------------------------------------------
      1          6           0        2.762187    1.951188    0.939631
      2          6           0        2.957339    0.600274    0.302346
      3          6           0        4.232794    0.041048    0.171451
      4          6           0        4.427136   -1.220645   -0.391435
      5          6           0        3.333387   -1.955213   -0.846595
      6          6           0        2.053899   -1.413518   -0.742445
      7          6           0        1.868815   -0.153168   -0.171530
      8          7           0        0.547204    0.361897   -0.062452
      9          6           0       -0.522562   -0.200491    0.590314
     10          6           0       -1.590710    0.662664    0.402102
     11          6           0       -1.064884    1.727582   -0.383739
     12          7           0        0.224047    1.544593   -0.658291
     13          6           0       -1.780287    2.945059   -0.879588
     14          6           0       -3.003770    0.509921    0.882615
     15          6           0       -3.984697    0.039358   -0.213603
     16          6           0       -3.640654   -1.322155   -0.817844
     17          7           0       -3.757259   -2.390204    0.185449
     18          6           0       -0.422975   -1.477482    1.361036
     19          1           0        3.692184    2.297859    1.399814
     20          1           0        2.431672    2.688943    0.203053
     21          1           0        1.984734    1.913875    1.710943
     22          1           0        5.088436    0.606363    0.531569
     23          1           0        5.431008   -1.627658   -0.471837
     24          1           0        3.472858   -2.936083   -1.291142
     25          1           0        1.189489   -1.953404   -1.115669
     26          1           0       -2.551541    2.690501   -1.616871
     27          1           0       -2.280309    3.475642   -0.059899
     28          1           0       -1.068363    3.627215   -1.351314
     29          1           0       -3.043439   -0.191079    1.725796
     30          1           0       -3.363299    1.469087    1.277732
     31          1           0       -4.994817   -0.010216    0.210157
     32          1           0       -4.001588    0.784023   -1.019640
     33          1           0       -4.360044   -1.543272   -1.615073
     34          1           0       -2.645743   -1.262689   -1.292296
     35          1           0       -3.633730   -3.295337   -0.265005
     36          1           0       -2.997791   -2.312031    0.858369
     37          1           0       -1.162119   -1.485454    2.168417
     38          1           0       -0.603538   -2.360188    0.734398
     39          1           0        0.567880   -1.596634    1.809249
 ---------------------------------------------------------------------

 SCF Done:  E(UB3LYP) =  -748.761101490     A.U. after   33 cycles
 SCF Done:  E(UB3LYP) =  -748.761101490     a.u. after    1 cycles

 The electronic state is 2-A.
 Alpha  occ. eigenvalues --  -14.28889 -14.22615 -14.19443 -10.12385 -10.11548
 Alpha  occ. eigenvalues --  -10.09919 -10.09900 -10.09348 -10.08714 -10.08574
 Alpha  occ. eigenvalues --  -10.08513 -10.08439 -10.08311 -10.08290 -10.08083
 Alpha  occ. eigenvalues --  -10.07633 -10.07365 -10.06953  -0.95051  -0.78862
 Alpha  occ. eigenvalues --   -0.78586  -0.74211  -0.72091  -0.68791  -0.67487
 Alpha  occ. eigenvalues --   -0.65699  -0.61951  -0.61535  -0.59449  -0.57959
 Alpha  occ. eigenvalues --   -0.52527  -0.50705  -0.49519  -0.46235  -0.45961
 Alpha  occ. eigenvalues --   -0.42694  -0.40084  -0.39471  -0.39291  -0.38066
 Alpha  occ. eigenvalues --   -0.35661  -0.34986  -0.34199  -0.33879  -0.33154
 Alpha  occ. eigenvalues --   -0.32895  -0.32475  -0.32102  -0.31667  -0.31025
 Alpha  occ. eigenvalues --   -0.30302  -0.30101  -0.29972  -0.27612  -0.27046
 Alpha  occ. eigenvalues --   -0.26626  -0.25855  -0.25381  -0.24902  -0.24636
 Alpha  occ. eigenvalues --   -0.19394  -0.17787  -0.16174  -0.15061  -0.14330
 Alpha  occ. eigenvalues --   -0.13305   0.04061
 Alpha virt. eigenvalues --    0.05850   0.06277   0.06476   0.07005   0.07445
 Alpha virt. eigenvalues --    0.07563   0.08036   0.08923   0.09196   0.09585
 Alpha virt. eigenvalues --    0.09896   0.10569   0.10979   0.11156   0.11318

  Beta  occ. eigenvalues --  -14.28889 -14.22605 -14.19406 -10.12365 -10.11539
  Beta  occ. eigenvalues --  -10.09915 -10.09900 -10.09330 -10.08701 -10.08562
  Beta  occ. eigenvalues --  -10.08489 -10.08422 -10.08279 -10.08270 -10.08068
  Beta  occ. eigenvalues --  -10.07624 -10.07358 -10.06950  -0.95040  -0.78829
  Beta  occ. eigenvalues --   -0.78532  -0.74187  -0.72064  -0.68760  -0.67450
  Beta  occ. eigenvalues --   -0.65665  -0.61920  -0.61481  -0.59414  -0.57914
  Beta  occ. eigenvalues --   -0.52486  -0.50667  -0.49478  -0.46203  -0.45928
  Beta  occ. eigenvalues --   -0.42658  -0.40040  -0.39426  -0.39251  -0.38031
  Beta  occ. eigenvalues --   -0.35622  -0.34947  -0.34158  -0.33840  -0.33120
  Beta  occ. eigenvalues --   -0.32869  -0.32441  -0.32075  -0.31642  -0.30993
  Beta  occ. eigenvalues --   -0.30277  -0.30077  -0.29940  -0.27587  -0.26994
  Beta  occ. eigenvalues --   -0.26597  -0.25821  -0.25359  -0.24877  -0.24608
  Beta  occ. eigenvalues --   -0.19365  -0.17709  -0.16137  -0.15020  -0.14286
  Beta  occ. eigenvalues --   -0.13272
  Beta virt. eigenvalues --    0.05957   0.06437   0.06628   0.07092   0.07266
  Beta virt. eigenvalues --    0.07638   0.07948   0.08259   0.09231   0.09534
  Beta virt. eigenvalues --    0.09957   0.10085   0.10696   0.11139   0.11296

 Mulliken charges and spin densities:
               1          2
     1  C    0.500491  -1.137577
     2  C   -0.602899   0.993838
     3  C   -0.240977   0.012671
     4  C    0.772437  -1.183901
     5  C    1.112748  -1.325796
     6  C   -0.094440   0.350226
     7  C   -1.119037   0.682109
     8  N    0.613580  -0.117297
     9  C   -1.430249   1.278395
    10  C    0.328417   0.385696
    11  C    0.204678  -0.335240
    12  N   -0.159242   0.169048
    13  C    0.139756  -0.940990
    14  C   -0.634756  -0.071868
    15  C   -0.156039  -0.096935
    16  C    0.318960  -0.801522
    17  N   -0.369063   0.028377
    18  C    1.070282  -1.635568
    19  H   -0.064513   0.201850
    20  H    0.195260  -0.009507
    21  H    0.083990   0.091260
    22  H   -0.226589   0.377782
    23  H   -0.379711   0.540373
    24  H   -0.574683   0.765070
    25  H   -0.094900   0.280555
    26  H    0.039700   0.110413
    27  H    0.012987   0.145258
    28  H    0.109608   0.045735
    29  H    0.028199   0.132282
    30  H    0.036586   0.101358
    31  H    0.006540   0.134818
    32  H    0.137063  -0.016940
    33  H   -0.103142   0.275648
    34  H   -0.057833   0.191783
    35  H   -0.174305   0.419922
    36  H    0.238920  -0.037508
    37  H   -0.173244   0.312206
    38  H   -0.367765   0.590985
    39  H    0.073184   0.092991
 Sum of Mulliken charges =  -1.00000   1.00000

 Dipole moment (field-independent basis, Debye):
    X=             -1.0052    Y=              6.3523    Z=              0.9336  Tot=              6.4987
 Quadrupole moment (field-independent basis, Debye-Ang):
   XX=           -197.9276   YY=           -169.2084   ZZ=           -140.4026
   XY=             -3.3013   XZ=              4.7555   YZ=             -1.8559

 Summary of Natural Population Analysis:

                                       Natural Population
                Natural  -----------------------------------------------
    Atom  No    Charge         Core      Valence    Rydberg      Total
 -----------------------------------------------------------------------
      C    1   -0.30196      0.99966     2.29500    0.00730     3.30196
      C    2    0.03379      0.99949     1.96078    0.00594     2.96621
      C    3   -0.11751      0.99955     2.10224    0.01572     3.11751
      C    4   -0.09450      0.99956     2.08490    0.01004     3.09450
      C    5   -0.10032      0.99956     2.09060    0.01016     3.10032
      C    6   -0.09523      0.99952     2.08622    0.00948     3.09523
      C    7    0.06123      0.99945     1.92206    0.01726     2.93877
      N    8   -0.11733      0.99959     2.60431    0.01344     3.61733
      C    9    0.09792      0.99946     1.89109    0.01152     2.90208
      C   10   -0.07339      0.99941     2.06267    0.01131     3.07339
      C   11    0.08009      0.99954     1.90696    0.01341     2.91991
      N   12   -0.15954      0.99970     2.64931    0.01054     3.65954
      C   13   -0.29739      0.99963     2.29320    0.00456     3.29739
      C   14   -0.19837      0.99960     2.19075    0.00803     3.19837
      C   15   -0.18622      0.99962     2.17908    0.00752     3.18622
      C   16   -0.09178      0.99963     2.08090    0.01125     3.09178
      N   17   -0.42555      0.99977     2.91529    0.01049     3.92555
      C   18   -0.30788      0.99963     2.30203    0.00622     3.30788
      H   19    0.09767      0.00000     0.40154    0.00079     0.40233
      H   20    0.11463      0.00000     0.38406    0.00131     0.38537
      H   21    0.10605      0.00000     0.39288    0.00108     0.39395
      H   22    0.09953      0.00000     0.39949    0.00099     0.40047
      H   23    0.10184      0.00000     0.39694    0.00121     0.39816
      H   24    0.10478      0.00000     0.39363    0.00159     0.39522
      H   25    0.10864      0.00000     0.38949    0.00187     0.39136
      H   26    0.10191      0.00000     0.39656    0.00153     0.39809
      H   27    0.10155      0.00000     0.39713    0.00132     0.39845
      H   28    0.10809      0.00000     0.39087    0.00104     0.39191
      H   29    0.10136      0.00000     0.39727    0.00137     0.39864
      H   30    0.10206      0.00000     0.39677    0.00117     0.39794
      H   31    0.09709      0.00000     0.40166    0.00125     0.40291
      H   32    0.09430      0.00000     0.40442    0.00128     0.40570
      H   33    0.08974      0.00000     0.40921    0.00105     0.41026
      H   34    0.08243      0.00000     0.41573    0.00184     0.41757
      H   35    0.17832      0.00000     0.31910    0.00258     0.32168
      H   36    0.17218      0.00000     0.32508    0.00274     0.32782
      H   37    0.10649      0.00000     0.39236    0.00115     0.39351
      H   38    0.11236      0.00000     0.38486    0.00277     0.38764
      H   39    0.11316      0.00000     0.38569    0.00115     0.38684
 =======================================================================
   * Total *    0.00022     17.99237    47.79211    0.21530    65.99978

 Normal termination of Gaussian 16 at Fri Dec 11 23:01:07 2020.
