 Gaussian 16, Revision A.03,

 -----------------------------------------------------------
 # opt freq B3LYP/6-31G(d) empiricaldispersion=gd3bj scf=xqc
 -----------------------------------------------------------

 -----------------------------
 CID_24975002_JID_972_neutraal
 -----------------------------
 Symbolic Z-matrix:
 Charge =  0 Multiplicity = 1

 SCF Done:  E(RB3LYP) =  -443.844162867     A.U. after   14 cycles
 SCF Done:  E(RB3LYP) =  -443.856882724     A.U. after   12 cycles
 SCF Done:  E(RB3LYP) =  -443.860567779     A.U. after   13 cycles
 SCF Done:  E(RB3LYP) =  -443.861589876     A.U. after   13 cycles
 SCF Done:  E(RB3LYP) =  -443.862892869     A.U. after   13 cycles
 SCF Done:  E(RB3LYP) =  -443.863124357     A.U. after   12 cycles
 SCF Done:  E(RB3LYP) =  -443.863183781     A.U. after   12 cycles
 SCF Done:  E(RB3LYP) =  -443.863236329     A.U. after   10 cycles
 SCF Done:  E(RB3LYP) =  -443.863240085     A.U. after    9 cycles
 SCF Done:  E(RB3LYP) =  -443.863240400     A.U. after    7 cycles
 SCF Done:  E(RB3LYP) =  -443.863240476     A.U. after    7 cycles
 Optimization completed.
    -- Stationary point found.
 Normal termination of Gaussian 16 at Tue Dec  8 13:37:19 2020.

 --------------------------------------------------------------------
 #N Geom=AllCheck Guess=TCheck SCRF=Check GenChk RB3LYP/6-31G(d) Freq
 --------------------------------------------------------------------

 Structure from the checkpoint file:  "JID_972.chk"
 -----------------------------
 CID_24975002_JID_972_neutraal
 -----------------------------
 Charge =  0 Multiplicity = 1

 SCF Done:  E(RB3LYP) =  -443.863240476     A.U. after    1 cycles

  Exact polarizability: 103.594   0.814  90.875  -0.058   0.623  76.930
 Approx polarizability: 141.235  -2.658 125.216  -1.039   0.923 114.778

                      1                      2                      3
                      A                      A                      A
 Frequencies --     74.3711               106.2001               154.8106
 Red. masses --      3.3707                 2.7325                 2.8679
 Frc consts  --      0.0110                 0.0182                 0.0405
 IR Inten    --      2.5027                 0.7879                 1.0905

                      4                      5                      6
                      A                      A                      A
 Frequencies --    178.3572               193.3452               217.8149
 Red. masses --      1.3912                 1.7134                 1.1489
 Frc consts  --      0.0261                 0.0377                 0.0321
 IR Inten    --      0.5136                 1.1438                 0.7191

                      7                      8                      9
                      A                      A                      A
 Frequencies --    237.7587               257.5171               266.2695
 Red. masses --      1.9463                 1.0483                 2.0653
 Frc consts  --      0.0648                 0.0410                 0.0863
 IR Inten    --      0.8348                 0.1438                 0.8898

                     10                     11                     12
                      A                      A                      A
 Frequencies --    277.0939               321.7403               361.2546
 Red. masses --      1.7244                 2.3088                 2.9763
 Frc consts  --      0.0780                 0.1408                 0.2288
 IR Inten    --      0.7179                 0.3543                 1.9552

                     13                     14                     15
                      A                      A                      A
 Frequencies --    364.2897               425.0506               495.3045
 Red. masses --      2.6121                 3.1628                 2.8109
 Frc consts  --      0.2042                 0.3367                 0.4063
 IR Inten    --      5.9712                 1.3214                 0.7190

                     16                     17                     18
                      A                      A                      A
 Frequencies --    514.4704               595.4809               653.5500
 Red. masses --      1.8104                 2.8485                 3.4578
 Frc consts  --      0.2823                 0.5951                 0.8702
 IR Inten    --      1.1737                 1.4459                 1.3940

                     19                     20                     21
                      A                      A                      A
 Frequencies --    726.9654               759.7640               884.7146
 Red. masses --      3.2787                 2.4304                 2.6739
 Frc consts  --      1.0209                 0.8266                 1.2331
 IR Inten    --      1.0628                 3.8680                 9.1977

                     22                     23                     24
                      A                      A                      A
 Frequencies --    936.2275               967.4224               976.2481
 Red. masses --      3.3050                 2.3613                 1.4100
 Frc consts  --      1.7068                 1.3021                 0.7917
 IR Inten    --     22.4995                 2.9303                 0.3772

                     25                     26                     27
                      A                      A                      A
 Frequencies --    991.1701              1017.0158              1074.6781
 Red. masses --      2.1288                 1.4528                 1.5863
 Frc consts  --      1.2322                 0.8854                 1.0795
 IR Inten    --      2.2063                 9.2643                15.0111

                     28                     29                     30
                      A                      A                      A
 Frequencies --   1082.8300              1105.8145              1134.1404
 Red. masses --      2.6931                 1.9616                 1.2616
 Frc consts  --      1.8605                 1.4133                 0.9561
 IR Inten    --     51.8024                31.8277                 5.2694

                     31                     32                     33
                      A                      A                      A
 Frequencies --   1143.7287              1176.5115              1197.1697
 Red. masses --      1.5625                 1.7657                 1.8814
 Frc consts  --      1.2043                 1.4400                 1.5887
 IR Inten    --      0.7465                 3.7490                14.1997

                     34                     35                     36
                      A                      A                      A
 Frequencies --   1218.0961              1242.6418              1255.6785
 Red. masses --      2.0063                 1.7911                 3.2581
 Frc consts  --      1.7539                 1.6296                 3.0267
 IR Inten    --      9.1038                 4.1175                17.0306

                     37                     38                     39
                      A                      A                      A
 Frequencies --   1269.7768              1324.6689              1328.4231
 Red. masses --      1.8775                 2.2715                 2.4716
 Frc consts  --      1.7836                 2.3484                 2.5698
 IR Inten    --      0.9379                17.4125                14.8034

                     40                     41                     42
                      A                      A                      A
 Frequencies --   1400.9151              1425.1406              1444.0197
 Red. masses --      1.3633                 1.2338                 1.2085
 Frc consts  --      1.5764                 1.4764                 1.4847
 IR Inten    --     45.2038                 5.3768                11.0019

                     43                     44                     45
                      A                      A                      A
 Frequencies --   1466.2537              1470.1030              1500.8024
 Red. masses --      1.1405                 1.1398                 1.1824
 Frc consts  --      1.4447                 1.4513                 1.5692
 IR Inten    --      2.4896                 6.9697                 0.9401

                     46                     47                     48
                      A                      A                      A
 Frequencies --   1510.7100              1510.8068              1515.9121
 Red. masses --      1.0465                 1.0553                 1.0478
 Frc consts  --      1.4072                 1.4192                 1.4186
 IR Inten    --      4.9890                 1.9402                 5.8154

                     49                     50                     51
                      A                      A                      A
 Frequencies --   1525.0475              1529.5611              1532.9872
 Red. masses --      1.0525                 1.0529                 1.0570
 Frc consts  --      1.4423                 1.4513                 1.4635
 IR Inten    --      0.1992                15.8528                14.8155

                     52                     53                     54
                      A                      A                      A
 Frequencies --   1533.6454              1542.8955              1887.6273
 Red. masses --      1.0572                 1.0575                12.3593
 Frc consts  --      1.4651                 1.4833                25.9463
 IR Inten    --      9.0706                 5.6341               252.1451

                     55                     56                     57
                      A                      A                      A
 Frequencies --   2919.6588              2938.2140              2948.9642
 Red. masses --      1.0815                 1.0615                 1.0631
 Frc consts  --      5.4318                 5.3995                 5.4470
 IR Inten    --     35.2848                34.6646               155.8154

                     58                     59                     60
                      A                      A                      A
 Frequencies --   3046.9356              3059.9341              3067.5972
 Red. masses --      1.0350                 1.0357                 1.0618
 Frc consts  --      5.6616                 5.7134                 5.8867
 IR Inten    --     24.5060                19.0821                 2.6317

                     61                     62                     63
                      A                      A                      A
 Frequencies --   3087.5901              3092.7947              3113.4200
 Red. masses --      1.0721                 1.0720                 1.1024
 Frc consts  --      6.0219                 6.0415                 6.2961
 IR Inten    --     26.2234                39.9886                23.1140

                     64                     65                     66
                      A                      A                      A
 Frequencies --   3122.2244              3125.2309              3135.6122
 Red. masses --      1.1025                 1.1025                 1.1023
 Frc consts  --      6.3322                 6.3443                 6.3854
 IR Inten    --      9.3869                43.5248                27.7489

                     67                     68                     69
                      A                      A                      A
 Frequencies --   3136.9051              3142.8821              3147.7431
 Red. masses --      1.1025                 1.1016                 1.1000
 Frc consts  --      6.3922                 6.4111                 6.4218
 IR Inten    --     17.2995                 9.3417                32.1009

 - Thermochemistry -
 -------------------
 Temperature   298.150 Kelvin.  Pressure   1.00000 Atm.
 Atom     1 has atomic number  6 and mass  12.00000

 Molecular mass:   141.11536 amu.
 Principal axes and moments of inertia in atomic units:
                           1         2         3
     Eigenvalues --   866.605291780.091202201.77186
           X            0.99916   0.04085   0.00447
           Y           -0.04084   0.99916  -0.00360
           Z           -0.00462   0.00341   0.99998
 This molecule is an asymmetric top.
 Rotational symmetry number  1.
 Warning -- assumption of classical behavior for rotation
           may cause significant error
 Rotational temperatures (Kelvin)      0.09995     0.04866     0.03934
 Rotational constants (GHZ):           2.08254     1.01385     0.81968
 Zero-point vibrational energy     582524.5 (Joules/Mol)
                                  139.22671 (Kcal/Mol)
 Warning -- explicit consideration of  17 degrees of freedom as
           vibrations may cause significant error
 Vibrational temperatures:    107.00   152.80   222.74   256.62   278.18
          (Kelvin)            313.39   342.08   370.51   383.10   398.68
                              462.91   519.76   524.13   611.55   712.63
                              740.21   856.76   940.31  1045.94  1093.13
                             1272.91  1347.02  1391.91  1404.60  1426.07
                             1463.26  1546.22  1557.95  1591.02  1631.78
                             1645.57  1692.74  1722.46  1752.57  1787.88
                             1806.64  1826.93  1905.90  1911.30  2015.60
                             2050.46  2077.62  2109.61  2115.15  2159.32
                             2173.57  2173.71  2181.06  2194.20  2200.70
                             2205.63  2206.57  2219.88  2715.87  4200.74
                             4227.43  4242.90  4383.86  4402.56  4413.59
                             4442.35  4449.84  4479.52  4492.18  4496.51
                             4511.45  4513.31  4521.91  4528.90

 Zero-point correction=                           0.221872 (Hartree/Particle)
 Thermal correction to Energy=                    0.233309
 Thermal correction to Enthalpy=                  0.234253
 Thermal correction to Gibbs Free Energy=         0.185804
 Sum of electronic and zero-point Energies=           -443.641369
 Sum of electronic and thermal Energies=              -443.629932
 Sum of electronic and thermal Enthalpies=            -443.628987
 Sum of electronic and thermal Free Energies=         -443.677437

                     E (Thermal)             CV                S
                      KCal/Mol        Cal/Mol-Kelvin    Cal/Mol-Kelvin
 Total                  146.404             42.786            101.971
 Electronic               0.000              0.000              0.000
 Translational            0.889              2.981             40.745
 Rotational               0.889              2.981             29.609
 Vibrational            144.626             36.824             31.618
 Vibration     1          0.599              1.966              4.034
 Vibration     2          0.605              1.944              3.337
 Vibration     3          0.620              1.897              2.612
 Vibration     4          0.629              1.869              2.346
 Vibration     5          0.635              1.849              2.196
 Vibration     6          0.646              1.814              1.977
 Vibration     7          0.656              1.783              1.820
 Vibration     8          0.667              1.750              1.679
 Vibration     9          0.672              1.735              1.620
 Vibration    10          0.678              1.716              1.552
 Vibration    11          0.707              1.632              1.301
 Vibration    12          0.735              1.552              1.117
 Vibration    13          0.738              1.546              1.104
 Vibration    14          0.787              1.416              0.875
 Vibration    15          0.851              1.260              0.670
 Vibration    16          0.870              1.218              0.623
 Vibration    17          0.953              1.041              0.457

                           ! Non-Optimized Parameters !
 Normal termination of Gaussian 16 at Tue Dec  8 13:42:42 2020.

 ----------------------------------------------------------------------
 # B3LYP/6-311++G(d,p) empiricaldispersion=gd3bj scf=xqc pop=npa geom=c
 heck
 ----------------------------------------------------------------------

 -------------------------------------
 CID_24975002_JID_972_Energie_neutraal
 -------------------------------------
 Structure from the checkpoint file:  "JID_972.chk"
 Charge =  0 Multiplicity = 1

 SCF Done:  E(RB3LYP) =  -443.990591703     A.U. after   13 cycles
 Normal termination of Gaussian 16 at Tue Dec  8 13:46:37 2020.

 ----------------------------------------------------------------------
 # B3LYP/6-311++G(d,p) empiricaldispersion=gd3bj scf=xqc pop=npa geom=c
 heck
 ----------------------------------------------------------------------

 -----------------------------------
 CID_24975002_JID_972_Energie_kation
 -----------------------------------
 Structure from the checkpoint file:  "JID_972.chk"
 Charge =  1 Multiplicity = 2

 SCF Done:  E(UB3LYP) =  -443.684250883     A.U. after   22 cycles
 Normal termination of Gaussian 16 at Tue Dec  8 13:52:05 2020.
 Gaussian 16:  ES64L-G16RevA.03 25-Dec-2016

 ----------------------------------------------------------------------
 # B3LYP/6-311++G(d,p) empiricaldispersion=gd3bj scf=xqc pop=npa geom=c
 heck
 ----------------------------------------------------------------------

 ----------------------------------
 CID_24975002_JID_972_Energie_anion
 ----------------------------------
 Structure from the checkpoint file:  "JID_972.chk"
 Charge = -1 Multiplicity = 2

                         Standard orientation:
 ---------------------------------------------------------------------
 Center     Atomic      Atomic             Coordinates (Angstroms)
 Number     Number       Type             X           Y           Z
 ---------------------------------------------------------------------
      1          6           0        1.372029    1.594571   -0.966487
      2          6           0        0.853111    0.545088    0.010667
      3          6           0       -0.402090   -0.306110   -0.428620
      4          6           0        0.344288   -1.615530   -0.043808
      5          6           0        1.628252   -0.785175    0.005546
      6          8           0        2.803266   -1.050279   -0.040606
      7          7           0       -1.662730   -0.056415    0.240683
      8          6           0       -2.225247    1.226637   -0.164420
      9          6           0       -2.621530   -1.127782   -0.002659
     10          6           0        0.771201    1.087230    1.445811
     11          1           0        2.389100    1.894848   -0.692408
     12          1           0        0.737012    2.488235   -0.960195
     13          1           0        1.402758    1.205495   -1.990088
     14          1           0       -0.508156   -0.250131   -1.530104
     15          1           0        0.320929   -2.462531   -0.734426
     16          1           0        0.065408   -1.958141    0.960177
     17          1           0       -2.471283    1.262889   -1.243752
     18          1           0       -3.142747    1.419477    0.401087
     19          1           0       -1.519067    2.032579    0.048024
     20          1           0       -2.885732   -1.234824   -1.072951
     21          1           0       -2.217049   -2.082198    0.345326
     22          1           0       -3.541648   -0.924311    0.555090
     23          1           0        1.774444    1.357055    1.792602
     24          1           0        0.142651    1.982394    1.490619
     25          1           0        0.346271    0.352719    2.134896
 ---------------------------------------------------------------------

 SCF Done:  E(UB3LYP) =  -443.974757001     A.U. after   33 cycles
 SCF Done:  E(UB3LYP) =  -443.974757001     a.u. after    1 cycles

 The electronic state is 2-A.
 Alpha  occ. eigenvalues --  -19.01382 -14.20183 -10.14771 -10.09937 -10.08342
 Alpha  occ. eigenvalues --  -10.07643 -10.07572 -10.07093 -10.06210 -10.06077
 Alpha  occ. eigenvalues --   -0.94375  -0.82624  -0.74209  -0.65108  -0.59684
 Alpha  occ. eigenvalues --   -0.58989  -0.55871  -0.51440  -0.46728  -0.39963
 Alpha  occ. eigenvalues --   -0.38215  -0.37585  -0.36816  -0.34328  -0.33325
 Alpha  occ. eigenvalues --   -0.32130  -0.31456  -0.29796  -0.29340  -0.28510
 Alpha  occ. eigenvalues --   -0.28029  -0.27467  -0.26221  -0.25580  -0.23728
 Alpha  occ. eigenvalues --   -0.22961  -0.20769  -0.13956  -0.11728   0.04915
 Alpha virt. eigenvalues --    0.07032   0.07471   0.08210   0.08376   0.10067
 Alpha virt. eigenvalues --    0.10374   0.10654   0.11044   0.11477   0.13140
 Alpha virt. eigenvalues --    0.13246   0.13760   0.13953   0.14516   0.15079

  Beta  occ. eigenvalues --  -19.01327 -14.20164 -10.14691 -10.09926 -10.08345
  Beta  occ. eigenvalues --  -10.07600 -10.07529 -10.07083 -10.06186 -10.06034
  Beta  occ. eigenvalues --   -0.94260  -0.82588  -0.74134  -0.65055  -0.59610
  Beta  occ. eigenvalues --   -0.58924  -0.55780  -0.51349  -0.46615  -0.39870
  Beta  occ. eigenvalues --   -0.38117  -0.37524  -0.36749  -0.34223  -0.33259
  Beta  occ. eigenvalues --   -0.32060  -0.31385  -0.29721  -0.29276  -0.28455
  Beta  occ. eigenvalues --   -0.27969  -0.27350  -0.26136  -0.25517  -0.23636
  Beta  occ. eigenvalues --   -0.22860  -0.20733  -0.13895  -0.11640
  Beta virt. eigenvalues --    0.07362   0.07747   0.08339   0.08884   0.09075
  Beta virt. eigenvalues --    0.10573   0.10914   0.11303   0.11598   0.11956
  Beta virt. eigenvalues --    0.13620   0.13708   0.14036   0.14271   0.14979

 Mulliken charges and spin densities:
               1          2
     1  C    0.422205  -0.970137
     2  C    0.162808   0.648837
     3  C   -1.637488   0.869677
     4  C    0.671412  -1.014636
     5  C   -0.399582   0.267133
     6  O   -0.334281   0.030391
     7  N   -0.006298   0.238977
     8  C    0.933436  -1.270060
     9  C    1.199961  -1.448895
    10  C    0.360928  -0.960430
    11  H    0.020818   0.129358
    12  H   -0.015817   0.161274
    13  H   -0.105532   0.245375
    14  H   -0.029656   0.189708
    15  H   -0.284018   0.493521
    16  H    0.227433  -0.072778
    17  H   -0.348913   0.474477
    18  H   -0.457388   0.615385
    19  H    0.032648   0.082913
    20  H   -0.338633   0.465561
    21  H   -0.431814   0.554991
    22  H   -0.338085   0.475690
    23  H   -0.001420   0.164453
    24  H   -0.399922   0.542524
    25  H    0.097199   0.086693
 Sum of Mulliken charges =  -1.00000   1.00000

 Dipole moment (field-independent basis, Debye):
    X=              4.2959    Y=             -0.0576    Z=              0.9610  Tot=              4.4025
 Quadrupole moment (field-independent basis, Debye-Ang):
   XX=           -127.4357   YY=           -103.8418   ZZ=            -95.0587
   XY=              2.5068   XZ=             -1.4338   YZ=             -5.6561

 Summary of Natural Population Analysis:

                                       Natural Population
                Natural  -----------------------------------------------
    Atom  No    Charge         Core      Valence    Rydberg      Total
 -----------------------------------------------------------------------
      C    1   -0.28320      0.99962     2.27586    0.00773     3.28320
      C    2   -0.08218      0.99952     2.06960    0.01307     3.08218
      C    3    0.00507      0.99954     1.98059    0.01480     2.99493
      C    4   -0.24665      0.99958     2.23817    0.00890     3.24665
      C    5    0.32111      0.99960     1.65508    0.02420     2.67889
      O    6   -0.28036      0.99986     3.27386    0.00663     4.28036
      N    7   -0.27886      0.99970     2.76534    0.01382     3.77886
      C    8   -0.17681      0.99964     2.16819    0.00899     3.17681
      C    9   -0.17642      0.99964     2.16792    0.00886     3.17642
      C   10   -0.28223      0.99962     2.27489    0.00773     3.28223
      H   11    0.10347      0.00000     0.39563    0.00089     0.39653
      H   12    0.10166      0.00000     0.39734    0.00099     0.39834
      H   13    0.10106      0.00000     0.39794    0.00100     0.39894
      H   14    0.08416      0.00000     0.41332    0.00252     0.41584
      H   15    0.11191      0.00000     0.38639    0.00169     0.38809
      H   16    0.11443      0.00000     0.38402    0.00154     0.38557
      H   17    0.08292      0.00000     0.41510    0.00198     0.41708
      H   18    0.09822      0.00000     0.40019    0.00159     0.40178
      H   19    0.09536      0.00000     0.40268    0.00196     0.40464
      H   20    0.08352      0.00000     0.41426    0.00222     0.41648
      H   21    0.09497      0.00000     0.40344    0.00158     0.40503
      H   22    0.09777      0.00000     0.40065    0.00158     0.40223
      H   23    0.10078      0.00000     0.39833    0.00089     0.39922
      H   24    0.10477      0.00000     0.39401    0.00122     0.39523
      H   25    0.10551      0.00000     0.39297    0.00152     0.39449
 =======================================================================
   * Total *   -0.00000      9.99632    28.86579    0.13789    39.00000

 Normal termination of Gaussian 16 at Tue Dec  8 14:02:09 2020.
