 Gaussian 16, Revision A.03,

 -----------------------------------------------------------
 # opt freq B3LYP/6-31G(d) empiricaldispersion=gd3bj scf=xqc
 -----------------------------------------------------------

 -------------------------------
 CID_128238445_JID_6888_neutraal
 -------------------------------
 Symbolic Z-matrix:
 Charge =  0 Multiplicity = 1

 SCF Done:  E(RB3LYP) =  -765.210238429     A.U. after   14 cycles
 SCF Done:  E(RB3LYP) =  -765.218194616     A.U. after   13 cycles
 SCF Done:  E(RB3LYP) =  -765.220312675     A.U. after   13 cycles
 SCF Done:  E(RB3LYP) =  -765.221932046     A.U. after   13 cycles
 SCF Done:  E(RB3LYP) =  -765.224772494     A.U. after   13 cycles
 SCF Done:  E(RB3LYP) =  -765.228913596     A.U. after   13 cycles
 SCF Done:  E(RB3LYP) =  -765.232312819     A.U. after   13 cycles
 SCF Done:  E(RB3LYP) =  -765.234401263     A.U. after   13 cycles
 SCF Done:  E(RB3LYP) =  -765.235777507     A.U. after   13 cycles
 SCF Done:  E(RB3LYP) =  -765.236966332     A.U. after   13 cycles
 SCF Done:  E(RB3LYP) =  -765.239024533     A.U. after    8 cycles
 SCF Done:  E(RB3LYP) =  -765.239024701     A.U. after    8 cycles
 SCF Done:  E(RB3LYP) =  -765.239024930     A.U. after    8 cycles
 SCF Done:  E(RB3LYP) =  -765.239025053     A.U. after    7 cycles
 SCF Done:  E(RB3LYP) =  -765.239025103     A.U. after    7 cycles
 Optimization completed.
    -- Stationary point found.
 Normal termination of Gaussian 16 at Fri Dec 11 01:14:27 2020.

 --------------------------------------------------------------------
 #N Geom=AllCheck Guess=TCheck SCRF=Check GenChk RB3LYP/6-31G(d) Freq
 --------------------------------------------------------------------

 Structure from the checkpoint file:  "JID_6888.chk"
 -------------------------------
 CID_128238445_JID_6888_neutraal
 -------------------------------
 Charge =  0 Multiplicity = 1

 SCF Done:  E(RB3LYP) =  -765.239025103     A.U. after    1 cycles

  Exact polarizability: 167.768  -6.101 125.172   0.991   2.350 102.418
 Approx polarizability: 207.537  -6.633 196.154  -1.446   7.792 155.823

                      1                      2                      3
                      A                      A                      A
 Frequencies --     29.1602                35.5634                58.8088
 Red. masses --      3.7033                 3.7978                 5.5652
 Frc consts  --      0.0019                 0.0028                 0.0113
 IR Inten    --      1.0413                 0.7600                 2.2393

                      4                      5                      6
                      A                      A                      A
 Frequencies --     82.2038               100.3476               139.0090
 Red. masses --      5.4779                 4.6102                 3.7616
 Frc consts  --      0.0218                 0.0274                 0.0428
 IR Inten    --      1.3764                 0.3461                 2.3781

                      7                      8                      9
                      A                      A                      A
 Frequencies --    146.7095               192.4884               207.9705
 Red. masses --      2.4293                 1.8680                 2.7206
 Frc consts  --      0.0308                 0.0408                 0.0693
 IR Inten    --      2.6414                 2.7067                 3.7942

                     10                     11                     12
                      A                      A                      A
 Frequencies --    222.0608               252.2343               274.2637
 Red. masses --      2.5823                 2.2787                 1.4156
 Frc consts  --      0.0750                 0.0854                 0.0627
 IR Inten    --      1.3217                 1.9409                 0.3610

                     13                     14                     15
                      A                      A                      A
 Frequencies --    281.9614               305.5126               325.4802
 Red. masses --      1.8622                 1.1758                 1.9991
 Frc consts  --      0.0872                 0.0647                 0.1248
 IR Inten    --      1.0655                93.4297                23.5052

                     16                     17                     18
                      A                      A                      A
 Frequencies --    343.3282               362.3204               381.0127
 Red. masses --      3.2056                 2.8614                 2.2097
 Frc consts  --      0.2226                 0.2213                 0.1890
 IR Inten    --      0.9597                21.3643                 2.2492

                     19                     20                     21
                      A                      A                      A
 Frequencies --    410.7183               442.3818               452.9835
 Red. masses --      3.5505                 3.1617                 2.9614
 Frc consts  --      0.3529                 0.3646                 0.3580
 IR Inten    --      4.1670                10.2118                15.6196

                     22                     23                     24
                      A                      A                      A
 Frequencies --    473.1398               496.7810               551.7927
 Red. masses --      3.3267                 1.8489                 2.6160
 Frc consts  --      0.4388                 0.2688                 0.4693
 IR Inten    --     18.3121                11.4054                15.3169

                     25                     26                     27
                      A                      A                      A
 Frequencies --    592.5888               622.0083               660.6210
 Red. masses --      4.4772                 5.1380                 1.6634
 Frc consts  --      0.9263                 1.1712                 0.4277
 IR Inten    --      9.2056                 8.7582                72.1010

                     28                     29                     30
                      A                      A                      A
 Frequencies --    709.2185               734.1530               770.5834
 Red. masses --      4.0386                 4.3572                 4.2151
 Frc consts  --      1.1968                 1.3837                 1.4747
 IR Inten    --      5.7070                 6.9911                 0.8715

                     31                     32                     33
                      A                      A                      A
 Frequencies --    785.2111               827.7739               893.0534
 Red. masses --      2.8578                 3.1256                 2.4954
 Frc consts  --      1.0381                 1.2618                 1.1726
 IR Inten    --      5.2651                 4.3235                 8.8551

                     34                     35                     36
                      A                      A                      A
 Frequencies --    902.9728               911.0254               943.9287
 Red. masses --      1.9523                 1.7714                 1.8147
 Frc consts  --      0.9379                 0.8662                 0.9526
 IR Inten    --      2.6900                 0.9203                 6.4956

                     37                     38                     39
                      A                      A                      A
 Frequencies --    963.6078               969.4154               984.4261
 Red. masses --      1.7043                 1.6417                 2.1636
 Frc consts  --      0.9324                 0.9090                 1.2353
 IR Inten    --     13.7221                 5.5218                26.5786

                     40                     41                     42
                      A                      A                      A
 Frequencies --    997.1613              1004.8154              1033.6581
 Red. masses --      2.4914                 1.7799                 2.2428
 Frc consts  --      1.4595                 1.0588                 1.4118
 IR Inten    --      1.7384                13.3790                17.5274

                     43                     44                     45
                      A                      A                      A
 Frequencies --   1044.9854              1116.5930              1132.9325
 Red. masses --      1.8803                 2.4132                 1.5483
 Frc consts  --      1.2097                 1.7727                 1.1709
 IR Inten    --      4.1125                22.7671                27.8047

                     46                     47                     48
                      A                      A                      A
 Frequencies --   1140.9179              1146.3553              1167.0118
 Red. masses --      1.6026                 1.2463                 1.4409
 Frc consts  --      1.2291                 0.9650                 1.1562
 IR Inten    --     15.6170                 5.9722                15.1724

                     49                     50                     51
                      A                      A                      A
 Frequencies --   1174.5926              1183.3290              1221.6793
 Red. masses --      3.3397                 2.1345                 1.9747
 Frc consts  --      2.7148                 1.7610                 1.7365
 IR Inten    --     58.3222                 7.9472                17.9728

                     52                     53                     54
                      A                      A                      A
 Frequencies --   1226.4849              1247.2216              1278.2362
 Red. masses --      2.7380                 1.5388                 1.8371
 Frc consts  --      2.4267                 1.4104                 1.7685
 IR Inten    --      9.3023                51.7929                10.2261

                     55                     56                     57
                      A                      A                      A
 Frequencies --   1295.0252              1299.3041              1320.3427
 Red. masses --      2.1179                 1.6621                 1.4878
 Frc consts  --      2.0927                 1.6532                 1.5282
 IR Inten    --     24.3510                11.4374                70.5425

                     58                     59                     60
                      A                      A                      A
 Frequencies --   1330.3379              1343.7385              1372.0735
 Red. masses --      1.3485                 1.9047                 1.3968
 Frc consts  --      1.4062                 2.0263                 1.5493
 IR Inten    --      3.5949                53.3732                 1.5825

                     61                     62                     63
                      A                      A                      A
 Frequencies --   1396.8550              1402.5851              1411.4195
 Red. masses --      1.9162                 2.0593                 1.6715
 Frc consts  --      2.2029                 2.3869                 1.9619
 IR Inten    --     25.4902               146.0299                 7.2652

                     64                     65                     66
                      A                      A                      A
 Frequencies --   1433.2737              1439.0138              1448.3717
 Red. masses --      1.5092                 1.2981                 2.7536
 Frc consts  --      1.8266                 1.5838                 3.4034
 IR Inten    --     68.0658                 8.2263               209.1611

                     67                     68                     69
                      A                      A                      A
 Frequencies --   1494.9423              1507.9157              1516.2491
 Red. masses --      1.1186                 1.5423                 1.0693
 Frc consts  --      1.4729                 2.0662                 1.4484
 IR Inten    --     24.4842                31.7840                 0.7961

                     70                     71                     72
                      A                      A                      A
 Frequencies --   1519.6662              1522.4394              1526.7692
 Red. masses --      1.1058                 1.0621                 1.0757
 Frc consts  --      1.5046                 1.4505                 1.4773
 IR Inten    --     16.8946                 3.2330                 6.1917

                     73                     74                     75
                      A                      A                      A
 Frequencies --   1530.0432              1537.7538              1541.9277
 Red. masses --      1.0947                 1.0958                 1.1050
 Frc consts  --      1.5099                 1.5267                 1.5479
 IR Inten    --      4.1771                16.1679                 5.9236

                     76                     77                     78
                      A                      A                      A
 Frequencies --   1555.6703              1743.6940              1798.5365
 Red. masses --      1.1235                12.0645                 8.3290
 Frc consts  --      1.6020                21.6123                15.8738
 IR Inten    --     10.5635               242.1108               410.5831

                     79                     80                     81
                      A                      A                      A
 Frequencies --   3008.0174              3040.3994              3053.6992
 Red. masses --      1.0723                 1.0401                 1.0541
 Frc consts  --      5.7166                 5.6647                 5.7915
 IR Inten    --     50.7674                19.7729                36.0977

                     82                     83                     84
                      A                      A                      A
 Frequencies --   3055.6360              3064.3184              3065.9737
 Red. masses --      1.0704                 1.0659                 1.0378
 Frc consts  --      5.8884                 5.8970                 5.7476
 IR Inten    --      9.2904                23.4295                20.4144

                     85                     86                     87
                      A                      A                      A
 Frequencies --   3077.2776              3102.4058              3108.7619
 Red. masses --      1.0571                 1.0984                 1.0969
 Frc consts  --      5.8977                 6.2290                 6.2458
 IR Inten    --     20.6268                31.0052                27.0468

                     88                     89                     90
                      A                      A                      A
 Frequencies --   3110.7020              3118.3460              3128.5869
 Red. masses --      1.1023                 1.0940                 1.1111
 Frc consts  --      6.2845                 6.2678                 6.4079
 IR Inten    --     23.1770                15.9103                18.1203

                     91                     92                     93
                      A                      A                      A
 Frequencies --   3130.8606              3134.5710              3134.6226
 Red. masses --      1.1012                 1.1024                 1.0971
 Frc consts  --      6.3599                 6.3820                 6.3513
 IR Inten    --     22.0434                17.4955                19.3829

                     94                     95                     96
                      A                      A                      A
 Frequencies --   3144.8760              3589.1086              3729.3917
 Red. masses --      1.1025                 1.0759                 1.0659
 Frc consts  --      6.4243                 8.1655                 8.7343
 IR Inten    --     17.8260                15.3927                13.0653

 - Thermochemistry -
 -------------------
 Temperature   298.150 Kelvin.  Pressure   1.00000 Atm.
 Atom     1 has atomic number  6 and mass  12.00000

 Molecular mass:   226.13174 amu.
 Principal axes and moments of inertia in atomic units:
                           1         2         3
     Eigenvalues --  1448.059956916.763887517.25640
           X            0.99979  -0.01873   0.00833
           Y            0.01894   0.99950  -0.02518
           Z           -0.00785   0.02534   0.99965
 This molecule is an asymmetric top.
 Rotational symmetry number  1.
 Warning -- assumption of classical behavior for rotation
           may cause significant error
 Rotational temperatures (Kelvin)      0.05981     0.01252     0.01152
 Rotational constants (GHZ):           1.24632     0.26092     0.24008
 Zero-point vibrational energy     765851.1 (Joules/Mol)
                                  183.04279 (Kcal/Mol)
 Warning -- explicit consideration of  25 degrees of freedom as
           vibrations may cause significant error
 Vibrational temperatures:     41.96    51.17    84.61   118.27   144.38
          (Kelvin)            200.00   211.08   276.95   299.22   319.50
                              362.91   394.60   405.68   439.56   468.29
                              493.97   521.30   548.19   590.93   636.49
                              651.74   680.74   714.76   793.91   852.60
                              894.93   950.49  1020.41  1056.28  1108.70
                             1129.74  1190.98  1284.90  1299.18  1310.76
                             1358.10  1386.42  1394.77  1416.37  1434.69
                             1445.71  1487.20  1503.50  1606.53  1630.04
                             1641.53  1649.35  1679.07  1689.98  1702.55
                             1757.72  1764.64  1794.47  1839.10  1863.25
                             1869.41  1899.68  1914.06  1933.34  1974.11
                             2009.76  2018.01  2030.72  2062.16  2070.42
                             2083.88  2150.89  2169.55  2181.54  2186.46
                             2190.45  2196.68  2201.39  2212.48  2218.49
                             2238.26  2508.79  2587.69  4327.87  4374.46
                             4393.59  4396.38  4408.87  4411.25  4427.52
                             4463.67  4472.81  4475.61  4486.60  4501.34
                             4504.61  4509.95  4510.02  4524.78  5163.93
                             5365.76

 Zero-point correction=                           0.291697 (Hartree/Particle)
 Thermal correction to Energy=                    0.307977
 Thermal correction to Enthalpy=                  0.308922
 Thermal correction to Gibbs Free Energy=         0.247392
 Sum of electronic and zero-point Energies=           -764.947328
 Sum of electronic and thermal Energies=              -764.931048
 Sum of electronic and thermal Enthalpies=            -764.930104
 Sum of electronic and thermal Free Energies=         -764.991633

                     E (Thermal)             CV                S
                      KCal/Mol        Cal/Mol-Kelvin    Cal/Mol-Kelvin
 Total                  193.259             61.746            129.499
 Electronic               0.000              0.000              0.000
 Translational            0.889              2.981             42.150
 Rotational               0.889              2.981             32.687
 Vibrational            191.481             55.784             54.662
 Vibration     1          0.593              1.984              5.886
 Vibration     2          0.594              1.982              5.492
 Vibration     3          0.596              1.974              4.497
 Vibration     4          0.600              1.961              3.838
 Vibration     5          0.604              1.949              3.448
 Vibration     6          0.615              1.914              2.817
 Vibration     7          0.617              1.906              2.714
 Vibration     8          0.634              1.850              2.204
 Vibration     9          0.641              1.828              2.061
 Vibration    10          0.648              1.807              1.942
 Vibration    11          0.664              1.759              1.715
 Vibration    12          0.677              1.721              1.569
 Vibration    13          0.681              1.707              1.522
 Vibration    14          0.696              1.663              1.387
 Vibration    15          0.710              1.625              1.282
 Vibration    16          0.722              1.589              1.197
 Vibration    17          0.736              1.550              1.112
 Vibration    18          0.751              1.511              1.035
 Vibration    19          0.775              1.447              0.924
 Vibration    20          0.802              1.378              0.819
 Vibration    21          0.812              1.354              0.787
 Vibration    22          0.830              1.310              0.729
 Vibration    23          0.852              1.257              0.666
 Vibration    24          0.907              1.136              0.540
 Vibration    25          0.950              1.048              0.463

 Optimization completed.
    -- Stationary point found.
 Normal termination of Gaussian 16 at Fri Dec 11 01:26:17 2020.

 ----------------------------------------------------------------------
 # B3LYP/6-311++G(d,p) empiricaldispersion=gd3bj scf=xqc pop=npa geom=c
 heck
 ----------------------------------------------------------------------

 ---------------------------------------
 CID_128238445_JID_6888_Energie_neutraal
 ---------------------------------------
 Structure from the checkpoint file:  "JID_6888.chk"
 Charge =  0 Multiplicity = 1

 SCF Done:  E(RB3LYP) =  -765.470536678     A.U. after   14 cycles
 Normal termination of Gaussian 16 at Fri Dec 11 01:31:44 2020.

 ----------------------------------------------------------------------
 # B3LYP/6-311++G(d,p) empiricaldispersion=gd3bj scf=xqc pop=npa geom=c
 heck
 ----------------------------------------------------------------------

 -------------------------------------
 CID_128238445_JID_6888_Energie_kation
 -------------------------------------
 Structure from the checkpoint file:  "JID_6888.chk"
 Charge =  1 Multiplicity = 2

 SCF Done:  E(UB3LYP) =  -765.154023452     A.U. after   33 cycles
 SCF Done:  E(UB3LYP) =  -765.154023452     a.u. after    1 cycles
 Normal termination of Gaussian 16 at Fri Dec 11 01:49:31 2020.
 Gaussian 16:  ES64L-G16RevA.03 25-Dec-2016

 ----------------------------------------------------------------------
 # B3LYP/6-311++G(d,p) empiricaldispersion=gd3bj scf=xqc pop=npa geom=c
 heck
 ----------------------------------------------------------------------

 ------------------------------------
 CID_128238445_JID_6888_Energie_anion
 ------------------------------------
 Structure from the checkpoint file:  "JID_6888.chk"
 Charge = -1 Multiplicity = 2

                         Standard orientation:
 ---------------------------------------------------------------------
 Center     Atomic      Atomic             Coordinates (Angstroms)
 Number     Number       Type             X           Y           Z
 ---------------------------------------------------------------------
      1          6           0       -1.017606    0.495729   -1.733267
      2          6           0       -0.991755    0.466289   -0.189991
      3          6           0       -2.140149    1.308258    0.402369
      4          6           0       -3.514835    0.775149   -0.005710
      5          6           0       -3.676406   -0.730859    0.128903
      6          8           0       -4.771323   -1.277677    0.150849
      7          7           0       -2.514615   -1.460744    0.152001
      8          6           0       -1.153279   -0.970361    0.339543
      9          6           0        0.336591    1.099265    0.268852
     10          8           0        0.401573    2.278081    0.604497
     11          7           0        1.467720    0.333102    0.299393
     12          6           0        2.810386    0.900093    0.470042
     13          6           0        3.409400   -0.432700   -0.044881
     14          6           0        1.947835   -0.892904   -0.361327
     15          6           0        4.122690   -1.272499    1.003029
     16          8           0        4.219621   -0.194707   -1.179033
     17          1           0       -0.156081   -0.029207   -2.158222
     18          1           0       -0.993638    1.529581   -2.091568
     19          1           0       -1.919114    0.012649   -2.119403
     20          1           0       -2.046830    1.294520    1.495222
     21          1           0       -2.019595    2.350921    0.101504
     22          1           0       -3.735692    1.020036   -1.052558
     23          1           0       -4.310341    1.238332    0.584894
     24          1           0       -2.672789   -2.454945    0.264031
     25          1           0       -0.487946   -1.657955   -0.189175
     26          1           0       -0.872074   -0.996315    1.403478
     27          1           0        3.004233    1.744018   -0.198963
     28          1           0        3.051946    1.183917    1.498980
     29          1           0        1.626984   -1.824679    0.116120
     30          1           0        1.744223   -0.932883   -1.436833
     31          1           0        4.362021   -2.269483    0.609269
     32          1           0        5.056106   -0.785621    1.303743
     33          1           0        3.496686   -1.406375    1.891383
     34          1           0        4.603970   -1.041344   -1.457540
 ---------------------------------------------------------------------

 SCF Done:  E(UB3LYP) =  -765.470072818     A.U. after   30 cycles

 The electronic state is 2-A.
 Alpha  occ. eigenvalues --  -19.03188 -18.99955 -18.99902 -14.25072 -14.24841
 Alpha  occ. eigenvalues --  -10.18628 -10.18099 -10.14619 -10.12722 -10.11615
 Alpha  occ. eigenvalues --  -10.11435 -10.10992 -10.09656 -10.08907 -10.08492
 Alpha  occ. eigenvalues --  -10.06947  -0.95375  -0.95115  -0.93952  -0.85915
 Alpha  occ. eigenvalues --   -0.84259  -0.74167  -0.69343  -0.67425  -0.61737
 Alpha  occ. eigenvalues --   -0.61370  -0.60788  -0.57710  -0.53353  -0.49986
 Alpha  occ. eigenvalues --   -0.47011  -0.45163  -0.42458  -0.41447  -0.40737
 Alpha  occ. eigenvalues --   -0.38560  -0.38051  -0.37599  -0.37265  -0.35752
 Alpha  occ. eigenvalues --   -0.34799  -0.34024  -0.33716  -0.33167  -0.32497
 Alpha  occ. eigenvalues --   -0.31070  -0.30740  -0.30056  -0.28888  -0.27641
 Alpha  occ. eigenvalues --   -0.27330  -0.26997  -0.25997  -0.25434  -0.24404
 Alpha  occ. eigenvalues --   -0.22967  -0.18961  -0.17321  -0.17104  -0.16357
 Alpha  occ. eigenvalues --   -0.15716   0.03531
 Alpha virt. eigenvalues --    0.06209   0.07046   0.07471   0.08394   0.08923
 Alpha virt. eigenvalues --    0.09025   0.09487   0.09568   0.10335   0.10594
 Alpha virt. eigenvalues --    0.10771   0.11577   0.11732   0.12460   0.12910

  Beta  occ. eigenvalues --  -19.03138 -18.99950 -18.99897 -14.25057 -14.24834
  Beta  occ. eigenvalues --  -10.18626 -10.18094 -10.14619 -10.12702 -10.11615
  Beta  occ. eigenvalues --  -10.11389 -10.10977 -10.09651 -10.08902 -10.08474
  Beta  occ. eigenvalues --  -10.06888  -0.95357  -0.95104  -0.93862  -0.85886
  Beta  occ. eigenvalues --   -0.84234  -0.74151  -0.69318  -0.67391  -0.61702
  Beta  occ. eigenvalues --   -0.61296  -0.60728  -0.57684  -0.53319  -0.49918
  Beta  occ. eigenvalues --   -0.46955  -0.45091  -0.42418  -0.41383  -0.40713
  Beta  occ. eigenvalues --   -0.38524  -0.38027  -0.37568  -0.37247  -0.35724
  Beta  occ. eigenvalues --   -0.34764  -0.33983  -0.33681  -0.33142  -0.32475
  Beta  occ. eigenvalues --   -0.31043  -0.30712  -0.30033  -0.28858  -0.27604
  Beta  occ. eigenvalues --   -0.27278  -0.26972  -0.25976  -0.25417  -0.24384
  Beta  occ. eigenvalues --   -0.22906  -0.18916  -0.17309  -0.17082  -0.16335
  Beta  occ. eigenvalues --   -0.15696
  Beta virt. eigenvalues --    0.06031   0.06933   0.07676   0.08036   0.08665
  Beta virt. eigenvalues --    0.09161   0.09370   0.09620   0.10018   0.10714
  Beta virt. eigenvalues --    0.10866   0.10984   0.11809   0.12017   0.12778

 Mulliken charges and spin densities:
               1          2
     1  C    0.201346  -0.752264
     2  C    1.208606   0.020383
     3  C   -0.646674   0.260375
     4  C    0.030011  -0.402160
     5  C   -0.138206   0.148668
     6  O   -0.367729   0.009537
     7  N   -0.221326   0.052547
     8  C   -0.200193  -0.644075
     9  C   -0.764096   0.272646
    10  O   -0.302332   0.002216
    11  N    0.019514   0.081862
    12  C    0.527566  -0.904017
    13  C   -1.932494   1.932651
    14  C    0.944066  -1.349611
    15  C    1.941112  -2.358539
    16  O   -0.173715  -0.029270
    17  H   -0.042765   0.180601
    18  H    0.126883   0.053819
    19  H    0.074670   0.100470
    20  H    0.136029   0.043936
    21  H    0.168050   0.037966
    22  H    0.146846   0.034041
    23  H    0.181003   0.023870
    24  H    0.017849   0.291856
    25  H   -0.267864   0.498405
    26  H    0.048380   0.192325
    27  H    0.220146  -0.008436
    28  H   -0.084363   0.269253
    29  H   -0.476051   0.661439
    30  H   -0.152556   0.296447
    31  H   -0.638220   0.798619
    32  H   -0.053818   0.216106
    33  H   -0.265893   0.433024
    34  H   -0.263780   0.535309
 Sum of Mulliken charges =  -1.00000   1.00000

 Dipole moment (field-independent basis, Debye):
    X=             -4.5226    Y=              5.6622    Z=              0.4378  Tot=              7.2599
 Quadrupole moment (field-independent basis, Debye-Ang):
   XX=           -195.1708   YY=           -147.3444   ZZ=           -126.2818
   XY=              3.9292   XZ=              6.2224   YZ=             -3.1445

 Summary of Natural Population Analysis:

                                       Natural Population
                Natural  -----------------------------------------------
    Atom  No    Charge         Core      Valence    Rydberg      Total
 -----------------------------------------------------------------------
      C    1   -0.28663      0.99962     2.27954    0.00747     3.28663
      C    2   -0.07451      0.99953     2.06315    0.01183     3.07451
      C    3   -0.19023      0.99961     2.18110    0.00952     3.19023
      C    4   -0.23469      0.99959     2.22719    0.00791     3.23469
      C    5    0.34448      0.99966     1.63371    0.02214     2.65552
      O    6   -0.32776      0.99988     3.32192    0.00597     4.32776
      N    7   -0.31844      0.99967     2.80881    0.00996     3.81844
      C    8   -0.08434      0.99956     2.07262    0.01215     3.08434
      C    9    0.35608      0.99957     1.62057    0.02377     2.64392
      O   10   -0.32362      0.99988     3.31871    0.00503     4.32362
      N   11   -0.25935      0.99964     2.74922    0.01049     3.75935
      C   12   -0.07475      0.99960     2.06518    0.00998     3.07475
      C   13    0.12342      0.99951     1.86090    0.01617     2.87658
      C   14   -0.08653      0.99958     2.07557    0.01138     3.08653
      C   15   -0.29727      0.99961     2.29104    0.00662     3.29727
      O   16   -0.37135      0.99988     3.36494    0.00653     4.37135
      H   17    0.10561      0.00000     0.39345    0.00094     0.39439
      H   18    0.10377      0.00000     0.39549    0.00073     0.39623
      H   19    0.10346      0.00000     0.39558    0.00096     0.39654
      H   20    0.10229      0.00000     0.39670    0.00100     0.39771
      H   21    0.11331      0.00000     0.38572    0.00096     0.38669
      H   22    0.10954      0.00000     0.38927    0.00119     0.39046
      H   23    0.11208      0.00000     0.38682    0.00110     0.38792
      H   24    0.19737      0.00000     0.30016    0.00247     0.30263
      H   25    0.10548      0.00000     0.39238    0.00214     0.39452
      H   26    0.09635      0.00000     0.40203    0.00161     0.40365
      H   27    0.10420      0.00000     0.39450    0.00131     0.39580
      H   28    0.09781      0.00000     0.40101    0.00118     0.40219
      H   29    0.10199      0.00000     0.39437    0.00363     0.39801
      H   30    0.10093      0.00000     0.39684    0.00224     0.39907
      H   31    0.10654      0.00000     0.39031    0.00316     0.39346
      H   32    0.10309      0.00000     0.39578    0.00113     0.39691
      H   33    0.10557      0.00000     0.39275    0.00168     0.39443
      H   34    0.23608      0.00000     0.25688    0.00704     0.26392
 =======================================================================
   * Total *   -0.00000     15.99441    44.79419    0.21140    61.00000

 Normal termination of Gaussian 16 at Fri Dec 11 02:05:36 2020.
