 Gaussian 16, Revision A.03,

 -----------------------------------------------------------
 # opt freq B3LYP/6-31G(d) empiricaldispersion=gd3bj scf=xqc
 -----------------------------------------------------------

 ------------------------------
 CID_79643044_JID_3583_neutraal
 ------------------------------
 Symbolic Z-matrix:
 Charge =  0 Multiplicity = 1

 SCF Done:  E(RB3LYP) =  -919.494790014     A.U. after   14 cycles
 SCF Done:  E(RB3LYP) =  -919.502319978     A.U. after   12 cycles
 SCF Done:  E(RB3LYP) =  -919.502158037     A.U. after   13 cycles
 SCF Done:  E(RB3LYP) =  -919.503718530     A.U. after   13 cycles
 SCF Done:  E(RB3LYP) =  -919.504099469     A.U. after   12 cycles
 SCF Done:  E(RB3LYP) =  -919.504246048     A.U. after   11 cycles
 SCF Done:  E(RB3LYP) =  -919.504345326     A.U. after   12 cycles
 SCF Done:  E(RB3LYP) =  -919.504411534     A.U. after   10 cycles
 SCF Done:  E(RB3LYP) =  -919.504474299     A.U. after   11 cycles
 SCF Done:  E(RB3LYP) =  -919.504487230     A.U. after    9 cycles
 SCF Done:  E(RB3LYP) =  -919.504512941     A.U. after    9 cycles
 SCF Done:  E(RB3LYP) =  -919.504527902     A.U. after   10 cycles
 SCF Done:  E(RB3LYP) =  -919.504535334     A.U. after    9 cycles
 SCF Done:  E(RB3LYP) =  -919.504535871     A.U. after    8 cycles
 SCF Done:  E(RB3LYP) =  -919.504536060     A.U. after    7 cycles
 Optimization completed.
    -- Stationary point found.
 Normal termination of Gaussian 16 at Mon Dec 14 16:35:55 2020.

 --------------------------------------------------------------------
 #N Geom=AllCheck Guess=TCheck SCRF=Check GenChk RB3LYP/6-31G(d) Freq
 --------------------------------------------------------------------

 Structure from the checkpoint file:  "JID_3583.chk"
 ------------------------------
 CID_79643044_JID_3583_neutraal
 ------------------------------
 Charge =  0 Multiplicity = 1

 SCF Done:  E(RB3LYP) =  -919.504536060     A.U. after    1 cycles

  Exact polarizability: 135.974   6.137 119.858   2.606   2.713 110.818
 Approx polarizability: 186.626  15.094 180.561   7.972   7.582 173.174

                      1                      2                      3
                      A                      A                      A
 Frequencies --     44.4385                69.6500                92.0793
 Red. masses --      4.4994                 7.0097                 4.7798
 Frc consts  --      0.0052                 0.0200                 0.0239
 IR Inten    --      0.9454                 3.6561                 5.2550

                      4                      5                      6
                      A                      A                      A
 Frequencies --    122.2459               138.7753               181.8051
 Red. masses --      2.2014                 3.5270                 3.0750
 Frc consts  --      0.0194                 0.0400                 0.0599
 IR Inten    --      0.7633                 2.2424                 0.8544

                      7                      8                      9
                      A                      A                      A
 Frequencies --    245.5297               271.0471               294.6363
 Red. masses --      3.0790                 2.5440                 4.0294
 Frc consts  --      0.1094                 0.1101                 0.2061
 IR Inten    --      1.9041                 0.6889                 0.4579

                     10                     11                     12
                      A                      A                      A
 Frequencies --    331.8922               342.9286               407.0820
 Red. masses --      2.2722                 2.4416                 2.4743
 Frc consts  --      0.1475                 0.1692                 0.2416
 IR Inten    --      0.1924                 3.2837                 3.3057

                     13                     14                     15
                      A                      A                      A
 Frequencies --    449.6400               465.1240               483.5493
 Red. masses --      2.5162                 2.2762                 2.5621
 Frc consts  --      0.2997                 0.2901                 0.3530
 IR Inten    --      5.2090                 1.6757                 1.8522

                     16                     17                     18
                      A                      A                      A
 Frequencies --    514.0302               523.8432               617.8165
 Red. masses --      2.5821                 2.7184                 3.4765
 Frc consts  --      0.4020                 0.4395                 0.7818
 IR Inten    --      2.7095                 7.9255                 3.1804

                     19                     20                     21
                      A                      A                      A
 Frequencies --    632.4488               688.6946               705.5191
 Red. masses --      3.7861                 4.5499                 2.1866
 Frc consts  --      0.8923                 1.2715                 0.6413
 IR Inten    --      2.3662                 1.8905                 0.3320

                     22                     23                     24
                      A                      A                      A
 Frequencies --    720.4590               775.5270               808.9903
 Red. masses --      1.7319                 3.4081                 3.1598
 Frc consts  --      0.5297                 1.2077                 1.2184
 IR Inten    --      6.5706                 2.9010                 3.8071

                     25                     26                     27
                      A                      A                      A
 Frequencies --    822.1504               844.2375               861.5088
 Red. masses --      1.6822                 2.1699                 1.8546
 Frc consts  --      0.6699                 0.9112                 0.8110
 IR Inten    --      1.0462                 3.3845                 4.4420

                     28                     29                     30
                      A                      A                      A
 Frequencies --    899.7920               919.9121               947.2572
 Red. masses --      2.5319                 1.7834                 2.2438
 Frc consts  --      1.2078                 0.8892                 1.1862
 IR Inten    --      5.8851                 5.3878                 7.6313

                     31                     32                     33
                      A                      A                      A
 Frequencies --    972.3341               986.9484              1010.5439
 Red. masses --      1.8241                 2.1249                 2.0911
 Frc consts  --      1.0161                 1.2195                 1.2582
 IR Inten    --      2.7094                 3.6954                 4.7984

                     34                     35                     36
                      A                      A                      A
 Frequencies --   1017.8722              1045.9273              1071.2141
 Red. masses --      1.8453                 2.0248                 2.1912
 Frc consts  --      1.1264                 1.3051                 1.4815
 IR Inten    --     27.3810                 3.1707                 2.2192

                     37                     38                     39
                      A                      A                      A
 Frequencies --   1079.5566              1127.8804              1172.1821
 Red. masses --      1.9531                 1.5273                 3.8241
 Frc consts  --      1.3411                 1.1447                 3.0958
 IR Inten    --      8.3223                24.8608                58.7644

                     40                     41                     42
                      A                      A                      A
 Frequencies --   1185.7132              1190.8157              1214.0858
 Red. masses --      1.3470                 1.4926                 1.5623
 Frc consts  --      1.1157                 1.2470                 1.3568
 IR Inten    --     10.2381                12.8351                22.4655

                     43                     44                     45
                      A                      A                      A
 Frequencies --   1217.0659              1233.8223              1244.0785
 Red. masses --      1.2770                 1.4004                 1.2097
 Frc consts  --      1.1145                 1.2560                 1.1031
 IR Inten    --     11.1623                 8.5597                10.1977

                     46                     47                     48
                      A                      A                      A
 Frequencies --   1274.9358              1281.6109              1305.2416
 Red. masses --      1.5672                 1.7169                 1.2395
 Frc consts  --      1.5009                 1.6615                 1.2442
 IR Inten    --     11.2984                24.2743                 8.1980

                     49                     50                     51
                      A                      A                      A
 Frequencies --   1313.6909              1326.6538              1333.9455
 Red. masses --      1.3900                 1.4934                 1.3121
 Frc consts  --      1.4134                 1.5486                 1.3756
 IR Inten    --      7.1001                 4.6367                14.9119

                     52                     53                     54
                      A                      A                      A
 Frequencies --   1358.3786              1364.7526              1394.0804
 Red. masses --      1.3079                 1.4343                 1.4728
 Frc consts  --      1.4219                 1.5740                 1.6864
 IR Inten    --     12.9892                 8.5126                 6.0115

                     55                     56                     57
                      A                      A                      A
 Frequencies --   1411.2466              1424.6634              1444.9887
 Red. masses --      1.2652                 1.3949                 1.2758
 Frc consts  --      1.4846                 1.6680                 1.5695
 IR Inten    --     14.9408                51.7823                 3.8480

                     58                     59                     60
                      A                      A                      A
 Frequencies --   1456.9603              1479.2249              1481.3862
 Red. masses --      1.2703                 1.0778                 1.1005
 Frc consts  --      1.5887                 1.3895                 1.4228
 IR Inten    --     11.8863                 9.8438                12.8139

                     61                     62                     63
                      A                      A                      A
 Frequencies --   1493.9646              1498.2613              1505.9321
 Red. masses --      1.0969                 1.0891                 1.0910
 Frc consts  --      1.4425                 1.4404                 1.4578
 IR Inten    --      5.8502                 2.6564                 7.9071

                     64                     65                     66
                      A                      A                      A
 Frequencies --   1514.5916              1515.5534              1525.4599
 Red. masses --      1.1010                 1.0952                 1.0940
 Frc consts  --      1.4880                 1.4821                 1.4999
 IR Inten    --     30.7513                 8.1313                 4.4510

                     67                     68                     69
                      A                      A                      A
 Frequencies --   1839.9734              2991.8817              3018.5968
 Red. masses --     12.3514                 1.0670                 1.0694
 Frc consts  --     24.6372                 5.6273                 5.7412
 IR Inten    --    198.0692                44.6264                57.4710

                     70                     71                     72
                      A                      A                      A
 Frequencies --   3035.0996              3037.6128              3046.1930
 Red. masses --      1.0669                 1.0730                 1.0741
 Frc consts  --      5.7907                 5.8332                 5.8723
 IR Inten    --     15.2814                22.8625                 9.1800

                     73                     74                     75
                      A                      A                      A
 Frequencies --   3056.4883              3058.5560              3061.7995
 Red. masses --      1.0869                 1.0659                 1.0797
 Frc consts  --      5.9826                 5.8749                 5.9638
 IR Inten    --      7.0628                40.1213               102.2263

                     76                     77                     78
                      A                      A                      A
 Frequencies --   3064.4624              3074.9995              3076.7236
 Red. masses --      1.0659                 1.1016                 1.0663
 Frc consts  --      5.8977                 6.1371                 5.9472
 IR Inten    --     24.4964                28.6490                 8.0707

                     79                     80                     81
                      A                      A                      A
 Frequencies --   3093.6750              3111.8702              3118.5639
 Red. masses --      1.0936                 1.1030                 1.0990
 Frc consts  --      6.1670                 6.2932                 6.2974
 IR Inten    --     36.3801                18.1228                13.5796

                     82                     83                     84
                      A                      A                      A
 Frequencies --   3130.6087              3148.5107              3156.6159
 Red. masses --      1.0980                 1.0930                 1.0937
 Frc consts  --      6.3402                 6.3836                 6.4209
 IR Inten    --      9.2118                 9.3547                11.3948

 - Thermochemistry -
 -------------------
 Temperature   298.150 Kelvin.  Pressure   1.00000 Atm.
 Atom     1 has atomic number  6 and mass  12.00000

 Molecular mass:   199.10309 amu.
 Principal axes and moments of inertia in atomic units:
                           1         2         3
     Eigenvalues --  1596.892203173.191773643.10008
           X            0.99990   0.00558  -0.01280
           Y           -0.00516   0.99948   0.03197
           Z            0.01297  -0.03190   0.99941
 This molecule is an asymmetric top.
 Rotational symmetry number  1.
 Warning -- assumption of classical behavior for rotation
           may cause significant error
 Rotational temperatures (Kelvin)      0.05424     0.02730     0.02377
 Rotational constants (GHZ):           1.13016     0.56875     0.49539
 Zero-point vibrational energy     692759.9 (Joules/Mol)
                                  165.57358 (Kcal/Mol)
 Warning -- explicit consideration of  18 degrees of freedom as
           vibrations may cause significant error
 Vibrational temperatures:     63.94   100.21   132.48   175.88   199.67
          (Kelvin)            261.58   353.26   389.98   423.92   477.52
                              493.40   585.70   646.93   669.21   695.72
                              739.57   753.69   888.90   909.95   990.88
                             1015.08  1036.58  1115.81  1163.96  1182.89
                             1214.67  1239.52  1294.60  1323.55  1362.89
                             1398.97  1420.00  1453.95  1464.49  1504.86
                             1541.24  1553.24  1622.77  1686.51  1705.98
                             1713.32  1746.80  1751.09  1775.20  1789.95
                             1834.35  1843.95  1877.95  1890.11  1908.76
                             1919.25  1954.40  1963.57  2005.77  2030.47
                             2049.77  2079.02  2096.24  2128.27  2131.38
                             2149.48  2155.66  2166.70  2179.16  2180.54
                             2194.80  2647.31  4304.65  4343.09  4366.83
                             4370.45  4382.79  4397.60  4400.58  4405.25
                             4409.08  4424.24  4426.72  4451.11  4477.29
                             4486.92  4504.25  4530.00  4541.67

 Zero-point correction=                           0.263858 (Hartree/Particle)
 Thermal correction to Energy=                    0.276298
 Thermal correction to Enthalpy=                  0.277242
 Thermal correction to Gibbs Free Energy=         0.224922
 Sum of electronic and zero-point Energies=           -919.240678
 Sum of electronic and thermal Energies=              -919.228238
 Sum of electronic and thermal Enthalpies=            -919.227294
 Sum of electronic and thermal Free Energies=         -919.279614

                     E (Thermal)             CV                S
                      KCal/Mol        Cal/Mol-Kelvin    Cal/Mol-Kelvin
 Total                  173.379             49.046            110.116
 Electronic               0.000              0.000              0.000
 Translational            0.889              2.981             41.771
 Rotational               0.889              2.981             31.291
 Vibrational            171.602             43.084             37.054
 Vibration     1          0.595              1.980              5.051
 Vibration     2          0.598              1.969              4.163
 Vibration     3          0.602              1.955              3.615
 Vibration     4          0.610              1.931              3.065
 Vibration     5          0.614              1.915              2.821
 Vibration     6          0.630              1.864              2.310
 Vibration     7          0.660              1.770              1.762
 Vibration     8          0.675              1.727              1.590
 Vibration     9          0.689              1.684              1.447
 Vibration    10          0.714              1.612              1.251
 Vibration    11          0.722              1.590              1.198
 Vibration    12          0.772              1.455              0.937
 Vibration    13          0.809              1.362              0.797
 Vibration    14          0.823              1.327              0.751
 Vibration    15          0.840              1.287              0.701
 Vibration    16          0.869              1.219              0.624
 Vibration    17          0.879              1.197              0.601
 Vibration    18          0.978              0.994              0.420

                           ! Non-Optimized Parameters !
 Normal termination of Gaussian 16 at Mon Dec 14 16:45:17 2020.

 ----------------------------------------------------------------------
 # B3LYP/6-311++G(d,p) empiricaldispersion=gd3bj scf=xqc pop=npa geom=c
 heck
 ----------------------------------------------------------------------

 --------------------------------------
 CID_79643044_JID_3583_Energie_neutraal
 --------------------------------------
 Structure from the checkpoint file:  "JID_3583.chk"
 Charge =  0 Multiplicity = 1

 SCF Done:  E(RB3LYP) =  -919.676312528     A.U. after   14 cycles
 Normal termination of Gaussian 16 at Mon Dec 14 16:49:27 2020.

 ----------------------------------------------------------------------
 # B3LYP/6-311++G(d,p) empiricaldispersion=gd3bj scf=xqc pop=npa geom=c
 heck
 ----------------------------------------------------------------------

 ------------------------------------
 CID_79643044_JID_3583_Energie_kation
 ------------------------------------
 Structure from the checkpoint file:  "JID_3583.chk"
 Charge =  1 Multiplicity = 2

 SCF Done:  E(UB3LYP) =  -919.399396907     A.U. after   26 cycles
 Normal termination of Gaussian 16 at Mon Dec 14 17:00:25 2020.
 Gaussian 16:  ES64L-G16RevA.03 25-Dec-2016

 ----------------------------------------------------------------------
 # B3LYP/6-311++G(d,p) empiricaldispersion=gd3bj scf=xqc pop=npa geom=c
 heck
 ----------------------------------------------------------------------

 -----------------------------------
 CID_79643044_JID_3583_Energie_anion
 -----------------------------------
 Structure from the checkpoint file:  "JID_3583.chk"
 Charge = -1 Multiplicity = 2

                         Standard orientation:
 ---------------------------------------------------------------------
 Center     Atomic      Atomic             Coordinates (Angstroms)
 Number     Number       Type             X           Y           Z
 ---------------------------------------------------------------------
      1          6           0        2.472794    1.116434    0.501578
      2          6           0        1.467726    1.749795   -0.476564
      3          7           0        0.209110    1.066975   -0.700755
      4          6           0        0.244980   -0.092478   -1.558154
      5          6           0        0.509618   -1.499013   -0.958818
      6         16           0        1.610236   -1.587116    0.503081
      7          6           0        2.885309   -0.314801    0.148611
      8          6           0       -0.924398    1.431516    0.134107
      9          6           0       -1.019016    0.765043    1.549365
     10          6           0       -1.856066   -0.512260    1.372266
     11          6           0       -2.562085   -0.357797    0.021077
     12          8           0       -3.210355   -1.211718   -0.544937
     13          6           0       -2.273751    1.048083   -0.497605
     14          1           0        2.075420    1.131317    1.522211
     15          1           0        3.374790    1.747644    0.502899
     16          1           0        1.243139    2.767739   -0.131925
     17          1           0        1.970497    1.854655   -1.451183
     18          1           0        1.028490    0.101960   -2.300760
     19          1           0       -0.690870   -0.172859   -2.125250
     20          1           0        0.907894   -2.137469   -1.755725
     21          1           0       -0.423563   -1.959629   -0.624300
     22          1           0        3.200399   -0.395902   -0.898566
     23          1           0        3.741042   -0.618328    0.760098
     24          1           0       -0.860725    2.518613    0.263459
     25          1           0       -1.524652    1.462866    2.228122
     26          1           0       -0.029668    0.555325    1.956786
     27          1           0       -2.607759   -0.656987    2.156634
     28          1           0       -1.242067   -1.417661    1.360263
     29          1           0       -2.330541    1.123321   -1.584854
     30          1           0       -3.047191    1.707050   -0.077599
 ---------------------------------------------------------------------

 SCF Done:  E(UB3LYP) =  -919.666888153     A.U. after   30 cycles

 The electronic state is 2-A.
 Alpha  occ. eigenvalues --  -88.73420 -18.99218 -14.19617 -10.13271 -10.10181
 Alpha  occ. eigenvalues --  -10.09774 -10.09708 -10.09389 -10.09151 -10.06708
 Alpha  occ. eigenvalues --  -10.06188 -10.05977 -10.05374  -7.82039  -5.78445
 Alpha  occ. eigenvalues --   -5.78064  -5.77404  -0.92584  -0.82511  -0.72140
 Alpha  occ. eigenvalues --   -0.70024  -0.67958  -0.61929  -0.59654  -0.57423
 Alpha  occ. eigenvalues --   -0.55851  -0.50242  -0.47154  -0.44045  -0.42224
 Alpha  occ. eigenvalues --   -0.39757  -0.38966  -0.36344  -0.35437  -0.34760
 Alpha  occ. eigenvalues --   -0.34404  -0.32495  -0.31180  -0.30630  -0.29995
 Alpha  occ. eigenvalues --   -0.28952  -0.27919  -0.27016  -0.26762  -0.25102
 Alpha  occ. eigenvalues --   -0.24634  -0.24092  -0.23646  -0.22805  -0.22583
 Alpha  occ. eigenvalues --   -0.20180  -0.13161  -0.12283  -0.09776   0.04407
 Alpha virt. eigenvalues --    0.06226   0.07716   0.07955   0.08388   0.09464
 Alpha virt. eigenvalues --    0.09849   0.10100   0.10324   0.10943   0.11959
 Alpha virt. eigenvalues --    0.12426   0.12937   0.13300   0.13613   0.14175

  Beta  occ. eigenvalues --  -88.73418 -18.99102 -14.19597 -10.13102 -10.10167
  Beta  occ. eigenvalues --  -10.09743 -10.09682 -10.09386 -10.09126 -10.06688
  Beta  occ. eigenvalues --  -10.06192 -10.05991 -10.05357  -7.82038  -5.78440
  Beta  occ. eigenvalues --   -5.78063  -5.77403  -0.92335  -0.82467  -0.72050
  Beta  occ. eigenvalues --   -0.69961  -0.67923  -0.61878  -0.59564  -0.57376
  Beta  occ. eigenvalues --   -0.55749  -0.50181  -0.47096  -0.43967  -0.42015
  Beta  occ. eigenvalues --   -0.39642  -0.38889  -0.36265  -0.35334  -0.34683
  Beta  occ. eigenvalues --   -0.34275  -0.32427  -0.31109  -0.30561  -0.29772
  Beta  occ. eigenvalues --   -0.28869  -0.27851  -0.26930  -0.26637  -0.25059
  Beta  occ. eigenvalues --   -0.24547  -0.24002  -0.23560  -0.22679  -0.22303
  Beta  occ. eigenvalues --   -0.20152  -0.13060  -0.12268  -0.09654
  Beta virt. eigenvalues --    0.06862   0.07639   0.08109   0.08761   0.08888
  Beta virt. eigenvalues --    0.10015   0.10128   0.10464   0.11006   0.11183
  Beta virt. eigenvalues --    0.12320   0.12867   0.13129   0.13604   0.13735

 Mulliken charges and spin densities:
               1          2
     1  C   -0.028861  -0.083197
     2  C    0.116970  -0.475921
     3  N    0.002962   0.072787
     4  C    0.636792  -0.823377
     5  C   -1.067614   0.424271
     6  S    0.483204  -0.263333
     7  C    0.082368  -0.695781
     8  C   -0.195994   0.464959
     9  C    0.305962  -0.767072
    10  C   -0.095745  -0.086995
    11  C   -0.210936   0.138269
    12  O   -0.293779   0.050290
    13  C    0.589203  -1.236996
    14  H    0.104527   0.015200
    15  H   -0.529316   0.680057
    16  H   -0.115224   0.259090
    17  H   -0.326349   0.465167
    18  H    0.036973   0.122396
    19  H    0.198845  -0.054963
    20  H    0.167608   0.056799
    21  H    0.210772  -0.010217
    22  H   -0.004936   0.177122
    23  H   -0.250542   0.492420
    24  H   -0.676968   0.887964
    25  H   -0.340226   0.517444
    26  H    0.201730  -0.094960
    27  H   -0.018315   0.209855
    28  H    0.192106  -0.003770
    29  H    0.163984   0.023036
    30  H   -0.339202   0.539459
 Sum of Mulliken charges =  -1.00000   1.00000

 Dipole moment (field-independent basis, Debye):
    X=              1.3129    Y=             -3.6562    Z=             -1.3323  Tot=              4.1069
 Quadrupole moment (field-independent basis, Debye-Ang):
   XX=           -157.2484   YY=           -134.9171   ZZ=           -114.0013
   XY=             -1.2186   XZ=              2.4002   YZ=             -2.6149

 Summary of Natural Population Analysis:

                                       Natural Population
                Natural  -----------------------------------------------
    Atom  No    Charge         Core      Valence    Rydberg      Total
 -----------------------------------------------------------------------
      C    1   -0.20146      0.99960     2.19243    0.00942     3.20146
      C    2   -0.07462      0.99960     2.06283    0.01219     3.07462
      N    3   -0.28636      0.99968     2.76978    0.01690     3.78636
      C    4   -0.08864      0.99959     2.07689    0.01216     3.08864
      C    5   -0.25998      0.99958     2.25194    0.00847     3.25998
      S    6    0.08204      4.99962     2.90037    0.01797     7.91796
      C    7   -0.25313      0.99959     2.24166    0.01187     3.25313
      C    8    0.00463      0.99958     1.97952    0.01627     2.99537
      C    9   -0.20172      0.99962     2.19310    0.00901     3.20172
      C   10   -0.24709      0.99959     2.23904    0.00846     3.24709
      C   11    0.31527      0.99966     1.66238    0.02269     2.68473
      O   12   -0.28774      0.99987     3.28129    0.00657     4.28774
      C   13   -0.24798      0.99957     2.23924    0.00917     3.24798
      H   14    0.09683      0.00000     0.40163    0.00154     0.40317
      H   15    0.09821      0.00000     0.39983    0.00196     0.40179
      H   16    0.09761      0.00000     0.40079    0.00161     0.40239
      H   17    0.08707      0.00000     0.41143    0.00150     0.41293
      H   18    0.09365      0.00000     0.40489    0.00146     0.40635
      H   19    0.10036      0.00000     0.39835    0.00129     0.39964
      H   20    0.09625      0.00000     0.40241    0.00134     0.40375
      H   21    0.10847      0.00000     0.39045    0.00108     0.39153
      H   22    0.10026      0.00000     0.39819    0.00155     0.39974
      H   23    0.10799      0.00000     0.39080    0.00121     0.39201
      H   24    0.09931      0.00000     0.39799    0.00269     0.40069
      H   25    0.09816      0.00000     0.39986    0.00198     0.40184
      H   26    0.10558      0.00000     0.39299    0.00144     0.39442
      H   27    0.11309      0.00000     0.38582    0.00109     0.38691
      H   28    0.11199      0.00000     0.38696    0.00105     0.38801
      H   29    0.10958      0.00000     0.38949    0.00093     0.39042
      H   30    0.12238      0.00000     0.37443    0.00318     0.37762
 =======================================================================
   * Total *    0.00000     16.99514    36.81677    0.18809    54.00000

 Normal termination of Gaussian 16 at Mon Dec 14 17:12:55 2020.
