 Gaussian 16, Revision A.03,

 -----------------------------------------------------------
 # opt freq B3LYP/6-31G(d) empiricaldispersion=gd3bj scf=xqc
 -----------------------------------------------------------

 ------------------------------
 CID_81165005_JID_9505_neutraal
 ------------------------------
 Symbolic Z-matrix:
 Charge =  0 Multiplicity = 1

 SCF Done:  E(RB3LYP) =  -1217.34931504     A.U. after   15 cycles
 SCF Done:  E(RB3LYP) =  -1217.36950644     A.U. after   13 cycles
 SCF Done:  E(RB3LYP) =  -1217.37232112     A.U. after   13 cycles
 SCF Done:  E(RB3LYP) =  -1217.37211368     A.U. after   12 cycles
 SCF Done:  E(RB3LYP) =  -1217.37283087     A.U. after   13 cycles
 SCF Done:  E(RB3LYP) =  -1217.37325216     A.U. after   12 cycles
 SCF Done:  E(RB3LYP) =  -1217.37353615     A.U. after   14 cycles
 SCF Done:  E(RB3LYP) =  -1217.37394669     A.U. after   12 cycles
 SCF Done:  E(RB3LYP) =  -1217.37406370     A.U. after   12 cycles
 SCF Done:  E(RB3LYP) =  -1217.37426175     A.U. after   13 cycles
 SCF Done:  E(RB3LYP) =  -1217.37482507     A.U. after   10 cycles
 SCF Done:  E(RB3LYP) =  -1217.37482921     A.U. after   10 cycles
 SCF Done:  E(RB3LYP) =  -1217.37482960     A.U. after    8 cycles
 SCF Done:  E(RB3LYP) =  -1217.37482959     A.U. after    7 cycles
 SCF Done:  E(RB3LYP) =  -1217.37482964     A.U. after    6 cycles
 Optimization completed.
    -- Stationary point found.
 Normal termination of Gaussian 16 at Sat Dec 12 10:04:21 2020.

 --------------------------------------------------------------------
 #N Geom=AllCheck Guess=TCheck SCRF=Check GenChk RB3LYP/6-31G(d) Freq
 --------------------------------------------------------------------

 Structure from the checkpoint file:  "JID_9505.chk"
 ------------------------------
 CID_81165005_JID_9505_neutraal
 ------------------------------
 Charge =  0 Multiplicity = 1

 SCF Done:  E(RB3LYP) =  -1217.37482964     A.U. after    1 cycles

  Exact polarizability: 214.509  14.414 188.783  16.471  -3.675 114.214
 Approx polarizability: 325.567  31.267 307.410  48.253  -5.275 196.216

                      1                      2                      3
                      A                      A                      A
 Frequencies --     33.2072                41.1987                58.3760
 Red. masses --      5.8547                 5.8099                 1.5992
 Frc consts  --      0.0038                 0.0058                 0.0032
 IR Inten    --      1.6111                 0.5399                 0.0948

                      4                      5                      6
                      A                      A                      A
 Frequencies --     62.6980                76.0256               112.8874
 Red. masses --      1.9553                 8.0821                 3.8458
 Frc consts  --      0.0045                 0.0275                 0.0289
 IR Inten    --      0.2449                 0.4398                 0.4960

                      7                      8                      9
                      A                      A                      A
 Frequencies --    129.0356               142.1818               165.9819
 Red. masses --      2.2386                 1.3911                 2.2604
 Frc consts  --      0.0220                 0.0166                 0.0367
 IR Inten    --      0.0214                 0.1048                 0.0677

                     10                     11                     12
                      A                      A                      A
 Frequencies --    170.1804               231.2556               241.7479
 Red. masses --      5.2454                 8.8800                 2.7507
 Frc consts  --      0.0895                 0.2798                 0.0947
 IR Inten    --      5.1854                 1.5551                 0.0665

                     13                     14                     15
                      A                      A                      A
 Frequencies --    255.4747               278.1892               313.3475
 Red. masses --      4.4035                 3.5841                 2.5202
 Frc consts  --      0.1693                 0.1634                 0.1458
 IR Inten    --      2.0167                 0.3335                 0.9076

                     16                     17                     18
                      A                      A                      A
 Frequencies --    314.5045               335.9293               352.9260
 Red. masses --      3.4355                 3.8576                 3.8412
 Frc consts  --      0.2002                 0.2565                 0.2819
 IR Inten    --      0.7237                 2.4937                 0.5984

                     19                     20                     21
                      A                      A                      A
 Frequencies --    406.3871               439.6635               456.5398
 Red. masses --      3.9752                 8.6553                 5.5854
 Frc consts  --      0.3868                 0.9858                 0.6859
 IR Inten    --     19.7624                 1.8699                 6.9428

                     22                     23                     24
                      A                      A                      A
 Frequencies --    490.2341               500.4065               526.0983
 Red. masses --      6.4934                 5.0142                 4.9433
 Frc consts  --      0.9194                 0.7398                 0.8061
 IR Inten    --      7.9162                 2.8333                 6.3108

                     25                     26                     27
                      A                      A                      A
 Frequencies --    537.4108               556.9817               604.8190
 Red. masses --      6.5947                 4.2379                 3.2385
 Frc consts  --      1.1222                 0.7746                 0.6980
 IR Inten    --      5.3022                 4.3769                29.6494

                     28                     29                     30
                      A                      A                      A
 Frequencies --    621.3643               630.5959               673.5107
 Red. masses --      1.4424                 4.3329                 4.9168
 Frc consts  --      0.3281                 1.0152                 1.3141
 IR Inten    --     60.5900                 9.1473                 6.2779

                     31                     32                     33
                      A                      A                      A
 Frequencies --    695.8553               726.3518               738.0592
 Red. masses --      2.7218                 2.6584                 3.5834
 Frc consts  --      0.7765                 0.8263                 1.1501
 IR Inten    --     15.1071                35.1780                 6.5084

                     34                     35                     36
                      A                      A                      A
 Frequencies --    766.5318               803.1883               823.5848
 Red. masses --      2.9681                 1.6529                 4.7024
 Frc consts  --      1.0275                 0.6283                 1.8793
 IR Inten    --     30.4231                 1.7865                 7.0380

                     37                     38                     39
                      A                      A                      A
 Frequencies --    830.9955               836.1826               888.8746
 Red. masses --      5.1260                 2.0188                 2.6949
 Frc consts  --      2.0856                 0.8317                 1.2545
 IR Inten    --     11.6228                13.2940                16.8502

                     40                     41                     42
                      A                      A                      A
 Frequencies --    935.4139               948.1758               959.9269
 Red. masses --      2.0616                 2.2248                 2.4471
 Frc consts  --      1.0628                 1.1784                 1.3286
 IR Inten    --     48.7123                13.5129                 0.0585

                     43                     44                     45
                      A                      A                      A
 Frequencies --    961.7610               991.9988              1001.0391
 Red. masses --      1.4807                 2.3789                 4.9247
 Frc consts  --      0.8070                 1.3793                 2.9076
 IR Inten    --      0.9232                25.0375                24.9660

                     46                     47                     48
                      A                      A                      A
 Frequencies --   1061.3432              1066.6336              1076.1106
 Red. masses --      1.3779                 4.3363                 1.6139
 Frc consts  --      0.9145                 2.9067                 1.1011
 IR Inten    --      1.3727                10.6273                16.7456

                     49                     50                     51
                      A                      A                      A
 Frequencies --   1083.8256              1086.3579              1121.6455
 Red. masses --      1.6741                 1.3526                 2.0176
 Frc consts  --      1.1586                 0.9405                 1.4955
 IR Inten    --      5.8695                 2.7625                 3.9867

                     52                     53                     54
                      A                      A                      A
 Frequencies --   1154.4567              1172.7611              1197.5124
 Red. masses --      3.3907                 3.6901                 3.0969
 Frc consts  --      2.6625                 2.9902                 2.6166
 IR Inten    --    204.5591               152.6154                11.8487

                     55                     56                     57
                      A                      A                      A
 Frequencies --   1216.4343              1233.7165              1261.9414
 Red. masses --      2.5175                 1.3294                 2.5989
 Frc consts  --      2.1948                 1.1922                 2.4384
 IR Inten    --     28.4822                 0.8645                17.7767

                     58                     59                     60
                      A                      A                      A
 Frequencies --   1268.6976              1273.5589              1285.6646
 Red. masses --      1.2929                 3.7543                 1.6508
 Frc consts  --      1.2261                 3.5877                 1.6077
 IR Inten    --      2.4632                 3.0250                 0.7361

                     61                     62                     63
                      A                      A                      A
 Frequencies --   1294.7070              1298.0493              1316.0421
 Red. masses --      1.6064                 4.9930                 1.6274
 Frc consts  --      1.5866                 4.9567                 1.6607
 IR Inten    --      3.4400                 6.8100                19.3060

                     64                     65                     66
                      A                      A                      A
 Frequencies --   1354.9173              1386.5278              1404.4182
 Red. masses --      2.9883                 2.3698                 4.6108
 Frc consts  --      3.2322                 2.6842                 5.3582
 IR Inten    --     26.9027                45.6296                69.9359

                     67                     68                     69
                      A                      A                      A
 Frequencies --   1439.8569              1450.4426              1478.0641
 Red. masses --      1.3633                 1.2154                 2.2728
 Frc consts  --      1.6652                 1.5065                 2.9255
 IR Inten    --      1.0760                 3.1657                87.8472

                     70                     71                     72
                      A                      A                      A
 Frequencies --   1502.2406              1506.3170              1510.6637
 Red. masses --      1.0778                 1.1072                 1.0656
 Frc consts  --      1.4331                 1.4802                 1.4328
 IR Inten    --      5.8297                 2.4800                16.5874

                     73                     74                     75
                      A                      A                      A
 Frequencies --   1512.0519              1516.4803              1527.3398
 Red. masses --      1.1179                 1.5883                 1.1199
 Frc consts  --      1.5059                 2.1521                 1.5392
 IR Inten    --     11.5904               131.3881                 4.8500

                     76                     77                     78
                      A                      A                      A
 Frequencies --   1530.8989              1542.4622              1567.9060
 Red. masses --      1.1108                 1.1220                 5.7098
 Frc consts  --      1.5338                 1.5728                 8.2701
 IR Inten    --     11.7124                 9.9253               175.8630

                     79                     80                     81
                      A                      A                      A
 Frequencies --   1611.8901              1629.0511              1833.3056
 Red. masses --      3.5409                 4.9201                 9.9823
 Frc consts  --      5.4205                 7.6930                19.7675
 IR Inten    --     47.4301                41.2892               238.0782

                     82                     83                     84
                      A                      A                      A
 Frequencies --   3047.6879              3050.1490              3090.1471
 Red. masses --      1.0396                 1.0456                 1.0604
 Frc consts  --      5.6892                 5.7316                 5.9660
 IR Inten    --     29.6498                32.0124                29.3623

                     85                     86                     87
                      A                      A                      A
 Frequencies --   3094.7776              3096.4173              3113.8741
 Red. masses --      1.0642                 1.1013                 1.0919
 Frc consts  --      6.0052                 6.2210                 6.2377
 IR Inten    --     39.3526                13.1856                27.4028

                     88                     89                     90
                      A                      A                      A
 Frequencies --   3121.4709              3142.1451              3147.6538
 Red. masses --      1.0630                 1.1063                 1.0975
 Frc consts  --      6.1024                 6.4353                 6.4067
 IR Inten    --     11.3444                 3.7009                11.7255

                     91                     92                     93
                      A                      A                      A
 Frequencies --   3161.3501              3164.2688              3184.2054
 Red. masses --      1.1023                 1.1017                 1.1037
 Frc consts  --      6.4905                 6.4991                 6.5931
 IR Inten    --     14.5368                 7.5920                11.7087

                     94                     95                     96
                      A                      A                      A
 Frequencies --   3197.4506              3451.3034              3680.8388
 Red. masses --      1.0910                 1.0714                 1.0641
 Frc consts  --      6.5716                 7.5190                 8.4944
 IR Inten    --     30.8281                63.9556                59.6352

 - Thermochemistry -
 -------------------
 Temperature   298.150 Kelvin.  Pressure   1.00000 Atm.
 Atom     1 has atomic number  6 and mass  12.00000

 Molecular mass:   277.08850 amu.
 Principal axes and moments of inertia in atomic units:
                           1         2         3
     Eigenvalues --  2998.450566972.078028882.09428
           X            0.99991   0.01177  -0.00672
           Y           -0.01182   0.99990  -0.00720
           Z            0.00663   0.00728   0.99995
 This molecule is an asymmetric top.
 Rotational symmetry number  1.
 Warning -- assumption of classical behavior for rotation
           may cause significant error
 Rotational temperatures (Kelvin)      0.02889     0.01242     0.00975
 Rotational constants (GHZ):           0.60189     0.25885     0.20319
 Zero-point vibrational energy     712885.4 (Joules/Mol)
                                  170.38370 (Kcal/Mol)
 Warning -- explicit consideration of  27 degrees of freedom as
           vibrations may cause significant error
 Vibrational temperatures:     47.78    59.28    83.99    90.21   109.38
          (Kelvin)            162.42   185.65   204.57   238.81   244.85
                              332.73   347.82   367.57   400.25   450.84
                              452.50   483.33   507.78   584.70   632.58
                              656.86   705.34   719.97   756.94   773.21
                              801.37   870.20   894.00   907.29   969.03
                             1001.18  1045.06  1061.90  1102.87  1155.61
                             1184.95  1195.62  1203.08  1278.89  1345.85
                             1364.21  1381.12  1383.76  1427.27  1440.27
                             1527.04  1534.65  1548.28  1559.38  1563.03
                             1613.80  1661.01  1687.34  1722.95  1750.18
                             1775.04  1815.65  1825.37  1832.37  1849.78
                             1862.79  1867.60  1893.49  1949.42  1994.90
                             2020.64  2071.63  2086.86  2126.60  2161.39
                             2167.25  2173.51  2175.51  2181.88  2197.50
                             2202.62  2219.26  2255.87  2319.15  2343.84
                             2637.72  4384.94  4388.48  4446.03  4452.69
                             4455.05  4480.17  4491.10  4520.85  4528.77
                             4548.48  4552.68  4581.36  4600.42  4965.66
                             5295.91

 Zero-point correction=                           0.271524 (Hartree/Particle)
 Thermal correction to Energy=                    0.289111
 Thermal correction to Enthalpy=                  0.290056
 Thermal correction to Gibbs Free Energy=         0.225097
 Sum of electronic and zero-point Energies=          -1217.103306
 Sum of electronic and thermal Energies=             -1217.085718
 Sum of electronic and thermal Enthalpies=           -1217.084774
 Sum of electronic and thermal Free Energies=        -1217.149732

                     E (Thermal)             CV                S
                      KCal/Mol        Cal/Mol-Kelvin    Cal/Mol-Kelvin
 Total                  181.420             66.723            136.716
 Electronic               0.000              0.000              0.000
 Translational            0.889              2.981             42.756
 Rotational               0.889              2.981             33.584
 Vibrational            179.643             60.762             60.376
 Vibration     1          0.594              1.983              5.628
 Vibration     2          0.594              1.981              5.201
 Vibration     3          0.596              1.974              4.511
 Vibration     4          0.597              1.972              4.370
 Vibration     5          0.599              1.965              3.991
 Vibration     6          0.607              1.939              3.219
 Vibration     7          0.612              1.924              2.960
 Vibration     8          0.616              1.911              2.774
 Vibration     9          0.624              1.884              2.480
 Vibration    10          0.625              1.879              2.433
 Vibration    11          0.653              1.793              1.869
 Vibration    12          0.658              1.776              1.790
 Vibration    13          0.666              1.754              1.692
 Vibration    14          0.679              1.714              1.545
 Vibration    15          0.701              1.648              1.345
 Vibration    16          0.702              1.646              1.339
 Vibration    17          0.717              1.604              1.231
 Vibration    18          0.729              1.569              1.153
 Vibration    19          0.771              1.456              0.939
 Vibration    20          0.800              1.384              0.828
 Vibration    21          0.815              1.346              0.776
 Vibration    22          0.846              1.272              0.683
 Vibration    23          0.856              1.249              0.657
 Vibration    24          0.881              1.192              0.596
 Vibration    25          0.892              1.167              0.571
 Vibration    26          0.912              1.124              0.530
 Vibration    27          0.963              1.022              0.441

 Optimization completed.
    -- Stationary point found.
 Normal termination of Gaussian 16 at Sat Dec 12 10:24:57 2020.

 ----------------------------------------------------------------------
 # B3LYP/6-311++G(d,p) empiricaldispersion=gd3bj scf=xqc pop=npa geom=c
 heck
 ----------------------------------------------------------------------

 --------------------------------------
 CID_81165005_JID_9505_Energie_neutraal
 --------------------------------------
 Structure from the checkpoint file:  "JID_9505.chk"
 Charge =  0 Multiplicity = 1

 SCF Done:  E(RB3LYP) =  -1217.62702507     A.U. after   16 cycles
 Normal termination of Gaussian 16 at Sat Dec 12 10:34:12 2020.

 ----------------------------------------------------------------------
 # B3LYP/6-311++G(d,p) empiricaldispersion=gd3bj scf=xqc pop=npa geom=c
 heck
 ----------------------------------------------------------------------

 ------------------------------------
 CID_81165005_JID_9505_Energie_kation
 ------------------------------------
 Structure from the checkpoint file:  "JID_9505.chk"
 Charge =  1 Multiplicity = 2

 SCF Done:  E(UB3LYP) =  -1217.33849031     A.U. after   26 cycles
 Normal termination of Gaussian 16 at Sat Dec 12 10:55:48 2020.
 Gaussian 16:  ES64L-G16RevA.03 25-Dec-2016

 ----------------------------------------------------------------------
 # B3LYP/6-311++G(d,p) empiricaldispersion=gd3bj scf=xqc pop=npa geom=c
 heck
 ----------------------------------------------------------------------

 -----------------------------------
 CID_81165005_JID_9505_Energie_anion
 -----------------------------------
 Structure from the checkpoint file:  "JID_9505.chk"
 Charge = -1 Multiplicity = 2

                         Standard orientation:
 ---------------------------------------------------------------------
 Center     Atomic      Atomic             Coordinates (Angstroms)
 Number     Number       Type             X           Y           Z
 ---------------------------------------------------------------------
      1          6           0        0.935472    2.076308   -1.200840
      2          6           0        1.647309    0.949679   -0.497528
      3          6           0        2.916153    1.046026    0.004216
      4         16           0        3.528032   -0.473552    0.664894
      5          6           0        2.035639   -1.284968    0.240871
      6          7           0        1.848979   -2.592645    0.414692
      7          6           0        0.668895   -3.029876   -0.026875
      8          7           0       -0.328777   -2.291868   -0.530329
      9          6           0       -0.142927   -0.971839   -0.652020
     10          6           0        1.103666   -0.386136   -0.333889
     11          7           0       -1.231196   -0.219015   -1.149270
     12          6           0       -2.100332    0.431013   -0.151261
     13          6           0       -1.476126    0.992748    1.159142
     14          6           0       -2.283571    2.303890    0.974969
     15          6           0       -2.599504    1.882291   -0.481628
     16          6           0       -3.314608   -0.466705    0.074347
     17          8           0       -3.689089   -1.313945   -0.707202
     18          8           0       -3.996558   -0.172253    1.204679
     19          6           0        3.818291    2.241205    0.035720
     20          1           0        0.370819    2.709086   -0.504518
     21          1           0        0.225754    1.675077   -1.926014
     22          1           0        1.643275    2.722621   -1.727217
     23          1           0        0.487597   -4.099312    0.048531
     24          1           0       -1.828058   -0.876857   -1.655360
     25          1           0       -1.660179    0.408395    2.062381
     26          1           0       -0.403188    1.146679    1.055598
     27          1           0       -1.726162    3.236261    1.099383
     28          1           0       -3.174355    2.336505    1.604838
     29          1           0       -1.933654    2.334479   -1.217799
     30          1           0       -3.632698    1.982346   -0.826362
     31          1           0       -4.777383   -0.757757    1.208790
     32          1           0        4.742818    2.063293   -0.527006
     33          1           0        3.322762    3.114810   -0.393883
     34          1           0        4.106137    2.493670    1.063518
 ---------------------------------------------------------------------

 SCF Done:  E(UB3LYP) =  -1217.62649761     A.U. after   33 cycles
 SCF Done:  E(UB3LYP) =  -1217.62649761     a.u. after    1 cycles

 The electronic state is 2-A.
 Alpha  occ. eigenvalues --  -88.75320 -19.07416 -19.01896 -14.19777 -14.18121
 Alpha  occ. eigenvalues --  -14.17981 -10.20682 -10.12573 -10.11797 -10.10829
 Alpha  occ. eigenvalues --  -10.09587 -10.08042 -10.07878 -10.07791 -10.07457
 Alpha  occ. eigenvalues --  -10.07349 -10.06760 -10.06378 -10.06126  -7.84004
 Alpha  occ. eigenvalues --   -5.80292  -5.79964  -5.79550  -1.01576  -0.92623
 Alpha  occ. eigenvalues --   -0.86508  -0.82049  -0.76911  -0.75227  -0.72356
 Alpha  occ. eigenvalues --   -0.65930  -0.65360  -0.60916  -0.59327  -0.57454
 Alpha  occ. eigenvalues --   -0.56228  -0.52492  -0.50275  -0.49841  -0.45316
 Alpha  occ. eigenvalues --   -0.42206  -0.42068  -0.40284  -0.39956  -0.38557
 Alpha  occ. eigenvalues --   -0.37939  -0.36022  -0.35395  -0.35044  -0.33624
 Alpha  occ. eigenvalues --   -0.32432  -0.31660  -0.31294  -0.30375  -0.29958
 Alpha  occ. eigenvalues --   -0.29650  -0.29200  -0.27787  -0.26669  -0.25934
 Alpha  occ. eigenvalues --   -0.24432  -0.24312  -0.23181  -0.22934  -0.22612
 Alpha  occ. eigenvalues --   -0.21874  -0.19749  -0.18621  -0.17523  -0.14601
 Alpha  occ. eigenvalues --   -0.13890  -0.13166  -0.10438   0.04167
 Alpha virt. eigenvalues --    0.05960   0.06494   0.07749   0.08463   0.08845
 Alpha virt. eigenvalues --    0.09285   0.09358   0.10022   0.10438   0.10683
 Alpha virt. eigenvalues --    0.11328   0.11901   0.12192   0.12376   0.12967

  Beta  occ. eigenvalues --  -88.75319 -19.07361 -19.01886 -14.19790 -14.18223
  Beta  occ. eigenvalues --  -14.17776 -10.20676 -10.12516 -10.11846 -10.10465
  Beta  occ. eigenvalues --  -10.09379 -10.07900 -10.07782 -10.07760 -10.07446
  Beta  occ. eigenvalues --  -10.07348 -10.06758 -10.06370 -10.06056  -7.84002
  Beta  occ. eigenvalues --   -5.80296  -5.79967  -5.79535  -1.01500  -0.92567
  Beta  occ. eigenvalues --   -0.86235  -0.81851  -0.76779  -0.74988  -0.72263
  Beta  occ. eigenvalues --   -0.65659  -0.65310  -0.60750  -0.59243  -0.57430
  Beta  occ. eigenvalues --   -0.56043  -0.52348  -0.50068  -0.49603  -0.45202
  Beta  occ. eigenvalues --   -0.42075  -0.41926  -0.40225  -0.39851  -0.38428
  Beta  occ. eigenvalues --   -0.37794  -0.35948  -0.35305  -0.34949  -0.33321
  Beta  occ. eigenvalues --   -0.32337  -0.31524  -0.31148  -0.30264  -0.29608
  Beta  occ. eigenvalues --   -0.29550  -0.29121  -0.27681  -0.26579  -0.25878
  Beta  occ. eigenvalues --   -0.24385  -0.24153  -0.23130  -0.22853  -0.22251
  Beta  occ. eigenvalues --   -0.21824  -0.18956  -0.18422  -0.17383  -0.14351
  Beta  occ. eigenvalues --   -0.13518  -0.13061  -0.09455
  Beta virt. eigenvalues --    0.06374   0.07049   0.07953   0.08516   0.08648
  Beta virt. eigenvalues --    0.09151   0.09326   0.09685   0.10006   0.10430
  Beta virt. eigenvalues --    0.10674   0.11403   0.11909   0.12212   0.12325

 Mulliken charges and spin densities:
               1          2
     1  C   -0.750211  -0.404196
     2  C    0.278573   0.230289
     3  C   -0.171158   0.139747
     4  S   -0.542967  -0.016004
     5  C   -0.384142   0.016034
     6  N   -0.087618   0.076744
     7  C    0.073311   0.188830
     8  N   -0.121031  -0.050537
     9  C   -0.232649   0.242056
    10  C    0.404686   0.112169
    11  N    0.180028   0.034733
    12  C    0.125078  -0.232291
    13  C   -0.190424   0.012644
    14  C    0.035257  -0.468022
    15  C   -0.438671   0.258673
    16  C    0.262213  -0.517513
    17  O   -0.270518   0.016744
    18  O   -0.159089   0.033372
    19  C   -0.166454  -0.142956
    20  H    0.141075   0.016093
    21  H    0.125557   0.094396
    22  H    0.115552   0.001504
    23  H    0.168248   0.007371
    24  H    0.254292   0.019107
    25  H    0.174435   0.073108
    26  H    0.139706  -0.057648
    27  H    0.013299   0.135854
    28  H    0.047517   0.099050
    29  H    0.094999   0.019865
    30  H   -0.025162   0.225790
    31  H   -0.360779   0.655041
    32  H    0.041604   0.115721
    33  H    0.066201   0.067359
    34  H    0.159244  -0.003124
 Sum of Mulliken charges =  -1.00000   1.00000

 Dipole moment (field-independent basis, Debye):
    X=              2.9725    Y=              4.9820    Z=             -0.6030  Tot=              5.8326
 Quadrupole moment (field-independent basis, Debye-Ang):
   XX=           -190.1896   YY=           -151.8936   ZZ=           -138.1672
   XY=              0.5295   XZ=              4.1848   YZ=             -0.6121

 Summary of Natural Population Analysis:

                                       Natural Population
                Natural  -----------------------------------------------
    Atom  No    Charge         Core      Valence    Rydberg      Total
 -----------------------------------------------------------------------
      C    1   -0.29579      0.99963     2.29105    0.00510     3.29579
      C    2   -0.04885      0.99940     2.03919    0.01026     3.04885
      C    3   -0.03800      0.99942     2.02758    0.01100     3.03800
      S    4    0.17350      4.99941     2.80738    0.01971     7.82650
      C    5    0.03083      0.99945     1.94895    0.02077     2.96917
      N    6   -0.23814      0.99965     2.72721    0.01128     3.73814
      C    7    0.16925      0.99967     1.81222    0.01886     2.83075
      N    8   -0.28256      0.99968     2.77390    0.00898     3.78256
      C    9    0.27389      0.99948     1.71207    0.01457     2.72611
      C   10   -0.07226      0.99937     2.06342    0.00946     3.07226
      N   11   -0.34391      0.99969     2.83302    0.01120     3.84391
      C   12    0.02988      0.99950     1.95433    0.01629     2.97012
      C   13   -0.19245      0.99960     2.18398    0.00886     3.19245
      C   14   -0.19256      0.99965     2.18605    0.00686     3.19256
      C   15   -0.18385      0.99960     2.17497    0.00928     3.18385
      C   16    0.40931      0.99961     1.56470    0.02638     2.59069
      O   17   -0.30744      0.99987     3.30133    0.00624     4.30744
      O   18   -0.34578      0.99987     3.33862    0.00729     4.34578
      C   19   -0.30095      0.99962     2.29579    0.00554     3.30095
      H   20    0.09869      0.00000     0.39990    0.00141     0.40131
      H   21    0.11573      0.00000     0.38298    0.00129     0.38427
      H   22    0.09772      0.00000     0.40142    0.00086     0.40228
      H   23    0.07393      0.00000     0.42487    0.00120     0.42607
      H   24    0.19719      0.00000     0.29968    0.00313     0.30281
      H   25    0.10616      0.00000     0.39281    0.00103     0.39384
      H   26    0.11242      0.00000     0.38616    0.00142     0.38758
      H   27    0.09373      0.00000     0.40515    0.00111     0.40627
      H   28    0.10248      0.00000     0.39599    0.00153     0.39752
      H   29    0.10602      0.00000     0.39262    0.00136     0.39398
      H   30    0.09787      0.00000     0.40101    0.00112     0.40213
      H   31    0.24389      0.00000     0.24122    0.01489     0.25611
      H   32    0.10287      0.00000     0.39530    0.00183     0.39713
      H   33    0.10395      0.00000     0.39507    0.00098     0.39605
      H   34    0.10323      0.00000     0.39562    0.00115     0.39677
 =======================================================================
   * Total *    0.00000     22.99216    49.74557    0.26226    73.00000

 Normal termination of Gaussian 16 at Sat Dec 12 11:23:33 2020.
