 Gaussian 16, Revision A.03,

 -----------------------------------------------------------
 # opt freq B3LYP/6-31G(d) empiricaldispersion=gd3bj scf=xqc
 -----------------------------------------------------------

 -------------------------------
 CID_20239519_JID_10231_neutraal
 -------------------------------
 Symbolic Z-matrix:
 Charge =  0 Multiplicity = 1

 SCF Done:  E(RB3LYP) =  -1650.20259034     A.U. after   15 cycles
 SCF Done:  E(RB3LYP) =  -1650.21151430     A.U. after   13 cycles
 SCF Done:  E(RB3LYP) =  -1650.21264048     A.U. after   14 cycles
 SCF Done:  E(RB3LYP) =  -1650.21151636     A.U. after   13 cycles
 SCF Done:  E(RB3LYP) =  -1650.21339893     A.U. after   13 cycles
 SCF Done:  E(RB3LYP) =  -1650.21427355     A.U. after   14 cycles
 SCF Done:  E(RB3LYP) =  -1650.21629020     A.U. after   15 cycles
 SCF Done:  E(RB3LYP) =  -1650.21783382     A.U. after   14 cycles
 SCF Done:  E(RB3LYP) =  -1650.21932291     A.U. after   15 cycles
 SCF Done:  E(RB3LYP) =  -1650.21967567     A.U. after   14 cycles
 SCF Done:  E(RB3LYP) =  -1650.21992146     A.U. after    8 cycles
 SCF Done:  E(RB3LYP) =  -1650.21992196     A.U. after   10 cycles
 SCF Done:  E(RB3LYP) =  -1650.21992205     A.U. after    9 cycles
 SCF Done:  E(RB3LYP) =  -1650.21992209     A.U. after    8 cycles
 SCF Done:  E(RB3LYP) =  -1650.21992209     A.U. after    8 cycles
 Optimization completed.
    -- Stationary point found.
 Normal termination of Gaussian 16 at Sun Dec 13 21:01:28 2020.

 --------------------------------------------------------------------
 #N Geom=AllCheck Guess=TCheck SCRF=Check GenChk RB3LYP/6-31G(d) Freq
 --------------------------------------------------------------------

 Structure from the checkpoint file:  "JID_10231.chk"
 -------------------------------
 CID_20239519_JID_10231_neutraal
 -------------------------------
 Charge =  0 Multiplicity = 1

 SCF Done:  E(RB3LYP) =  -1650.21992209     A.U. after    1 cycles

  Exact polarizability: 295.539   8.711 174.722  -3.674  10.790 108.330
 Approx polarizability: 414.171  22.149 322.222   0.002  40.065 178.063

                      1                      2                      3
                      A                      A                      A
 Frequencies --      8.8808                25.3089                40.2188
 Red. masses --     11.9553                 5.9546                 7.2046
 Frc consts  --      0.0006                 0.0022                 0.0069
 IR Inten    --      3.3137                 3.5079                 3.1779

                      4                      5                      6
                      A                      A                      A
 Frequencies --     60.5021                67.4702                99.8290
 Red. masses --      7.3453                 6.2557                 5.3049
 Frc consts  --      0.0158                 0.0168                 0.0311
 IR Inten    --      0.4736                 2.1073                 4.2837

                      7                      8                      9
                      A                      A                      A
 Frequencies --    108.5209               135.1621               145.3839
 Red. masses --      6.1569                 4.0364                 4.2305
 Frc consts  --      0.0427                 0.0434                 0.0527
 IR Inten    --      6.0590                 0.6298                 5.7535

                     10                     11                     12
                      A                      A                      A
 Frequencies --    169.5112               184.1690               201.0918
 Red. masses --      1.3182                 6.0010                 1.0830
 Frc consts  --      0.0223                 0.1199                 0.0258
 IR Inten    --      0.9636                 1.8363                 0.1949

                     13                     14                     15
                      A                      A                      A
 Frequencies --    228.3024               255.7829               261.1665
 Red. masses --     10.0789                 6.0535                 4.5456
 Frc consts  --      0.3095                 0.2333                 0.1827
 IR Inten    --      0.5927                 3.2930                 0.3781

                     16                     17                     18
                      A                      A                      A
 Frequencies --    309.4787               315.4711               330.3674
 Red. masses --      3.5601                 5.9592                 4.8749
 Frc consts  --      0.2009                 0.3494                 0.3135
 IR Inten    --      1.8507                 3.3198                 0.6229

                     19                     20                     21
                      A                      A                      A
 Frequencies --    349.0144               394.2766               401.2236
 Red. masses --      3.0804                10.3831                 4.1929
 Frc consts  --      0.2211                 0.9510                 0.3977
 IR Inten    --      0.7104                 4.2953                 0.6696

                     22                     23                     24
                      A                      A                      A
 Frequencies --    424.7654               441.8205               456.3480
 Red. masses --      6.3256                 4.6948                 6.1780
 Frc consts  --      0.6724                 0.5400                 0.7580
 IR Inten    --     21.9309                 7.7076                 9.7104

                     25                     26                     27
                      A                      A                      A
 Frequencies --    474.3560               482.3700               495.8149
 Red. masses --      6.0036                 4.9515                 6.0363
 Frc consts  --      0.7959                 0.6788                 0.8743
 IR Inten    --      1.4248                 8.7008                15.6860

                     28                     29                     30
                      A                      A                      A
 Frequencies --    538.2104               584.9554               588.3795
 Red. masses --      7.1446                 6.7562                 5.7285
 Frc consts  --      1.2194                 1.3621                 1.1684
 IR Inten    --     80.2261                 3.8895                 1.1811

                     31                     32                     33
                      A                      A                      A
 Frequencies --    624.2623               644.4338               691.5589
 Red. masses --      5.3486                 6.3682                13.7870
 Frc consts  --      1.2281                 1.5582                 3.8849
 IR Inten    --      7.8107                20.1155                 0.3734

                     34                     35                     36
                      A                      A                      A
 Frequencies --    699.3795               706.4314               726.9030
 Red. masses --      5.1814                 6.1888                 6.4392
 Frc consts  --      1.4932                 1.8197                 2.0046
 IR Inten    --      8.9859                 3.8254                49.2796

                     37                     38                     39
                      A                      A                      A
 Frequencies --    753.0219               761.5777               801.6322
 Red. masses --      7.4428                 6.2924                 4.2961
 Frc consts  --      2.4866                 2.1503                 1.6266
 IR Inten    --      4.0488                81.5414                10.5697

                     40                     41                     42
                      A                      A                      A
 Frequencies --    864.6777               896.9662               915.0841
 Red. masses --      1.5524                 2.4409                 4.3345
 Frc consts  --      0.6838                 1.1570                 2.1385
 IR Inten    --      7.7026                 0.7815                 2.4294

                     43                     44                     45
                      A                      A                      A
 Frequencies --    933.2808               969.4130               988.2444
 Red. masses --      1.4290                 2.6411                 1.3388
 Frc consts  --      0.7334                 1.4623                 0.7704
 IR Inten    --      9.4772                19.2428                 1.2915

                     46                     47                     48
                      A                      A                      A
 Frequencies --    993.8780               996.5004              1029.9743
 Red. masses --      1.5764                 1.3398                 3.5383
 Frc consts  --      0.9174                 0.7838                 2.2116
 IR Inten    --     54.6323                 4.1567                35.0200

                     49                     50                     51
                      A                      A                      A
 Frequencies --   1089.9493              1132.4660              1143.6104
 Red. masses --      2.6086                 4.7095                 1.8996
 Frc consts  --      1.8259                 3.5586                 1.4637
 IR Inten    --     28.4159               236.3225                26.9553

                     52                     53                     54
                      A                      A                      A
 Frequencies --   1155.3154              1156.2726              1204.1114
 Red. masses --      1.4639                 1.3816                 1.6825
 Frc consts  --      1.1512                 1.0883                 1.4373
 IR Inten    --     13.1335                14.9261                14.8303

                     55                     56                     57
                      A                      A                      A
 Frequencies --   1234.5168              1272.4632              1282.5442
 Red. masses --      2.0010                 2.9302                 1.6537
 Frc consts  --      1.7967                 2.7954                 1.6027
 IR Inten    --      2.7055                38.2072                12.6394

                     58                     59                     60
                      A                      A                      A
 Frequencies --   1297.4160              1300.0517              1323.6917
 Red. masses --      2.7746                 1.7305                 9.7204
 Frc consts  --      2.7517                 1.7233                10.0347
 IR Inten    --      5.5051                30.1024               167.3212

                     61                     62                     63
                      A                      A                      A
 Frequencies --   1371.7216              1383.6194              1404.3350
 Red. masses --      1.2071                 8.5828                 2.9540
 Frc consts  --      1.3382                 9.6808                 3.4325
 IR Inten    --     10.4074                27.0552                47.4777

                     64                     65                     66
                      A                      A                      A
 Frequencies --   1467.3223              1474.9119              1480.5309
 Red. masses --      4.0188                 1.3444                 1.0542
 Frc consts  --      5.0980                 1.7231                 1.3614
 IR Inten    --     69.6656                32.9377                 5.9853

                     67                     68                     69
                      A                      A                      A
 Frequencies --   1482.6405              1484.0673              1513.8228
 Red. masses --      1.0513                 1.2249                 2.3793
 Frc consts  --      1.3617                 1.5895                 3.2125
 IR Inten    --      3.9808                12.4008                28.7655

                     70                     71                     72
                      A                      A                      A
 Frequencies --   1529.8917              1546.5395              1610.6425
 Red. masses --      1.1272                 1.0434                 7.7857
 Frc consts  --      1.5544                 1.4703                11.9000
 IR Inten    --     57.9480                14.0506                38.1582

                     73                     74                     75
                      A                      A                      A
 Frequencies --   1650.5106              1663.0484              1783.1728
 Red. masses --      8.5032                 7.0473                11.8539
 Frc consts  --     13.6479                11.4837                22.2075
 IR Inten    --    267.8804                 8.9332               339.8542

                     76                     77                     78
                      A                      A                      A
 Frequencies --   2274.9149              3083.4356              3085.1101
 Red. masses --     12.7476                 1.0289                 1.0406
 Frc consts  --     38.8696                 5.7638                 5.8352
 IR Inten    --     27.0703                 0.5702                25.8071

                     79                     80                     81
                      A                      A                      A
 Frequencies --   3140.3427              3168.6443              3184.6197
 Red. masses --      1.0585                 1.0984                 1.1063
 Frc consts  --      6.1505                 6.4976                 6.6104
 IR Inten    --      1.0077                 5.0229                 0.5541

                     82                     83                     84
                      A                      A                      A
 Frequencies --   3191.8107              3205.8923              3209.5548
 Red. masses --      1.1083                 1.1097                 1.1028
 Frc consts  --      6.6524                 6.7198                 6.6932
 IR Inten    --      0.9648                 1.4240                 2.7641

                     85                     86                     87
                      A                      A                      A
 Frequencies --   3225.5565              3237.2334              3238.3919
 Red. masses --      1.0881                 1.0936                 1.0930
 Frc consts  --      6.6698                 6.7523                 6.7537
 IR Inten    --      2.7701                 0.4724                 2.8622

 - Thermochemistry -
 -------------------
 Temperature   298.150 Kelvin.  Pressure   1.00000 Atm.
 Atom     1 has atomic number  6 and mass  12.00000

 Molecular mass:   309.02418 amu.
 Principal axes and moments of inertia in atomic units:
                           1         2         3
     Eigenvalues --  2787.79267********************
           X            0.99990   0.00761  -0.01187
           Y           -0.00765   0.99997  -0.00274
           Z            0.01185   0.00283   0.99993
 This molecule is an asymmetric top.
 Rotational symmetry number  1.
 Warning -- assumption of classical behavior for rotation
           may cause significant error
 Rotational temperatures (Kelvin)      0.03107     0.00631     0.00555
 Rotational constants (GHZ):           0.64737     0.13147     0.11564
 Zero-point vibrational energy     587725.7 (Joules/Mol)
                                  140.46981 (Kcal/Mol)
 Warning -- explicit consideration of  30 degrees of freedom as
           vibrations may cause significant error
 Vibrational temperatures:     12.78    36.41    57.87    87.05    97.07
          (Kelvin)            143.63   156.14   194.47   209.18   243.89
                              264.98   289.33   328.48   368.01   375.76
                              445.27   453.89   475.33   502.15   567.28
                              577.27   611.14   635.68   656.58   682.49
                              694.02   713.37   774.36   841.62   846.55
                              898.17   927.20   995.00  1006.25  1016.40
                             1045.85  1083.43  1095.74  1153.37  1244.08
                             1290.53  1316.60  1342.78  1394.77  1421.86
                             1429.97  1433.74  1481.90  1568.19  1629.37
                             1645.40  1662.24  1663.62  1732.45  1776.19
                             1830.79  1845.30  1866.69  1870.48  1904.50
                             1973.60  1990.72  2020.52  2111.15  2122.07
                             2130.15  2133.19  2135.24  2178.05  2201.17
                             2225.13  2317.36  2374.72  2392.76  2565.59
                             3273.10  4436.38  4438.79  4518.25  4558.97
                             4581.96  4592.30  4612.56  4617.83  4640.86
                             4657.66  4659.32

 Zero-point correction=                           0.223853 (Hartree/Particle)
 Thermal correction to Energy=                    0.242856
 Thermal correction to Enthalpy=                  0.243800
 Thermal correction to Gibbs Free Energy=         0.173418
 Sum of electronic and zero-point Energies=          -1649.996069
 Sum of electronic and thermal Energies=             -1649.977066
 Sum of electronic and thermal Enthalpies=           -1649.976122
 Sum of electronic and thermal Free Energies=        -1650.046504

                     E (Thermal)             CV                S
                      KCal/Mol        Cal/Mol-Kelvin    Cal/Mol-Kelvin
 Total                  152.394             69.869            148.132
 Electronic               0.000              0.000              0.000
 Translational            0.889              2.981             43.081
 Rotational               0.889              2.981             34.745
 Vibrational            150.617             63.907             70.306
 Vibration     1          0.593              1.987              8.247
 Vibration     2          0.593              1.985              6.167
 Vibration     3          0.594              1.981              5.248
 Vibration     4          0.597              1.973              4.441
 Vibration     5          0.598              1.970              4.226
 Vibration     6          0.604              1.949              3.458
 Vibration     7          0.606              1.942              3.295
 Vibration     8          0.613              1.918              2.871
 Vibration     9          0.617              1.908              2.732
 Vibration    10          0.625              1.880              2.441
 Vibration    11          0.631              1.861              2.286
 Vibration    12          0.638              1.838              2.123
 Vibration    13          0.651              1.798              1.892
 Vibration    14          0.666              1.753              1.690
 Vibration    15          0.669              1.744              1.654
 Vibration    16          0.699              1.656              1.365
 Vibration    17          0.703              1.644              1.333
 Vibration    18          0.713              1.615              1.258
 Vibration    19          0.726              1.577              1.171
 Vibration    20          0.761              1.482              0.984
 Vibration    21          0.767              1.467              0.958
 Vibration    22          0.787              1.416              0.876
 Vibration    23          0.802              1.379              0.821
 Vibration    24          0.815              1.347              0.777
 Vibration    25          0.831              1.307              0.725
 Vibration    26          0.839              1.289              0.704
 Vibration    27          0.851              1.259              0.669
 Vibration    28          0.893              1.166              0.569
 Vibration    29          0.942              1.064              0.476
 Vibration    30          0.946              1.057              0.470

 Optimization completed.
    -- Stationary point found.
 Normal termination of Gaussian 16 at Sun Dec 13 21:16:19 2020.

 ----------------------------------------------------------------------
 # B3LYP/6-311++G(d,p) empiricaldispersion=gd3bj scf=xqc pop=npa geom=c
 heck
 ----------------------------------------------------------------------

 ---------------------------------------
 CID_20239519_JID_10231_Energie_neutraal
 ---------------------------------------
 Structure from the checkpoint file:  "JID_10231.chk"
 Charge =  0 Multiplicity = 1

 SCF Done:  E(RB3LYP) =  -1650.50389122     A.U. after   17 cycles
 Normal termination of Gaussian 16 at Sun Dec 13 21:22:10 2020.

 ----------------------------------------------------------------------
 # B3LYP/6-311++G(d,p) empiricaldispersion=gd3bj scf=xqc pop=npa geom=c
 heck
 ----------------------------------------------------------------------

 -------------------------------------
 CID_20239519_JID_10231_Energie_kation
 -------------------------------------
 Structure from the checkpoint file:  "JID_10231.chk"
 Charge =  1 Multiplicity = 2

 SCF Done:  E(UB3LYP) =  -1650.17823168     A.U. after   31 cycles
 Normal termination of Gaussian 16 at Sun Dec 13 21:37:35 2020.
 Gaussian 16:  ES64L-G16RevA.03 25-Dec-2016

 ----------------------------------------------------------------------
 # B3LYP/6-311++G(d,p) empiricaldispersion=gd3bj scf=xqc pop=npa geom=c
 heck
 ----------------------------------------------------------------------

 ------------------------------------
 CID_20239519_JID_10231_Energie_anion
 ------------------------------------
 Structure from the checkpoint file:  "JID_10231.chk"
 Charge = -1 Multiplicity = 2

                         Standard orientation:
 ---------------------------------------------------------------------
 Center     Atomic      Atomic             Coordinates (Angstroms)
 Number     Number       Type             X           Y           Z
 ---------------------------------------------------------------------
      1          6           0        3.534078    1.704979   -0.371133
      2          7           0        2.187569    1.116009   -0.350010
      3          6           0        1.955852   -0.197980   -0.705094
      4          7           0        0.790993   -0.767872   -0.735491
      5          6           0       -0.310407   -0.013033   -0.380522
      6          6           0       -0.197464    1.338877    0.003986
      7          6           0        1.123331    1.974868    0.024530
      8          8           0        1.325300    3.140772    0.329498
      9          6           0       -1.333770    2.085046    0.351814
     10          6           0       -2.584541    1.490489    0.326882
     11          6           0       -2.685267    0.139721   -0.046148
     12          6           0       -1.582670   -0.614987   -0.404873
     13         16           0       -4.309663   -0.641743   -0.055331
     14          8           0       -5.310838    0.415629   -0.256743
     15          8           0       -4.241696   -1.813353   -0.939944
     16          6           0       -4.471343   -1.239535    1.642313
     17          6           0        3.121474   -1.083840   -1.051703
     18         16           0        3.784936   -1.951335    0.468378
     19          6           0        5.265438   -1.141237    0.656617
     20          7           0        6.284158   -0.592646    0.806535
     21          1           0        3.430329    2.731455   -0.025955
     22          1           0        4.210011    1.164342    0.291946
     23          1           0        3.936004    1.706856   -1.388304
     24          1           0       -1.204135    3.125677    0.627934
     25          1           0       -3.482396    2.049378    0.566047
     26          1           0       -1.682586   -1.648283   -0.716702
     27          1           0       -3.676821   -1.960524    1.842446
     28          1           0       -4.416757   -0.390532    2.326100
     29          1           0       -5.450247   -1.720487    1.708428
     30          1           0        2.749116   -1.883013   -1.691431
     31          1           0        3.953691   -0.578655   -1.539001
 ---------------------------------------------------------------------

 SCF Done:  E(UB3LYP) =  -1650.54740439     A.U. after   33 cycles
 SCF Done:  E(UB3LYP) =  -1650.54952727     a.u. after    8 cycles

 The electronic state is 2-A.
 Alpha  occ. eigenvalues --  -88.95122 -88.78368 -19.01874 -19.01843 -18.98696
 Alpha  occ. eigenvalues --  -14.25374 -14.21192 -14.19133 -10.16979 -10.13405
 Alpha  occ. eigenvalues --  -10.12524 -10.12327 -10.11403 -10.10226 -10.09843
 Alpha  occ. eigenvalues --  -10.09814 -10.08154 -10.07663 -10.06990 -10.06457
 Alpha  occ. eigenvalues --   -8.01535  -7.86919  -5.97810  -5.97713  -5.97628
 Alpha  occ. eigenvalues --   -5.83364  -5.82906  -5.82293  -1.01181  -0.94318
 Alpha  occ. eigenvalues --   -0.90968  -0.87587  -0.81189  -0.80220  -0.75647
 Alpha  occ. eigenvalues --   -0.72052  -0.69535  -0.66751  -0.65551  -0.61912
 Alpha  occ. eigenvalues --   -0.60713  -0.56440  -0.53010  -0.50737  -0.49624
 Alpha  occ. eigenvalues --   -0.45390  -0.42792  -0.40821  -0.39870  -0.39671
 Alpha  occ. eigenvalues --   -0.39189  -0.38032  -0.37554  -0.36006  -0.35008
 Alpha  occ. eigenvalues --   -0.34335  -0.33922  -0.33654  -0.32711  -0.32381
 Alpha  occ. eigenvalues --   -0.31451  -0.30502  -0.29506  -0.28301  -0.27214
 Alpha  occ. eigenvalues --   -0.26962  -0.26690  -0.26506  -0.25747  -0.23967
 Alpha  occ. eigenvalues --   -0.22833  -0.22562  -0.21216  -0.19855  -0.18589
 Alpha  occ. eigenvalues --   -0.16892  -0.16634  -0.16332  -0.15702  -0.12656
 Alpha  occ. eigenvalues --    0.00580
 Alpha virt. eigenvalues --    0.04254   0.06470   0.07060   0.08279   0.09197
 Alpha virt. eigenvalues --    0.09345   0.10109   0.10499   0.10616   0.11245
 Alpha virt. eigenvalues --    0.11848   0.12249   0.12550   0.12704   0.12855

  Beta  occ. eigenvalues --  -88.95122 -88.78287 -19.01868 -19.01832 -18.98684
  Beta  occ. eigenvalues --  -14.25125 -14.21068 -14.19181 -10.16998 -10.13057
  Beta  occ. eigenvalues --  -10.12527 -10.12320 -10.11255 -10.10240 -10.09690
  Beta  occ. eigenvalues --  -10.09689 -10.08220 -10.07736 -10.06777 -10.06190
  Beta  occ. eigenvalues --   -8.01533  -7.86833  -5.97809  -5.97705  -5.97630
  Beta  occ. eigenvalues --   -5.83262  -5.82761  -5.82233  -1.01145  -0.94206
  Beta  occ. eigenvalues --   -0.90944  -0.87230  -0.80987  -0.79924  -0.75373
  Beta  occ. eigenvalues --   -0.71588  -0.69386  -0.66488  -0.65156  -0.61807
  Beta  occ. eigenvalues --   -0.60324  -0.56204  -0.52742  -0.50533  -0.49520
  Beta  occ. eigenvalues --   -0.45260  -0.42614  -0.40434  -0.39652  -0.39448
  Beta  occ. eigenvalues --   -0.39099  -0.37976  -0.37009  -0.35900  -0.34924
  Beta  occ. eigenvalues --   -0.34152  -0.33839  -0.33609  -0.32551  -0.32145
  Beta  occ. eigenvalues --   -0.30984  -0.30433  -0.29056  -0.28193  -0.26899
  Beta  occ. eigenvalues --   -0.26789  -0.26429  -0.26372  -0.24917  -0.23908
  Beta  occ. eigenvalues --   -0.22809  -0.22004  -0.21183  -0.19746  -0.17487
  Beta  occ. eigenvalues --   -0.16780  -0.16253  -0.15918  -0.15468  -0.11669
  Beta virt. eigenvalues --    0.04865   0.05454   0.06456   0.07479   0.08714
  Beta virt. eigenvalues --    0.09243   0.09645   0.10134   0.10543   0.10584
  Beta virt. eigenvalues --    0.11332   0.11920   0.12293   0.12673   0.12796

 Mulliken charges and spin densities:
               1          2
     1  C   -0.316073  -0.020701
     2  N   -0.043068   0.096506
     3  C   -0.032175   0.192434
     4  N    0.041959  -0.028558
     5  C   -0.580280   0.101859
     6  C    0.445414   0.218891
     7  C    0.215140  -0.074363
     8  O   -0.355102   0.006902
     9  C   -0.445903  -0.036248
    10  C   -0.436206   0.204732
    11  C    0.212421   0.069735
    12  C   -0.666883  -0.046882
    13  S    0.708283   0.015098
    14  O   -0.186462  -0.010039
    15  O   -0.203326   0.006400
    16  C   -0.644301   0.006739
    17  C   -0.567577   0.107299
    18  S    0.315430   0.105716
    19  C   -0.332726  -0.001155
    20  N   -0.271563   0.058379
    21  H    0.205002  -0.001746
    22  H    0.151413   0.009900
    23  H    0.151170   0.023466
    24  H    0.183973   0.004013
    25  H    0.183096  -0.010111
    26  H    0.216948   0.004915
    27  H    0.203245  -0.000688
    28  H    0.200708   0.002324
    29  H    0.195625   0.002808
    30  H    0.316317  -0.001011
    31  H    0.135499  -0.006614
 Sum of Mulliken charges =  -1.00000   1.00000

 Dipole moment (field-independent basis, Debye):
    X=             -2.7408    Y=             -1.4976    Z=              1.3065  Tot=              3.3855
 Quadrupole moment (field-independent basis, Debye-Ang):
   XX=           -237.6888   YY=           -157.3282   ZZ=           -137.0271
   XY=              3.7808   XZ=            -29.1700   YZ=             -5.2479

 Summary of Natural Population Analysis:

                                       Natural Population
                Natural  -----------------------------------------------
    Atom  No    Charge         Core      Valence    Rydberg      Total
 -----------------------------------------------------------------------
      C    1   -0.18976      0.99965     2.18342    0.00669     3.18976
      N    2   -0.20563      0.99960     2.69755    0.00848     3.70563
      C    3    0.28250      0.99958     1.70056    0.01736     2.71750
      N    4   -0.27460      0.99965     2.76435    0.01060     3.77460
      C    5    0.10951      0.99947     1.87887    0.01215     2.89049
      C    6   -0.03459      0.99944     2.02653    0.00862     3.03459
      C    7    0.33969      0.99960     1.64011    0.02060     2.66031
      O    8   -0.32840      0.99988     3.32269    0.00583     4.32840
      C    9   -0.08768      0.99955     2.07910    0.00903     3.08768
      C   10   -0.07301      0.99952     2.06372    0.00977     3.07301
      C   11   -0.11814      0.99938     2.10362    0.01514     3.11814
      C   12   -0.10197      0.99940     2.09081    0.01176     3.10197
      S   13    1.02905      4.99921     1.87469    0.09705     6.97095
      O   14   -0.47196      0.99991     3.46614    0.00591     4.47196
      O   15   -0.47067      0.99991     3.46479    0.00597     4.47067
      C   16   -0.39098      0.99961     2.38461    0.00676     3.39098
      C   17   -0.23126      0.99954     2.22341    0.00831     3.23126
      S   18    0.16415      4.99942     2.81685    0.01958     7.83585
      C   19    0.01976      0.99959     1.95944    0.02121     2.98024
      N   20   -0.18107      0.99979     2.66760    0.01368     3.68107
      H   21    0.11774      0.00000     0.38116    0.00110     0.38226
      H   22    0.10484      0.00000     0.39406    0.00110     0.39516
      H   23    0.09331      0.00000     0.40580    0.00089     0.40669
      H   24    0.10948      0.00000     0.38939    0.00113     0.39052
      H   25    0.10651      0.00000     0.39235    0.00115     0.39349
      H   26    0.11697      0.00000     0.38220    0.00083     0.38303
      H   27    0.11383      0.00000     0.38503    0.00114     0.38617
      H   28    0.11311      0.00000     0.38578    0.00111     0.38689
      H   29    0.11159      0.00000     0.38703    0.00138     0.38841
      H   30    0.11697      0.00000     0.38206    0.00097     0.38303
      H   31    0.11072      0.00000     0.38837    0.00091     0.38928
 =======================================================================
   * Total *    0.00001     27.99170    51.68209    0.32620    79.99999

 Normal termination of Gaussian 16 at Sun Dec 13 23:12:40 2020.
