 Gaussian 16, Revision A.03,

 -----------------------------------------------------------
 # opt freq B3LYP/6-31G(d) empiricaldispersion=gd3bj scf=xqc
 -----------------------------------------------------------

 ------------------------------
 CID_10013435_JID_5506_neutraal
 ------------------------------
 Symbolic Z-matrix:
 Charge =  0 Multiplicity = 1

 SCF Done:  E(RB3LYP) =  -656.373873488     A.U. after   17 cycles
 SCF Done:  E(RB3LYP) =  -656.389045534     A.U. after   13 cycles
 SCF Done:  E(RB3LYP) =  -656.389159318     A.U. after   13 cycles
 SCF Done:  E(RB3LYP) =  -656.391130527     A.U. after   13 cycles
 SCF Done:  E(RB3LYP) =  -656.390881310     A.U. after   12 cycles
 SCF Done:  E(RB3LYP) =  -656.391630877     A.U. after   12 cycles
 SCF Done:  E(RB3LYP) =  -656.391898160     A.U. after   12 cycles
 SCF Done:  E(RB3LYP) =  -656.392480698     A.U. after   13 cycles
 SCF Done:  E(RB3LYP) =  -656.393893196     A.U. after   16 cycles
 SCF Done:  E(RB3LYP) =  -656.395021464     A.U. after   13 cycles
 SCF Done:  E(RB3LYP) =  -656.418569827     A.U. after   11 cycles
 SCF Done:  E(RB3LYP) =  -656.418581967     A.U. after   11 cycles
 SCF Done:  E(RB3LYP) =  -656.418582482     A.U. after   11 cycles
 SCF Done:  E(RB3LYP) =  -656.418583847     A.U. after    8 cycles
 SCF Done:  E(RB3LYP) =  -656.418583941     A.U. after    7 cycles
 SCF Done:  E(RB3LYP) =  -656.418583866     A.U. after    7 cycles
 Optimization completed.
    -- Stationary point found.
 Normal termination of Gaussian 16 at Thu Dec 10 16:51:48 2020.

 --------------------------------------------------------------------
 #N Geom=AllCheck Guess=TCheck SCRF=Check GenChk RB3LYP/6-31G(d) Freq
 --------------------------------------------------------------------

 Structure from the checkpoint file:  "JID_5506.chk"
 ------------------------------
 CID_10013435_JID_5506_neutraal
 ------------------------------
 Charge =  0 Multiplicity = 1

 SCF Done:  E(RB3LYP) =  -656.418583866     A.U. after    1 cycles

  Exact polarizability: 169.904   5.005 142.349  10.379  -1.345 124.407
 Approx polarizability: 217.257  12.542 226.675  16.520   1.717 187.379

                      1                      2                      3
                      A                      A                      A
 Frequencies --     33.6353                51.4122                92.8181
 Red. masses --      3.6081                 3.8066                 2.5847
 Frc consts  --      0.0024                 0.0059                 0.0131
 IR Inten    --      2.3749                 5.9089                 2.7237

                      4                      5                      6
                      A                      A                      A
 Frequencies --    101.3032               120.7931               149.0858
 Red. masses --      1.8635                 2.7737                 3.1246
 Frc consts  --      0.0113                 0.0238                 0.0409
 IR Inten    --      2.1535                 2.3587                15.1606

                      7                      8                      9
                      A                      A                      A
 Frequencies --    167.9546               171.3378               176.7984
 Red. masses --      2.8364                 2.9876                 1.9586
 Frc consts  --      0.0471                 0.0517                 0.0361
 IR Inten    --      4.6029                15.0251                 5.7181

                     10                     11                     12
                      A                      A                      A
 Frequencies --    214.1605               222.0325               239.3725
 Red. masses --      2.0807                 1.6570                 1.6993
 Frc consts  --      0.0562                 0.0481                 0.0574
 IR Inten    --      0.7032                 1.2908                 0.2496

                     13                     14                     15
                      A                      A                      A
 Frequencies --    253.7726               262.4133               287.4085
 Red. masses --      2.1745                 1.7330                 1.9482
 Frc consts  --      0.0825                 0.0703                 0.0948
 IR Inten    --      4.3855                 1.2829                 0.1128

                     16                     17                     18
                      A                      A                      A
 Frequencies --    316.7457               337.6832               354.8936
 Red. masses --      2.0840                 2.3814                 2.6009
 Frc consts  --      0.1232                 0.1600                 0.1930
 IR Inten    --      0.9942                 0.0895                 0.7809

                     19                     20                     21
                      A                      A                      A
 Frequencies --    361.2957               392.7732               417.8647
 Red. masses --      2.3732                 2.4671                 2.7121
 Frc consts  --      0.1825                 0.2242                 0.2790
 IR Inten    --      1.8576                 1.3912                14.4153

                     22                     23                     24
                      A                      A                      A
 Frequencies --    430.2506               449.7457               475.1415
 Red. masses --      2.2999                 2.3036                 2.4683
 Frc consts  --      0.2508                 0.2745                 0.3283
 IR Inten    --      8.0801                 8.8051                 0.2971

                     25                     26                     27
                      A                      A                      A
 Frequencies --    522.1906               565.9246               576.5749
 Red. masses --      2.5371                 2.8797                 2.8573
 Frc consts  --      0.4076                 0.5434                 0.5596
 IR Inten    --      1.1998                13.2850                 3.6349

                     28                     29                     30
                      A                      A                      A
 Frequencies --    659.7723               664.8920               766.3364
 Red. masses --      2.9107                 2.9831                 1.9104
 Frc consts  --      0.7465                 0.7770                 0.6610
 IR Inten    --      2.7292                15.1768                16.8636

                     31                     32                     33
                      A                      A                      A
 Frequencies --    786.6779               800.9001               809.1372
 Red. masses --      2.9695                 1.7429                 2.6658
 Frc consts  --      1.0828                 0.6587                 1.0283
 IR Inten    --     25.0137                25.7692                 2.0657

                     34                     35                     36
                      A                      A                      A
 Frequencies --    820.9010               836.4865               876.0986
 Red. masses --      1.3023                 1.5326                 1.7955
 Frc consts  --      0.5171                 0.6318                 0.8120
 IR Inten    --     10.9721                13.4454                 4.4249

                     37                     38                     39
                      A                      A                      A
 Frequencies --    886.0467               918.7734               933.0625
 Red. masses --      1.7758                 2.2684                 1.7570
 Frc consts  --      0.8214                 1.1282                 0.9012
 IR Inten    --      3.7024                 7.9117                 2.6208

                     40                     41                     42
                      A                      A                      A
 Frequencies --    940.5359               998.5272              1026.1789
 Red. masses --      1.3892                 1.9115                 2.1668
 Frc consts  --      0.7241                 1.1229                 1.3443
 IR Inten    --     25.2477                 7.6530                16.1251

                     43                     44                     45
                      A                      A                      A
 Frequencies --   1029.5061              1040.1882              1048.8073
 Red. masses --      1.4980                 1.3944                 2.1814
 Frc consts  --      0.9354                 0.8889                 1.4138
 IR Inten    --     51.0548                 1.7600                 9.3964

                     46                     47                     48
                      A                      A                      A
 Frequencies --   1063.5249              1074.0276              1102.5915
 Red. masses --      2.0540                 3.1916                 1.7738
 Frc consts  --      1.3688                 2.1691                 1.2705
 IR Inten    --      9.9918                16.0685                 1.9696

                     49                     50                     51
                      A                      A                      A
 Frequencies --   1107.6317              1131.5028              1143.4224
 Red. masses --      1.7755                 2.8331                 2.1888
 Frc consts  --      1.2834                 2.1371                 1.6861
 IR Inten    --      3.4780                39.5737                 3.0112

                     52                     53                     54
                      A                      A                      A
 Frequencies --   1154.6487              1191.8171              1208.7851
 Red. masses --      1.9017                 1.8160                 1.7205
 Frc consts  --      1.4938                 1.5198                 1.4812
 IR Inten    --      4.6488                 5.6725                 8.5615

                     55                     56                     57
                      A                      A                      A
 Frequencies --   1222.2287              1242.3280              1269.8380
 Red. masses --      1.8803                 1.3435                 1.2341
 Frc consts  --      1.6549                 1.2217                 1.1725
 IR Inten    --     12.8266                16.8696                 7.3673

                     58                     59                     60
                      A                      A                      A
 Frequencies --   1313.0009              1335.2110              1353.5257
 Red. masses --      1.3465                 1.1097                 1.2788
 Frc consts  --      1.3676                 1.1656                 1.3803
 IR Inten    --      3.7766                 3.9037                 4.9787

                     61                     62                     63
                      A                      A                      A
 Frequencies --   1365.2426              1382.2634              1392.7526
 Red. masses --      1.1012                 1.2522                 1.1638
 Frc consts  --      1.2094                 1.4097                 1.3301
 IR Inten    --      1.7236                29.3220                 3.5679

                     64                     65                     66
                      A                      A                      A
 Frequencies --   1409.2068              1417.2191              1417.9532
 Red. masses --      1.3372                 1.6772                 1.3951
 Frc consts  --      1.5645                 1.9848                 1.6527
 IR Inten    --     18.3477                90.9372                 9.1495

                     67                     68                     69
                      A                      A                      A
 Frequencies --   1427.4788              1439.2876              1451.9433
 Red. masses --      1.2524                 1.2117                 1.2374
 Frc consts  --      1.5035                 1.4789                 1.5369
 IR Inten    --      5.2037                 5.1867                 8.4227

                     70                     71                     72
                      A                      A                      A
 Frequencies --   1455.1234              1468.5892              1473.9310
 Red. masses --      1.2109                 1.6318                 1.2425
 Frc consts  --      1.5107                 2.0736                 1.5903
 IR Inten    --     16.6388                67.7129                 7.7652

                     73                     74                     75
                      A                      A                      A
 Frequencies --   1496.6516              1506.1907              1507.7637
 Red. masses --      1.1871                 1.0932                 1.1216
 Frc consts  --      1.5667                 1.4611                 1.5023
 IR Inten    --      7.9889                 6.5546                16.8103

                     76                     77                     78
                      A                      A                      A
 Frequencies --   1515.3698              1521.0483              1527.0155
 Red. masses --      1.0747                 1.0668                 1.0558
 Frc consts  --      1.4541                 1.4542                 1.4504
 IR Inten    --      3.2745                 6.1910                 3.0104

                     79                     80                     81
                      A                      A                      A
 Frequencies --   1531.3955              1534.7191              1537.5361
 Red. masses --      1.1002                 1.0703                 1.0627
 Frc consts  --      1.5202                 1.4853                 1.4802
 IR Inten    --     34.1597                 6.7879                 8.9509

                     82                     83                     84
                      A                      A                      A
 Frequencies --   1539.4607              1547.2467              1556.4181
 Red. masses --      1.0678                 1.0783                 1.0860
 Frc consts  --      1.4909                 1.5209                 1.5500
 IR Inten    --      9.7636                 6.9187                22.2122

                     85                     86                     87
                      A                      A                      A
 Frequencies --   1568.3077              1612.0057              1699.8831
 Red. masses --      1.0701                 5.5307                 4.3564
 Frc consts  --      1.5507                 8.4676                 7.4168
 IR Inten    --      8.1276               362.4888                 1.5870

                     88                     89                     90
                      A                      A                      A
 Frequencies --   2967.8204              3004.3270              3012.4030
 Red. masses --      1.0617                 1.0780                 1.0976
 Frc consts  --      5.5099                 5.7330                 5.8683
 IR Inten    --     84.8899               243.7993                71.9477

                     91                     92                     93
                      A                      A                      A
 Frequencies --   3035.2026              3058.2791              3071.3174
 Red. masses --      1.0734                 1.0409                 1.0482
 Frc consts  --      5.8265                 5.7359                 5.8258
 IR Inten    --     70.2987                23.5985                35.6651

                     94                     95                     96
                      A                      A                      A
 Frequencies --   3076.2412              3077.3748              3107.7199
 Red. masses --      1.0410                 1.0512                 1.0776
 Frc consts  --      5.8043                 5.8656                 6.1316
 IR Inten    --      1.1193                21.4163                15.6866

                     97                     98                     99
                      A                      A                      A
 Frequencies --   3113.2081              3123.0856              3124.2286
 Red. masses --      1.0876                 1.0875                 1.0774
 Frc consts  --      6.2104                 6.2497                 6.1961
 IR Inten    --      8.5434                24.4014                36.0838

                    100                    101                    102
                      A                      A                      A
 Frequencies --   3133.3279              3135.7321              3138.0932
 Red. masses --      1.0997                 1.0902                 1.1017
 Frc consts  --      6.3610                 6.3161                 6.3919
 IR Inten    --     11.4817                16.8998                 5.0768

                    103                    104                    105
                      A                      A                      A
 Frequencies --   3139.6148              3142.9403              3150.1309
 Red. masses --      1.0716                 1.0954                 1.1013
 Frc consts  --      6.2237                 6.3750                 6.4392
 IR Inten    --     19.4391                26.3021                 4.0103

                    106                    107                    108
                      A                      A                      A
 Frequencies --   3156.4488              3165.2010              3170.6827
 Red. masses --      1.0774                 1.1012                 1.1047
 Frc consts  --      6.3246                 6.5001                 6.5431
 IR Inten    --     22.7718                20.9653                16.7209

                    109                    110                    111
                      A                      A                      A
 Frequencies --   3189.8362              3195.1087              3229.7949
 Red. masses --      1.0987                 1.0977                 1.1155
 Frc consts  --      6.5866                 6.6024                 6.8560
 IR Inten    --      2.2265                 2.0315                24.2920

 - Thermochemistry -
 -------------------
 Temperature   298.150 Kelvin.  Pressure   1.00000 Atm.
 Atom     1 has atomic number  6 and mass  12.00000

 Molecular mass:   212.18886 amu.
 Principal axes and moments of inertia in atomic units:
                           1         2         3
     Eigenvalues --  2006.334714563.963604963.72150
           X            0.99985   0.01634   0.00574
           Y           -0.01612   0.99918  -0.03727
           Z           -0.00635   0.03717   0.99929
 This molecule is an asymmetric top.
 Rotational symmetry number  1.
 Warning -- assumption of classical behavior for rotation
           may cause significant error
 Rotational temperatures (Kelvin)      0.04317     0.01898     0.01745
 Rotational constants (GHZ):           0.89952     0.39543     0.36359
 Zero-point vibrational energy     936212.0 (Joules/Mol)
                                  223.76003 (Kcal/Mol)
 Warning -- explicit consideration of  27 degrees of freedom as
           vibrations may cause significant error
 Vibrational temperatures:     48.39    73.97   133.54   145.75   173.79
          (Kelvin)            214.50   241.65   246.52   254.37   308.13
                              319.46   344.40   365.12   377.55   413.52
                              455.73   485.85   510.61   519.82   565.11
                              601.21   619.03   647.08   683.62   751.32
                              814.24   829.56   949.27   956.63  1102.59
                             1131.85  1152.32  1164.17  1181.09  1203.52
                             1260.51  1274.82  1321.91  1342.47  1353.22
                             1436.66  1476.44  1481.23  1496.60  1509.00
                             1530.18  1545.29  1586.38  1593.63  1627.98
                             1645.13  1661.28  1714.76  1739.17  1758.51
                             1787.43  1827.01  1889.12  1921.07  1947.42
                             1964.28  1988.77  2003.86  2027.53  2039.06
                             2040.12  2053.82  2070.81  2089.02  2093.60
                             2112.97  2120.66  2153.35  2167.07  2169.34
                             2180.28  2188.45  2197.03  2203.34  2208.12
                             2212.17  2214.94  2226.14  2239.34  2256.45
                             2319.32  2445.75  4270.03  4322.56  4334.18
                             4366.98  4400.18  4418.94  4426.02  4427.66
                             4471.32  4479.21  4493.42  4495.07  4508.16
                             4511.62  4515.02  4517.21  4521.99  4532.34
                             4541.43  4554.02  4561.91  4589.46  4597.05
                             4646.95

 Zero-point correction=                           0.356584 (Hartree/Particle)
 Thermal correction to Energy=                    0.373715
 Thermal correction to Enthalpy=                  0.374659
 Thermal correction to Gibbs Free Energy=         0.312945
 Sum of electronic and zero-point Energies=           -656.062000
 Sum of electronic and thermal Energies=              -656.044869
 Sum of electronic and thermal Enthalpies=            -656.043925
 Sum of electronic and thermal Free Energies=         -656.105638

                     E (Thermal)             CV                S
                      KCal/Mol        Cal/Mol-Kelvin    Cal/Mol-Kelvin
 Total                  234.509             65.859            129.887
 Electronic               0.000              0.000              0.000
 Translational            0.889              2.981             41.960
 Rotational               0.889              2.981             32.186
 Vibrational            232.732             59.898             55.740
 Vibration     1          0.594              1.983              5.603
 Vibration     2          0.596              1.977              4.762
 Vibration     3          0.602              1.954              3.600
 Vibration     4          0.604              1.948              3.429
 Vibration     5          0.609              1.932              3.088
 Vibration     6          0.618              1.904              2.684
 Vibration     7          0.625              1.882              2.458
 Vibration     8          0.626              1.878              2.421
 Vibration     9          0.628              1.871              2.362
 Vibration    10          0.644              1.819              2.008
 Vibration    11          0.648              1.808              1.942
 Vibration    12          0.657              1.780              1.808
 Vibration    13          0.665              1.756              1.704
 Vibration    14          0.670              1.742              1.646
 Vibration    15          0.685              1.697              1.489
 Vibration    16          0.704              1.642              1.327
 Vibration    17          0.718              1.600              1.223
 Vibration    18          0.731              1.565              1.144
 Vibration    19          0.735              1.552              1.117
 Vibration    20          0.760              1.486              0.990
 Vibration    21          0.781              1.431              0.899
 Vibration    22          0.791              1.404              0.858
 Vibration    23          0.809              1.361              0.797
 Vibration    24          0.832              1.305              0.723
 Vibration    25          0.877              1.201              0.605
 Vibration    26          0.922              1.105              0.512
 Vibration    27          0.933              1.082              0.492

 Optimization completed.
    -- Stationary point found.
 Normal termination of Gaussian 16 at Thu Dec 10 17:06:39 2020.

 ----------------------------------------------------------------------
 # B3LYP/6-311++G(d,p) empiricaldispersion=gd3bj scf=xqc pop=npa geom=c
 heck
 ----------------------------------------------------------------------

 --------------------------------------
 CID_10013435_JID_5506_Energie_neutraal
 --------------------------------------
 Structure from the checkpoint file:  "JID_5506.chk"
 Charge =  0 Multiplicity = 1

 SCF Done:  E(RB3LYP) =  -656.609614469     A.U. after   17 cycles
 Normal termination of Gaussian 16 at Thu Dec 10 17:14:49 2020.

 ----------------------------------------------------------------------
 # B3LYP/6-311++G(d,p) empiricaldispersion=gd3bj scf=xqc pop=npa geom=c
 heck
 ----------------------------------------------------------------------

 ------------------------------------
 CID_10013435_JID_5506_Energie_kation
 ------------------------------------
 Structure from the checkpoint file:  "JID_5506.chk"
 Charge =  1 Multiplicity = 2

 SCF Done:  E(UB3LYP) =  -656.372932332     A.U. after   25 cycles
 Normal termination of Gaussian 16 at Thu Dec 10 17:37:02 2020.
 Gaussian 16:  ES64L-G16RevA.03 25-Dec-2016

 ----------------------------------------------------------------------
 # B3LYP/6-311++G(d,p) empiricaldispersion=gd3bj scf=xqc pop=npa geom=c
 heck
 ----------------------------------------------------------------------

 -----------------------------------
 CID_10013435_JID_5506_Energie_anion
 -----------------------------------
 Structure from the checkpoint file:  "JID_5506.chk"
 Charge = -1 Multiplicity = 2

                         Standard orientation:
 ---------------------------------------------------------------------
 Center     Atomic      Atomic             Coordinates (Angstroms)
 Number     Number       Type             X           Y           Z
 ---------------------------------------------------------------------
      1          6           0       -3.388980    0.710798    1.456744
      2          6           0       -2.656104    0.742222    0.119889
      3          7           0       -1.340274   -0.002426    0.046995
      4          6           0       -1.437190   -1.432987    0.586506
      5          6           0       -2.549735   -2.304004    0.018017
      6          6           0       -0.951531   -0.159924   -1.443597
      7          6           0       -0.819403    1.091380   -2.295861
      8          6           0       -0.321788    0.674761    0.987334
      9          6           0        0.370437    1.971271    0.557449
     10          6           0        1.843422    1.657849    0.139722
     11          7           0        1.809237    0.544962   -0.761988
     12          6           0        2.126910   -0.676270   -0.356232
     13          6           0        3.136636   -0.952236    0.737098
     14          6           0        4.300403   -0.314480    0.888553
     15          8           0        1.621394   -1.729411   -0.861132
     16          1           0       -3.627586   -0.303482    1.785664
     17          1           0       -4.335541    1.245421    1.326730
     18          1           0       -2.840971    1.215681    2.255695
     19          1           0       -3.288390    0.324227   -0.665881
     20          1           0       -2.428268    1.772213   -0.156974
     21          1           0       -0.455702   -1.864828    0.364044
     22          1           0       -1.546650   -1.340243    1.669113
     23          1           0       -2.390842   -2.555976   -1.032014
     24          1           0       -2.542335   -3.244447    0.578696
     25          1           0       -3.545780   -1.865169    0.129738
     26          1           0       -0.011140   -0.728725   -1.451410
     27          1           0       -1.764632   -0.776095   -1.832617
     28          1           0        0.161415    1.536298   -2.135374
     29          1           0       -0.863050    0.755104   -3.338285
     30          1           0       -1.620947    1.826071   -2.164865
     31          1           0       -0.883674    0.814025    1.911599
     32          1           0        0.433024   -0.084696    1.170571
     33          1           0       -0.162839    2.460429   -0.259654
     34          1           0        0.343482    2.670748    1.404841
     35          1           0        2.260332    2.559301   -0.335001
     36          1           0        2.419349    1.495612    1.067192
     37          1           0        2.915090   -1.827369    1.348550
     38          1           0        5.037552   -0.623972    1.626461
     39          1           0        4.565743    0.527130    0.253461
 ---------------------------------------------------------------------

 SCF Done:  E(UB3LYP) =  -656.610281423     A.U. after   30 cycles

 The electronic state is 2-A.
 Alpha  occ. eigenvalues --  -18.93750 -14.33870 -14.13325 -10.13309 -10.13170
 Alpha  occ. eigenvalues --  -10.12686 -10.11926 -10.11169 -10.08633 -10.08268
 Alpha  occ. eigenvalues --  -10.07941 -10.07865 -10.07059 -10.06913 -10.06913
 Alpha  occ. eigenvalues --   -0.90790  -0.87038  -0.75771  -0.69749  -0.69020
 Alpha  occ. eigenvalues --   -0.68739  -0.66483  -0.64561  -0.59240  -0.57002
 Alpha  occ. eigenvalues --   -0.54702  -0.51205  -0.49582  -0.48302  -0.44249
 Alpha  occ. eigenvalues --   -0.42428  -0.40664  -0.39522  -0.38735  -0.36565
 Alpha  occ. eigenvalues --   -0.35662  -0.35266  -0.34434  -0.34334  -0.32599
 Alpha  occ. eigenvalues --   -0.32311  -0.31466  -0.30615  -0.30109  -0.28815
 Alpha  occ. eigenvalues --   -0.28481  -0.27938  -0.27582  -0.27232  -0.27200
 Alpha  occ. eigenvalues --   -0.26437  -0.25556  -0.25165  -0.24715  -0.22605
 Alpha  occ. eigenvalues --   -0.16666  -0.12396  -0.10653  -0.08656   0.03411
 Alpha virt. eigenvalues --    0.06498   0.06616   0.07410   0.07609   0.08243
 Alpha virt. eigenvalues --    0.08944   0.09062   0.09430   0.10114   0.10884
 Alpha virt. eigenvalues --    0.11179   0.11789   0.12101   0.12322   0.12768

  Beta  occ. eigenvalues --  -18.93749 -14.33868 -14.13322 -10.13276 -10.13157
  Beta  occ. eigenvalues --  -10.12670 -10.11925 -10.11162 -10.08587 -10.08267
  Beta  occ. eigenvalues --  -10.07857 -10.07854 -10.07058 -10.06912 -10.06906
  Beta  occ. eigenvalues --   -0.90770  -0.87035  -0.75765  -0.69698  -0.68976
  Beta  occ. eigenvalues --   -0.68714  -0.66474  -0.64527  -0.59182  -0.56919
  Beta  occ. eigenvalues --   -0.54646  -0.51165  -0.49556  -0.48253  -0.44221
  Beta  occ. eigenvalues --   -0.42396  -0.40654  -0.39484  -0.38692  -0.36558
  Beta  occ. eigenvalues --   -0.35617  -0.35253  -0.34407  -0.34306  -0.32567
  Beta  occ. eigenvalues --   -0.32273  -0.31427  -0.30531  -0.30063  -0.28789
  Beta  occ. eigenvalues --   -0.28451  -0.27894  -0.27521  -0.27204  -0.27184
  Beta  occ. eigenvalues --   -0.26413  -0.25541  -0.25149  -0.24695  -0.22597
  Beta  occ. eigenvalues --   -0.16664  -0.12392  -0.10648  -0.08644
  Beta virt. eigenvalues --    0.06233   0.07133   0.07288   0.07610   0.07819
  Beta virt. eigenvalues --    0.08801   0.09158   0.09507   0.09840   0.10682
  Beta virt. eigenvalues --    0.11270   0.11404   0.12048   0.12359   0.12747

 Mulliken charges and spin densities:
               1          2
     1  C    2.793744  -3.371649
     2  C   -1.318683   1.196918
     3  N   -0.021783  -0.031087
     4  C   -0.620117   0.497517
     5  C    0.946819  -1.547226
     6  C   -0.227485   0.196194
     7  C   -0.157569  -0.499314
     8  C    0.338227  -0.337966
     9  C   -0.232743  -0.262402
    10  C   -0.117613  -0.145094
    11  N   -0.164157  -0.001467
    12  C   -0.614287  -0.031462
    13  C    0.401284  -0.017430
    14  C   -0.519834   0.005818
    15  O   -0.347764   0.000738
    16  H   -0.306981   0.477168
    17  H   -0.964229   1.148650
    18  H   -0.609339   0.765125
    19  H   -0.371732   0.609876
    20  H    0.028850   0.115333
    21  H    0.465273  -0.210144
    22  H   -0.296880   0.502903
    23  H   -0.120306   0.282604
    24  H   -0.160706   0.331535
    25  H   -0.249928   0.429373
    26  H    0.292825   0.042932
    27  H    0.088674   0.066466
    28  H    0.173448   0.032300
    29  H    0.146585  -0.005707
    30  H   -0.124144   0.268917
    31  H    0.187104   0.056048
    32  H    0.082882   0.037032
    33  H    0.179683  -0.018909
    34  H   -0.234584   0.386210
    35  H    0.153970  -0.007338
    36  H    0.106027  -0.017223
    37  H    0.145668   0.047305
    38  H    0.116796   0.000099
    39  H    0.133003   0.007359
 Sum of Mulliken charges =  -1.00000   1.00000

 Dipole moment (field-independent basis, Debye):
    X=              6.1420    Y=              0.7156    Z=             -1.3114  Tot=              6.3211
 Quadrupole moment (field-independent basis, Debye-Ang):
   XX=           -186.5033   YY=           -138.2683   ZZ=           -134.9386
   XY=             10.9895   XZ=             19.5173   YZ=             -7.2157

 Summary of Natural Population Analysis:

                                       Natural Population
                Natural  -----------------------------------------------
    Atom  No    Charge         Core      Valence    Rydberg      Total
 -----------------------------------------------------------------------
      C    1   -0.29870      0.99964     2.29276    0.00630     3.29870
      C    2   -0.08463      0.99958     2.07132    0.01373     3.08463
      N    3   -0.18987      0.99975     2.67468    0.01544     3.68987
      C    4   -0.08807      0.99959     2.07728    0.01120     3.08807
      C    5   -0.29820      0.99964     2.29310    0.00545     3.29820
      C    6   -0.09533      0.99956     2.08428    0.01148     3.09533
      C    7   -0.30279      0.99964     2.29787    0.00528     3.30279
      C    8   -0.07754      0.99955     2.06509    0.01289     3.07754
      C    9   -0.20757      0.99961     2.19869    0.00926     3.20757
      C   10   -0.09400      0.99962     2.08164    0.01274     3.09400
      N   11   -0.35971      0.99966     2.84895    0.01110     3.85971
      C   12    0.27815      0.99957     1.69901    0.02326     2.72185
      C   13   -0.11957      0.99953     2.10837    0.01167     3.11957
      C   14   -0.19528      0.99959     2.18909    0.00660     3.19528
      O   15   -0.38048      0.99989     3.37441    0.00618     4.38048
      H   16    0.10595      0.00000     0.39100    0.00305     0.39405
      H   17    0.11822      0.00000     0.37768    0.00410     0.38178
      H   18    0.10430      0.00000     0.39312    0.00258     0.39570
      H   19    0.10800      0.00000     0.38995    0.00205     0.39200
      H   20    0.10830      0.00000     0.39007    0.00163     0.39170
      H   21    0.12596      0.00000     0.37252    0.00151     0.37404
      H   22    0.10374      0.00000     0.39493    0.00133     0.39626
      H   23    0.10337      0.00000     0.39575    0.00087     0.39663
      H   24    0.11135      0.00000     0.38789    0.00076     0.38865
      H   25    0.10737      0.00000     0.39101    0.00162     0.39263
      H   26    0.14513      0.00000     0.35201    0.00286     0.35487
      H   27    0.09330      0.00000     0.40543    0.00128     0.40670
      H   28    0.12012      0.00000     0.37860    0.00128     0.37988
      H   29    0.10464      0.00000     0.39470    0.00066     0.39536
      H   30    0.09597      0.00000     0.40317    0.00086     0.40403
      H   31    0.10483      0.00000     0.39369    0.00148     0.39517
      H   32    0.11096      0.00000     0.38707    0.00197     0.38904
      H   33    0.10290      0.00000     0.39565    0.00145     0.39710
      H   34    0.09991      0.00000     0.39871    0.00137     0.40009
      H   35    0.08456      0.00000     0.41431    0.00112     0.41544
      H   36    0.08107      0.00000     0.41720    0.00173     0.41893
      H   37    0.09474      0.00000     0.40385    0.00141     0.40526
      H   38    0.08670      0.00000     0.41197    0.00133     0.41330
      H   39    0.09218      0.00000     0.40661    0.00121     0.40782
 =======================================================================
   * Total *   -0.00000     14.99443    43.80344    0.20212    59.00000

 Normal termination of Gaussian 16 at Thu Dec 10 17:56:03 2020.
