 Gaussian 16, Revision A.03,

 -----------------------------------------------------------
 # opt freq B3LYP/6-31G(d) empiricaldispersion=gd3bj scf=xqc
 -----------------------------------------------------------

 ------------------------------
 CID_60928872_JID_2454_neutraal
 ------------------------------
 Symbolic Z-matrix:
 Charge =  0 Multiplicity = 1

 SCF Done:  E(RB3LYP) =  -862.941445305     A.U. after   13 cycles
 SCF Done:  E(RB3LYP) =  -862.943915149     A.U. after   12 cycles
 SCF Done:  E(RB3LYP) =  -862.943835542     A.U. after   11 cycles
 SCF Done:  E(RB3LYP) =  -862.944495033     A.U. after   12 cycles
 SCF Done:  E(RB3LYP) =  -862.944618035     A.U. after   11 cycles
 SCF Done:  E(RB3LYP) =  -862.944682951     A.U. after   10 cycles
 SCF Done:  E(RB3LYP) =  -862.944722160     A.U. after   10 cycles
 SCF Done:  E(RB3LYP) =  -862.944758610     A.U. after   11 cycles
 SCF Done:  E(RB3LYP) =  -862.944792051     A.U. after   10 cycles
 SCF Done:  E(RB3LYP) =  -862.945634949     A.U. after   14 cycles
 SCF Done:  E(RB3LYP) =  -862.949281406     A.U. after    9 cycles
 SCF Done:  E(RB3LYP) =  -862.949283294     A.U. after    8 cycles
 SCF Done:  E(RB3LYP) =  -862.949285934     A.U. after    8 cycles
 SCF Done:  E(RB3LYP) =  -862.949287390     A.U. after    7 cycles
 SCF Done:  E(RB3LYP) =  -862.949287643     A.U. after    7 cycles
 Optimization completed.
    -- Stationary point found.
 Normal termination of Gaussian 16 at Wed Dec  9 17:31:22 2020.

 --------------------------------------------------------------------
 #N Geom=AllCheck Guess=TCheck SCRF=Check GenChk RB3LYP/6-31G(d) Freq
 --------------------------------------------------------------------

 Structure from the checkpoint file:  "JID_2454.chk"
 ------------------------------
 CID_60928872_JID_2454_neutraal
 ------------------------------
 Charge =  0 Multiplicity = 1

 SCF Done:  E(RB3LYP) =  -862.949287643     A.U. after    1 cycles

  Exact polarizability: 132.964  -0.710 140.194 -18.715  -0.804  86.596
 Approx polarizability: 191.380  -1.941 218.643 -41.287  -0.200 139.563

                      1                      2                      3
                      A                      A                      A
 Frequencies --     41.2454                57.1160                93.2660
 Red. masses --      4.6344                 4.0331                 3.5038
 Frc consts  --      0.0046                 0.0078                 0.0180
 IR Inten    --      0.8248                 3.3899                 0.0708

                      4                      5                      6
                      A                      A                      A
 Frequencies --    111.7921               179.7519               208.1060
 Red. masses --      4.2123                 3.6581                 3.2468
 Frc consts  --      0.0310                 0.0696                 0.0828
 IR Inten    --      2.1559                 1.6441                 1.1804

                      7                      8                      9
                      A                      A                      A
 Frequencies --    250.4283               262.4841               285.8869
 Red. masses --      1.5217                 1.1137                 2.1032
 Frc consts  --      0.0562                 0.0452                 0.1013
 IR Inten    --      4.3869                18.9958                 2.3494

                     10                     11                     12
                      A                      A                      A
 Frequencies --    290.3408               309.9110               345.7187
 Red. masses --      1.1391                 2.9426                 2.8589
 Frc consts  --      0.0566                 0.1665                 0.2013
 IR Inten    --      0.0561                 0.8818                 4.7351

                     13                     14                     15
                      A                      A                      A
 Frequencies --    385.6000               440.2061               478.8775
 Red. masses --      2.2417                 3.0566                 3.7061
 Frc consts  --      0.1964                 0.3490                 0.5007
 IR Inten    --      0.1656                 0.7225                 3.9033

                     16                     17                     18
                      A                      A                      A
 Frequencies --    501.1164               540.1158               592.1789
 Red. masses --      3.9785                 3.5544                 4.8665
 Frc consts  --      0.5886                 0.6109                 1.0055
 IR Inten    --      3.1186                 1.1656                 3.0133

                     19                     20                     21
                      A                      A                      A
 Frequencies --    607.8364               633.1837               742.6398
 Red. masses --      4.4973                 3.6502                 3.5541
 Frc consts  --      0.9790                 0.8622                 1.1549
 IR Inten    --      7.5817                 1.6433                 1.8125

                     22                     23                     24
                      A                      A                      A
 Frequencies --    767.8433               783.7388               830.9586
 Red. masses --      1.3889                 3.4757                 3.7646
 Frc consts  --      0.4825                 1.2579                 1.5315
 IR Inten    --     52.4580                 4.4022                 4.3625

                     25                     26                     27
                      A                      A                      A
 Frequencies --    862.7529               875.5802               899.7438
 Red. masses --      1.4850                 1.4563                 1.9203
 Frc consts  --      0.6512                 0.6578                 0.9159
 IR Inten    --      0.7454                 0.9217                 3.5953

                     28                     29                     30
                      A                      A                      A
 Frequencies --    929.1989               945.8207               973.2979
 Red. masses --      1.5776                 1.4025                 1.2404
 Frc consts  --      0.8025                 0.7392                 0.6923
 IR Inten    --      2.3501                 2.3381                 0.2709

                     31                     32                     33
                      A                      A                      A
 Frequencies --   1036.8972              1074.0427              1087.6601
 Red. masses --      1.8832                 3.1459                 2.9878
 Frc consts  --      1.1930                 2.1381                 2.0825
 IR Inten    --      9.6683                13.9060                24.0779

                     34                     35                     36
                      A                      A                      A
 Frequencies --   1104.0126              1131.0559              1156.9086
 Red. masses --      1.5645                 1.8533                 1.9512
 Frc consts  --      1.1235                 1.3969                 1.5387
 IR Inten    --      4.5919                17.6702                35.2344

                     37                     38                     39
                      A                      A                      A
 Frequencies --   1186.3721              1199.0694              1210.6148
 Red. masses --      1.2711                 1.0961                 1.8012
 Frc consts  --      1.0540                 0.9285                 1.5553
 IR Inten    --      0.8135                 3.1415                 6.6520

                     40                     41                     42
                      A                      A                      A
 Frequencies --   1228.5718              1247.5584              1294.0108
 Red. masses --      1.6598                 1.2301                 1.4764
 Frc consts  --      1.4761                 1.1280                 1.4566
 IR Inten    --      0.8403                 1.4170                20.7656

                     43                     44                     45
                      A                      A                      A
 Frequencies --   1302.9141              1334.4511              1340.2543
 Red. masses --      3.5268                 1.5187                 1.4722
 Frc consts  --      3.5274                 1.5934                 1.5581
 IR Inten    --    164.7385                 5.5895                24.5770

                     46                     47                     48
                      A                      A                      A
 Frequencies --   1374.1011              1397.0393              1440.6718
 Red. masses --      2.4363                 1.5353                 1.2510
 Frc consts  --      2.7103                 1.7654                 1.5299
 IR Inten    --     17.1397                10.9149                 4.7718

                     49                     50                     51
                      A                      A                      A
 Frequencies --   1492.3885              1506.2820              1512.7896
 Red. masses --      1.4644                 1.1853                 1.5545
 Frc consts  --      1.9217                 1.5845                 2.0960
 IR Inten    --     28.8894                 1.6349                 2.0240

                     52                     53                     54
                      A                      A                      A
 Frequencies --   1520.9843              1522.1514              1532.1707
 Red. masses --      1.0485                 1.0503                 1.0499
 Frc consts  --      1.4291                 1.4337                 1.4522
 IR Inten    --      5.7428                 9.1343                 9.2773

                     55                     56                     57
                      A                      A                      A
 Frequencies --   1532.4870              1552.4651              1646.2296
 Red. masses --      1.1233                 2.1256                 6.1941
 Frc consts  --      1.5543                 3.0183                 9.8903
 IR Inten    --     51.8359                41.5208                 7.0418

                     58                     59                     60
                      A                      A                      A
 Frequencies --   1662.6748              2670.2414              3025.8407
 Red. masses --      5.7683                 1.0380                 1.0351
 Frc consts  --      9.3953                 4.3608                 5.5837
 IR Inten    --     30.5784                10.3137                57.4924

                     61                     62                     63
                      A                      A                      A
 Frequencies --   3037.1306              3043.4140              3069.1689
 Red. masses --      1.0633                 1.0505                 1.0849
 Frc consts  --      5.7787                 5.7326                 6.0210
 IR Inten    --     11.5446                42.5670                22.4299

                     64                     65                     66
                      A                      A                      A
 Frequencies --   3084.9450              3116.8268              3138.5935
 Red. masses --      1.1065                 1.0929                 1.0925
 Frc consts  --      6.2043                 6.2554                 6.3407
 IR Inten    --     41.2457                24.5878                 6.2615

                     67                     68                     69
                      A                      A                      A
 Frequencies --   3144.4910              3163.2091              3185.1096
 Red. masses --      1.1029                 1.0995                 1.0856
 Frc consts  --      6.4249                 6.4817                 6.4888
 IR Inten    --     25.9600                20.5128                 1.5023

                     70                     71                     72
                      A                      A                      A
 Frequencies --   3193.1079              3211.0841              3229.5154
 Red. masses --      1.0899                 1.0954                 1.0919
 Frc consts  --      6.5474                 6.6550                 6.7099
 IR Inten    --     17.9103                27.6354                10.7707

 - Thermochemistry -
 -------------------
 Temperature   298.150 Kelvin.  Pressure   1.00000 Atm.
 Atom     1 has atomic number  6 and mass  12.00000

 Molecular mass:   182.07654 amu.
 Principal axes and moments of inertia in atomic units:
                           1         2         3
     Eigenvalues --  1743.451742598.042903702.62811
           X            0.99585   0.08912  -0.01820
           Y           -0.08903   0.99601   0.00565
           Z            0.01863  -0.00400   0.99982
 This molecule is an asymmetric top.
 Rotational symmetry number  1.
 Warning -- assumption of classical behavior for rotation
           may cause significant error
 Rotational temperatures (Kelvin)      0.04968     0.03334     0.02339
 Rotational constants (GHZ):           1.03515     0.69465     0.48742
 Zero-point vibrational energy     575201.9 (Joules/Mol)
                                  137.47655 (Kcal/Mol)
 Warning -- explicit consideration of  19 degrees of freedom as
           vibrations may cause significant error
 Vibrational temperatures:     59.34    82.18   134.19   160.84   258.62
          (Kelvin)            299.42   360.31   377.66   411.33   417.74
                              445.89   497.41   554.79   633.36   689.00
                              720.99   777.11   852.01   874.54   911.01
                             1068.49  1104.76  1127.63  1195.56  1241.31
                             1259.76  1294.53  1336.91  1360.83  1400.36
                             1491.86  1545.31  1564.90  1588.43  1627.34
                             1664.53  1706.92  1725.19  1741.80  1767.64
                             1794.96  1861.79  1874.60  1919.98  1928.33
                             1977.02  2010.03  2072.81  2147.21  2167.20
                             2176.57  2188.36  2190.04  2204.45  2204.91
                             2233.65  2368.56  2392.22  3841.88  4353.51
                             4369.75  4378.79  4415.85  4438.55  4484.42
                             4515.74  4524.22  4551.15  4582.66  4594.17
                             4620.03  4646.55

 Zero-point correction=                           0.219083 (Hartree/Particle)
 Thermal correction to Energy=                    0.231492
 Thermal correction to Enthalpy=                  0.232436
 Thermal correction to Gibbs Free Energy=         0.180094
 Sum of electronic and zero-point Energies=           -862.730205
 Sum of electronic and thermal Energies=              -862.717796
 Sum of electronic and thermal Enthalpies=            -862.716851
 Sum of electronic and thermal Free Energies=         -862.769194

                     E (Thermal)             CV                S
                      KCal/Mol        Cal/Mol-Kelvin    Cal/Mol-Kelvin
 Total                  145.263             47.083            110.164
 Electronic               0.000              0.000              0.000
 Translational            0.889              2.981             41.504
 Rotational               0.889              2.981             31.195
 Vibrational            143.486             41.122             37.465
 Vibration     1          0.594              1.981              5.198
 Vibration     2          0.596              1.975              4.554
 Vibration     3          0.602              1.954              3.590
 Vibration     4          0.607              1.940              3.238
 Vibration     5          0.629              1.867              2.331
 Vibration     6          0.641              1.828              2.060
 Vibration     7          0.663              1.762              1.728
 Vibration     8          0.670              1.742              1.645
 Vibration     9          0.684              1.700              1.498
 Vibration    10          0.686              1.692              1.472
 Vibration    11          0.699              1.655              1.363
 Vibration    12          0.724              1.584              1.186
 Vibration    13          0.754              1.501              1.017
 Vibration    14          0.800              1.382              0.826
 Vibration    15          0.835              1.297              0.713
 Vibration    16          0.856              1.248              0.655
 Vibration    17          0.895              1.161              0.565
 Vibration    18          0.950              1.048              0.463
 Vibration    19          0.967              1.015              0.436

 Optimization completed.
    -- Stationary point found.
 Normal termination of Gaussian 16 at Wed Dec  9 17:38:16 2020.

 ----------------------------------------------------------------------
 # B3LYP/6-311++G(d,p) empiricaldispersion=gd3bj scf=xqc pop=npa geom=c
 heck
 ----------------------------------------------------------------------

 --------------------------------------
 CID_60928872_JID_2454_Energie_neutraal
 --------------------------------------
 Structure from the checkpoint file:  "JID_2454.chk"
 Charge =  0 Multiplicity = 1

 SCF Done:  E(RB3LYP) =  -863.105538189     A.U. after   15 cycles
 Normal termination of Gaussian 16 at Wed Dec  9 17:40:46 2020.

 ----------------------------------------------------------------------
 # B3LYP/6-311++G(d,p) empiricaldispersion=gd3bj scf=xqc pop=npa geom=c
 heck
 ----------------------------------------------------------------------

 ------------------------------------
 CID_60928872_JID_2454_Energie_kation
 ------------------------------------
 Structure from the checkpoint file:  "JID_2454.chk"
 Charge =  1 Multiplicity = 2

 SCF Done:  E(UB3LYP) =  -862.818320850     A.U. after   23 cycles
 Normal termination of Gaussian 16 at Wed Dec  9 17:46:33 2020.
 Gaussian 16:  ES64L-G16RevA.03 25-Dec-2016

 ----------------------------------------------------------------------
 # B3LYP/6-311++G(d,p) empiricaldispersion=gd3bj scf=xqc pop=npa geom=c
 heck
 ----------------------------------------------------------------------

 -----------------------------------
 CID_60928872_JID_2454_Energie_anion
 -----------------------------------
 Structure from the checkpoint file:  "JID_2454.chk"
 Charge = -1 Multiplicity = 2

                         Standard orientation:
 ---------------------------------------------------------------------
 Center     Atomic      Atomic             Coordinates (Angstroms)
 Number     Number       Type             X           Y           Z
 ---------------------------------------------------------------------
      1          6           0       -2.659872   -1.487878   -0.214228
      2          6           0       -2.267108   -0.142831    0.397981
      3          6           0       -1.029360   -0.220424    1.326107
      4          6           0        0.261501   -0.602768    0.639885
      5          6           0        0.563962   -1.935955    0.354238
      6          6           0        1.731889   -2.301628   -0.317971
      7          6           0        2.628131   -1.311672   -0.709269
      8          6           0        2.369539    0.029086   -0.418271
      9          6           0        1.198472    0.383259    0.261042
     10          8           0        0.889028    1.665192    0.611655
     11          6           0        1.729381    2.711897    0.160841
     12         16           0       -2.122047    1.163793   -0.904845
     13          1           0       -1.883161   -1.854112   -0.892319
     14          1           0       -3.589350   -1.395586   -0.782178
     15          1           0       -2.805147   -2.240032    0.572731
     16          1           0       -3.100264    0.223894    1.008659
     17          1           0       -0.908930    0.742215    1.826259
     18          1           0       -1.257717   -0.968550    2.097457
     19          1           0       -0.135348   -2.704987    0.670851
     20          1           0        1.936370   -3.346805   -0.528829
     21          1           0        3.541240   -1.574252   -1.236122
     22          1           0        3.084589    0.787295   -0.714370
     23          1           0        1.263137    3.636494    0.504139
     24          1           0        2.738714    2.632347    0.585942
     25          1           0        1.799536    2.724918   -0.934566
     26          1           0       -1.002326    0.668424   -1.475499
 ---------------------------------------------------------------------

 SCF Done:  E(UB3LYP) =  -863.091064550     A.U. after   33 cycles
 SCF Done:  E(UB3LYP) =  -863.091064549     a.u. after    1 cycles

 The electronic state is 2-A.
 Alpha  occ. eigenvalues --  -88.73352 -19.05095 -10.13267 -10.12018 -10.11093
 Alpha  occ. eigenvalues --  -10.07687 -10.07364 -10.07255 -10.07082 -10.06935
 Alpha  occ. eigenvalues --  -10.06699 -10.06484  -7.82067  -5.78434  -5.78102
 Alpha  occ. eigenvalues --   -5.77440  -0.96909  -0.75792  -0.71880  -0.66430
 Alpha  occ. eigenvalues --   -0.64916  -0.60546  -0.59935  -0.58220  -0.50791
 Alpha  occ. eigenvalues --   -0.49384  -0.46638  -0.42789  -0.39166  -0.37825
 Alpha  occ. eigenvalues --   -0.37273  -0.36041  -0.34941  -0.33495  -0.32654
 Alpha  occ. eigenvalues --   -0.31108  -0.30264  -0.29048  -0.27577  -0.27273
 Alpha  occ. eigenvalues --   -0.26313  -0.24785  -0.24184  -0.22602  -0.21869
 Alpha  occ. eigenvalues --   -0.21595  -0.15185  -0.13567  -0.12152   0.04452
 Alpha virt. eigenvalues --    0.06189   0.07011   0.07992   0.08369   0.08979
 Alpha virt. eigenvalues --    0.09239   0.09707   0.10041   0.10432   0.10667
 Alpha virt. eigenvalues --    0.11674   0.12093   0.12365   0.12650   0.13712

  Beta  occ. eigenvalues --  -88.73346 -19.05086 -10.13269 -10.11973 -10.11080
  Beta  occ. eigenvalues --  -10.07669 -10.07354 -10.07218 -10.07048 -10.06906
  Beta  occ. eigenvalues --  -10.06697 -10.06462  -7.82059  -5.78427  -5.78096
  Beta  occ. eigenvalues --   -5.77435  -0.96889  -0.75744  -0.71841  -0.66379
  Beta  occ. eigenvalues --   -0.64860  -0.60496  -0.59887  -0.58163  -0.50714
  Beta  occ. eigenvalues --   -0.49332  -0.46595  -0.42734  -0.39123  -0.37767
  Beta  occ. eigenvalues --   -0.37236  -0.35992  -0.34895  -0.33457  -0.32612
  Beta  occ. eigenvalues --   -0.31064  -0.30216  -0.29010  -0.27528  -0.27235
  Beta  occ. eigenvalues --   -0.26264  -0.24744  -0.24153  -0.22551  -0.21820
  Beta  occ. eigenvalues --   -0.21564  -0.15036  -0.13538  -0.12094
  Beta virt. eigenvalues --    0.06697   0.07286   0.07701   0.08309   0.08974
  Beta virt. eigenvalues --    0.09508   0.09707   0.09918   0.10275   0.10848
  Beta virt. eigenvalues --    0.11094   0.11933   0.12397   0.12753   0.12956

 Mulliken charges and spin densities:
               1          2
     1  C    0.176884  -0.958195
     2  C    0.157328  -0.070663
     3  C    0.927429  -1.290720
     4  C   -0.252233   1.066754
     5  C    0.235005  -0.017130
     6  C    0.323904  -0.759218
     7  C    1.519063  -1.675441
     8  C    0.094282  -0.093307
     9  C   -2.106923   1.062386
    10  O   -0.161927   0.051184
    11  C    0.913149  -1.220362
    12  S   -0.127742  -0.034376
    13  H    0.092397   0.077222
    14  H   -0.026104   0.139363
    15  H   -0.247537   0.397519
    16  H   -0.193982   0.456656
    17  H    0.129492   0.074680
    18  H   -0.325388   0.516950
    19  H   -0.112289   0.278945
    20  H   -0.329039   0.488653
    21  H   -0.448028   0.608665
    22  H   -0.403436   0.581325
    23  H   -0.329939   0.485501
    24  H   -0.374048   0.531783
    25  H   -0.189604   0.342930
    26  H    0.059288  -0.041102
 Sum of Mulliken charges =  -1.00000   1.00000

 Dipole moment (field-independent basis, Debye):
    X=             -2.4097    Y=             -0.3511    Z=             -0.6045  Tot=              2.5091
 Quadrupole moment (field-independent basis, Debye-Ang):
   XX=           -144.5136   YY=           -132.2702   ZZ=           -112.2762
   XY=             -5.9050   XZ=              5.6636   YZ=              2.2519

 Summary of Natural Population Analysis:

                                       Natural Population
                Natural  -----------------------------------------------
    Atom  No    Charge         Core      Valence    Rydberg      Total
 -----------------------------------------------------------------------
      C    1   -0.29268      0.99963     2.28552    0.00752     3.29268
      C    2   -0.15426      0.99957     2.14191    0.01278     3.15426
      C    3   -0.20311      0.99956     2.19154    0.01201     3.20311
      C    4   -0.04026      0.99947     2.02851    0.01228     3.04026
      C    5   -0.10359      0.99954     2.08863    0.01542     3.10359
      C    6   -0.08458      0.99956     2.07798    0.00705     3.08458
      C    7   -0.10254      0.99959     2.08714    0.01581     3.10254
      C    8   -0.14067      0.99952     2.13183    0.00932     3.14067
      C    9    0.16323      0.99933     1.82335    0.01409     2.83677
      O   10   -0.27431      0.99985     3.26400    0.01045     4.27431
      C   11   -0.09923      0.99960     2.09042    0.00920     3.09923
      S   12   -0.02738      4.99964     3.01362    0.01413     8.02738
      H   13    0.10246      0.00000     0.39620    0.00135     0.39754
      H   14    0.10242      0.00000     0.39654    0.00103     0.39758
      H   15    0.10038      0.00000     0.39803    0.00159     0.39962
      H   16    0.10216      0.00000     0.39633    0.00151     0.39784
      H   17    0.11452      0.00000     0.38357    0.00191     0.38548
      H   18    0.10542      0.00000     0.39290    0.00168     0.39458
      H   19    0.10109      0.00000     0.39728    0.00163     0.39891
      H   20    0.09644      0.00000     0.40223    0.00133     0.40356
      H   21    0.10041      0.00000     0.39824    0.00134     0.39959
      H   22    0.10751      0.00000     0.39059    0.00191     0.39249
      H   23    0.09445      0.00000     0.40442    0.00113     0.40555
      H   24    0.08616      0.00000     0.41174    0.00210     0.41384
      H   25    0.08448      0.00000     0.41383    0.00169     0.41552
      H   26    0.06190      0.00000     0.43531    0.00279     0.43810
 =======================================================================
   * Total *    0.00042     15.99484    32.84168    0.16305    48.99958

 Normal termination of Gaussian 16 at Wed Dec  9 17:54:48 2020.
