 Gaussian 16, Revision A.03,

 -----------------------------------------------------------
 # opt freq B3LYP/6-31G(d) empiricaldispersion=gd3bj scf=xqc
 -----------------------------------------------------------

 ------------------------------
 CID_139619771_JID_201_neutraal
 ------------------------------
 Symbolic Z-matrix:
 Charge =  0 Multiplicity = 1

 SCF Done:  E(RB3LYP) =  -463.763517436     A.U. after   14 cycles
 SCF Done:  E(RB3LYP) =  -463.766245262     A.U. after   12 cycles
 SCF Done:  E(RB3LYP) =  -463.766336264     A.U. after   11 cycles
 SCF Done:  E(RB3LYP) =  -463.766497961     A.U. after   12 cycles
 SCF Done:  E(RB3LYP) =  -463.766644192     A.U. after   10 cycles
 SCF Done:  E(RB3LYP) =  -463.766707853     A.U. after   12 cycles
 SCF Done:  E(RB3LYP) =  -463.766715760     A.U. after   10 cycles
 SCF Done:  E(RB3LYP) =  -463.766716836     A.U. after    8 cycles
 SCF Done:  E(RB3LYP) =  -463.766717144     A.U. after    7 cycles
 SCF Done:  E(RB3LYP) =  -463.766717956     A.U. after    7 cycles
 SCF Done:  E(RB3LYP) =  -463.766718699     A.U. after    8 cycles
 SCF Done:  E(RB3LYP) =  -463.766719582     A.U. after    8 cycles
 SCF Done:  E(RB3LYP) =  -463.766720265     A.U. after    8 cycles
 SCF Done:  E(RB3LYP) =  -463.766720450     A.U. after    7 cycles
 SCF Done:  E(RB3LYP) =  -463.766720478     A.U. after    6 cycles
 Optimization completed.
    -- Stationary point found.

 1\1\GINC-NODE127\FOpt\RB3LYP\6-31G(d)\C8H14O2\VSC10255\08-Dec-2020\0\\
 # opt freq B3LYP/6-31G(d) empiricaldispersion=gd3bj scf=xqc\\CID_13961
 9771_JID_201_neutraal\\0,1\C,1.2485139957,-0.0629439834,0.0449299151\C
 ,0.5176409335,1.1172589807,0.6879857352\C,1.0453439796,2.5037518597,0.
 2649418652\C,0.9840518591,2.7639159367,-1.228215334\C,-0.1655402717,3.
 1801485269,-1.7628372313\O,-0.2761979198,3.4002634421,-3.1313966162\C,
 -1.4747850251,3.83933162,-3.6142196007\O,-2.4457100972,4.0481319375,-2
 .9253203675\C,-1.3944604383,4.0161286349,-5.1091070141\C,2.2302286506,

 Normal termination of Gaussian 16 at Tue Dec  8 10:21:16 2020.

 --------------------------------------------------------------------
 #N Geom=AllCheck Guess=TCheck SCRF=Check GenChk RB3LYP/6-31G(d) Freq
 --------------------------------------------------------------------

 Structure from the checkpoint file:  "JID_201.chk"
 ------------------------------
 CID_139619771_JID_201_neutraal
 ------------------------------
 Charge =  0 Multiplicity = 1

 SCF Done:  E(RB3LYP) =  -463.766720478     A.U. after    1 cycles

  Exact polarizability: 124.074  -6.286  87.738   5.188   1.912  68.684
 Approx polarizability: 152.711 -19.047 133.584   8.579   3.434  95.895

                      1                      2                      3
                      A                      A                      A
 Frequencies --     31.6400                46.7200                70.1526
 Red. masses --      3.6806                 2.0714                 1.6457
 Frc consts  --      0.0022                 0.0027                 0.0048
 IR Inten    --      1.4037                 1.9911                 0.0013

                      4                      5                      6
                      A                      A                      A
 Frequencies --     89.9754               102.9489               141.7491
 Red. masses --      2.7587                 2.4204                 1.0430
 Frc consts  --      0.0132                 0.0151                 0.0123
 IR Inten    --      1.0515                 1.1696                 0.2032

                      7                      8                      9
                      A                      A                      A
 Frequencies --    148.8521               194.5959               273.2292
 Red. masses --      2.5868                 2.5996                 2.0721
 Frc consts  --      0.0338                 0.0580                 0.0911
 IR Inten    --      1.7560                 0.4732                 1.1050

                     10                     11                     12
                      A                      A                      A
 Frequencies --    285.4024               305.8343               345.5087
 Red. masses --      1.7108                 3.2219                 2.0861
 Frc consts  --      0.0821                 0.1776                 0.1467
 IR Inten    --      3.4930                 0.6412                 1.2475

                     13                     14                     15
                      A                      A                      A
 Frequencies --    400.6143               438.5807               509.5555
 Red. masses --      3.0968                 2.4472                 2.8528
 Frc consts  --      0.2928                 0.2773                 0.4364
 IR Inten    --      1.1769                 3.6531                 6.4177

                     16                     17                     18
                      A                      A                      A
 Frequencies --    586.7513               594.4513               639.8612
 Red. masses --      2.5951                 2.8926                 4.9958
 Frc consts  --      0.5264                 0.6022                 1.2051
 IR Inten    --      5.6751                 5.5938                 9.8300

                     19                     20                     21
                      A                      A                      A
 Frequencies --    775.5724               823.5489               884.7808
 Red. masses --      1.4167                 2.3777                 2.1211
 Frc consts  --      0.5021                 0.9501                 0.9783
 IR Inten    --      0.7352                 6.0912                 6.3551

                     22                     23                     24
                      A                      A                      A
 Frequencies --    893.5432               900.9334               946.2559
 Red. masses --      1.5906                 1.3817                 5.4349
 Frc consts  --      0.7482                 0.6608                 2.8672
 IR Inten    --      6.2748                 3.0507                15.8247

                     25                     26                     27
                      A                      A                      A
 Frequencies --   1003.7686              1027.4602              1065.8436
 Red. masses --      1.8118                 1.4927                 1.6051
 Frc consts  --      1.0756                 0.9284                 1.0744
 IR Inten    --     17.5969                 1.6166                18.3470

                     28                     29                     30
                      A                      A                      A
 Frequencies --   1069.8185              1073.7906              1107.2078
 Red. masses --      1.7012                 1.7261                 1.8971
 Frc consts  --      1.1472                 1.1726                 1.3703
 IR Inten    --      4.7532                 7.2802                48.1098

                     31                     32                     33
                      A                      A                      A
 Frequencies --   1121.9745              1169.4657              1245.8176
 Red. masses --      1.9541                 2.5834                 2.6252
 Frc consts  --      1.4493                 2.0817                 2.4006
 IR Inten    --     34.4046               122.2148                15.1877

                     34                     35                     36
                      A                      A                      A
 Frequencies --   1268.8318              1272.1268              1310.0360
 Red. masses --      1.7507                 2.1675                 1.2411
 Frc consts  --      1.6606                 2.0667                 1.2549
 IR Inten    --    314.4426               338.8588                 1.6098

                     37                     38                     39
                      A                      A                      A
 Frequencies --   1370.7304              1393.6388              1397.2597
 Red. masses --      1.2934                 1.3817                 1.3878
 Frc consts  --      1.4318                 1.5811                 1.5964
 IR Inten    --      2.2647                 0.1897                 4.1387

                     40                     41                     42
                      A                      A                      A
 Frequencies --   1424.4801              1441.0862              1443.1365
 Red. masses --      1.3430                 1.2845                 1.3001
 Frc consts  --      1.6056                 1.5717                 1.5953
 IR Inten    --     55.9132                 4.2395                 9.3056

                     43                     44                     45
                      A                      A                      A
 Frequencies --   1500.2007              1504.4868              1514.4082
 Red. masses --      1.0499                 1.0462                 1.0659
 Frc consts  --      1.3922                 1.3952                 1.4403
 IR Inten    --     10.4739                 8.7970                 0.4903

                     46                     47                     48
                      A                      A                      A
 Frequencies --   1515.2198              1519.6396              1522.7366
 Red. masses --      1.0669                 1.0582                 1.0719
 Frc consts  --      1.4432                 1.4398                 1.4644
 IR Inten    --      2.4329                 3.0654                 5.0971

                     49                     50                     51
                      A                      A                      A
 Frequencies --   1533.2298              1542.3894              1762.2938
 Red. masses --      1.0595                 1.0539                 6.6904
 Frc consts  --      1.4674                 1.4772                12.2422
 IR Inten    --      2.5269                 7.0176                13.1251

                     52                     53                     54
                      A                      A                      A
 Frequencies --   1840.7553              3033.2233              3036.8708
 Red. masses --     11.1710                 1.0599                 1.0583
 Frc consts  --     22.3015                 5.7457                 5.7505
 IR Inten    --    289.4266                13.0581                34.6542

                     55                     56                     57
                      A                      A                      A
 Frequencies --   3040.5904              3045.0695              3069.0247
 Red. masses --      1.0479                 1.0388                 1.0995
 Frc consts  --      5.7082                 5.6752                 6.1016
 IR Inten    --     31.8694                26.9325                26.5089

                     58                     59                     60
                      A                      A                      A
 Frequencies --   3071.7677              3080.7392              3089.9915
 Red. masses --      1.0372                 1.1029                 1.0948
 Frc consts  --      5.7663                 6.1675                 6.1588
 IR Inten    --      1.9343                34.6719                24.3689

                     61                     62                     63
                      A                      A                      A
 Frequencies --   3110.0246              3121.3134              3133.6448
 Red. masses --      1.1012                 1.1020                 1.1006
 Frc consts  --      6.2757                 6.3259                 6.3677
 IR Inten    --     44.6634                51.4646                 5.8004

                     64                     65                     66
                      A                      A                      A
 Frequencies --   3154.3941              3185.5751              3244.2192
 Red. masses --      1.0983                 1.1031                 1.0924
 Frc consts  --      6.4387                 6.5954                 6.7742
 IR Inten    --     13.0299                 8.6353                15.8126

 - Thermochemistry -
 -------------------
 Temperature   298.150 Kelvin.  Pressure   1.00000 Atm.
 Atom     1 has atomic number  6 and mass  12.00000

 Molecular mass:   142.09938 amu.
 Principal axes and moments of inertia in atomic units:
                           1         2         3
     Eigenvalues --   701.747343125.911743380.61589
           X            0.99989   0.01503  -0.00015
           Y           -0.01503   0.99982   0.01121
           Z            0.00032  -0.01121   0.99994
 This molecule is an asymmetric top.
 Rotational symmetry number  1.
 Warning -- assumption of classical behavior for rotation
           may cause significant error
 Rotational temperatures (Kelvin)      0.12343     0.02771     0.02562
 Rotational constants (GHZ):           2.57178     0.57735     0.53385
 Zero-point vibrational energy     549141.8 (Joules/Mol)
                                  131.24804 (Kcal/Mol)
 Warning -- explicit consideration of  17 degrees of freedom as
           vibrations may cause significant error
 Vibrational temperatures:     45.52    67.22   100.93   129.45   148.12
          (Kelvin)            203.95   214.17   279.98   393.12   410.63
                              440.03   497.11   576.39   631.02   733.14
                              844.20   855.28   920.62  1115.88  1184.90
                             1273.00  1285.61  1296.24  1361.45  1444.20
                             1478.29  1533.51  1539.23  1544.95  1593.03
                             1614.27  1682.60  1792.45  1825.57  1830.31
                             1884.85  1972.18  2005.14  2010.35  2049.51
                             2073.40  2076.35  2158.45  2164.62  2178.90
                             2180.06  2186.42  2190.88  2205.98  2219.15
                             2535.55  2648.44  4364.13  4369.38  4374.73
                             4381.18  4415.64  4419.59  4432.50  4445.81
                             4474.63  4490.87  4508.62  4538.47  4583.33
                             4667.71

 Zero-point correction=                           0.209157 (Hartree/Particle)
 Thermal correction to Energy=                    0.221517
 Thermal correction to Enthalpy=                  0.222461
 Thermal correction to Gibbs Free Energy=         0.169289
 Sum of electronic and zero-point Energies=           -463.557563
 Sum of electronic and thermal Energies=              -463.545204
 Sum of electronic and thermal Enthalpies=            -463.544260
 Sum of electronic and thermal Free Energies=         -463.597432

                     E (Thermal)             CV                S
                      KCal/Mol        Cal/Mol-Kelvin    Cal/Mol-Kelvin
 Total                  139.004             42.813            111.910
 Electronic               0.000              0.000              0.000
 Translational            0.889              2.981             40.765
 Rotational               0.889              2.981             30.384
 Vibrational            137.226             36.852             40.761
 Vibration     1          0.594              1.983              5.724
 Vibration     2          0.595              1.979              4.952
 Vibration     3          0.598              1.968              4.149
 Vibration     4          0.602              1.956              3.661
 Vibration     5          0.605              1.947              3.398
 Vibration     6          0.615              1.911              2.780
 Vibration     7          0.618              1.904              2.687
 Vibration     8          0.635              1.847              2.184
 Vibration     9          0.676              1.723              1.576
 Vibration    10          0.683              1.701              1.501
 Vibration    11          0.696              1.663              1.385
 Vibration    12          0.724              1.584              1.187
 Vibration    13          0.766              1.469              0.960
 Vibration    14          0.799              1.386              0.831
 Vibration    15          0.865              1.229              0.635
 Vibration    16          0.944              1.060              0.473
 Vibration    17          0.952              1.044              0.459

 Optimization completed.
    -- Stationary point found.

 1\1\GINC-NODE127\Freq\RB3LYP\6-31G(d)\C8H14O2\VSC10255\08-Dec-2020\0\\
 #N Geom=AllCheck Guess=TCheck SCRF=Check GenChk RB3LYP/6-31G(d) Freq\\
 CID_139619771_JID_201_neutraal\\0,1\C,1.2485139957,-0.0629439834,0.044
 9299151\C,0.5176409335,1.1172589807,0.6879857352\C,1.0453439796,2.5037
 518597,0.2649418652\C,0.9840518591,2.7639159367,-1.228215334\C,-0.1655
 402717,3.1801485269,-1.7628372313\O,-0.2761979198,3.4002634421,-3.1313
 966162\C,-1.4747850251,3.83933162,-3.6142196007\O,-2.4457100972,4.0481
 319375,-2.9253203675\C,-1.3944604383,4.0161286349,-5.1091070141\C,2.23

 Normal termination of Gaussian 16 at Tue Dec  8 10:25:11 2020.

 ----------------------------------------------------------------------
 # B3LYP/6-311++G(d,p) empiricaldispersion=gd3bj scf=xqc pop=npa geom=c
 heck
 ----------------------------------------------------------------------

 --------------------------------------
 CID_139619771_JID_201_Energie_neutraal
 --------------------------------------
 Structure from the checkpoint file:  "JID_201.chk"
 Charge =  0 Multiplicity = 1

 SCF Done:  E(RB3LYP) =  -463.903382736     A.U. after   14 cycles
 Normal termination of Gaussian 16 at Tue Dec  8 10:27:02 2020.

 ----------------------------------------------------------------------
 # B3LYP/6-311++G(d,p) empiricaldispersion=gd3bj scf=xqc pop=npa geom=c
 heck
 ----------------------------------------------------------------------

 ------------------------------------
 CID_139619771_JID_201_Energie_kation
 ------------------------------------
 Structure from the checkpoint file:  "JID_201.chk"
 Charge =  1 Multiplicity = 2

 SCF Done:  E(UB3LYP) =  -463.592379341     A.U. after   20 cycles
 Normal termination of Gaussian 16 at Tue Dec  8 10:30:39 2020.
 Gaussian 16:  ES64L-G16RevA.03 25-Dec-2016

 -----------------------------------
 CID_139619771_JID_201_Energie_anion
 -----------------------------------
 Structure from the checkpoint file:  "JID_201.chk"
 Charge = -1 Multiplicity = 2

                         Standard orientation:
 ---------------------------------------------------------------------
 Center     Atomic      Atomic             Coordinates (Angstroms)
 Number     Number       Type             X           Y           Z
 ---------------------------------------------------------------------
      1          6           0       -3.304107   -0.133581    1.279962
      2          6           0       -2.843672   -1.042415    0.138649
      3          6           0       -2.108221   -0.311889   -1.003823
      4          6           0       -0.863952    0.436389   -0.564694
      5          6           0        0.279835   -0.237916   -0.431673
      6          8           0        1.437361    0.400941   -0.000807
      7          6           0        2.578082   -0.341299    0.100899
      8          8           0        2.643625   -1.519608   -0.160190
      9          6           0        3.714930    0.524386    0.581071
     10          6           0       -0.977837    1.913419   -0.298481
     11          1           0       -2.450108    0.324519    1.790208
     12          1           0       -3.872075   -0.698844    2.027086
     13          1           0       -3.949134    0.673604    0.910904
     14          1           0       -2.179360   -1.818621    0.539973
     15          1           0       -3.711074   -1.563521   -0.288177
     16          1           0       -1.845995   -1.051317   -1.770466
     17          1           0       -2.799280    0.396341   -1.480550
     18          1           0        0.404291   -1.293960   -0.637715
     19          1           0        4.621829   -0.076064    0.654484
     20          1           0        3.872420    1.356556   -0.112758
     21          1           0        3.472002    0.955079    1.557966
     22          1           0       -1.254847    2.445339   -1.218918
     23          1           0       -1.766656    2.124023    0.433376
     24          1           0       -0.040242    2.333630    0.071102
 ---------------------------------------------------------------------

 SCF Done:  E(UB3LYP) =  -463.888158123     A.U. after   33 cycles
 SCF Done:  E(UB3LYP) =  -463.888158123     a.u. after    1 cycles

 The electronic state is 2-A.
 Alpha  occ. eigenvalues --  -19.07681 -19.01713 -10.20781 -10.11288 -10.07997
 Alpha  occ. eigenvalues --  -10.07589 -10.06967 -10.06740 -10.06019 -10.05698
 Alpha  occ. eigenvalues --   -1.01515  -0.93105  -0.72319  -0.67537  -0.65064
 Alpha  occ. eigenvalues --   -0.59234  -0.58475  -0.51159  -0.47542  -0.43882
 Alpha  occ. eigenvalues --   -0.39873  -0.38009  -0.37597  -0.35720  -0.34733
 Alpha  occ. eigenvalues --   -0.33597  -0.31324  -0.30761  -0.29781  -0.29701
 Alpha  occ. eigenvalues --   -0.28535  -0.27307  -0.25823  -0.25303  -0.24404
 Alpha  occ. eigenvalues --   -0.23240  -0.22574  -0.18748  -0.13061   0.04544
 Alpha virt. eigenvalues --    0.06302   0.07598   0.07967   0.08659   0.09408
 Alpha virt. eigenvalues --    0.09986   0.10133   0.10953   0.11108   0.11595
 Alpha virt. eigenvalues --    0.12414   0.12705   0.13745   0.13939   0.15183

  Beta  occ. eigenvalues --  -19.07677 -19.01697 -10.20757 -10.11267 -10.07944
  Beta  occ. eigenvalues --  -10.07579 -10.06952 -10.06723 -10.05987 -10.05665
  Beta  occ. eigenvalues --   -1.01490  -0.93079  -0.72277  -0.67486  -0.65005
  Beta  occ. eigenvalues --   -0.59175  -0.58416  -0.51094  -0.47479  -0.43839
  Beta  occ. eigenvalues --   -0.39814  -0.37933  -0.37540  -0.35681  -0.34693
  Beta  occ. eigenvalues --   -0.33559  -0.31272  -0.30711  -0.29732  -0.29664
  Beta  occ. eigenvalues --   -0.28489  -0.27269  -0.25793  -0.25242  -0.24359
  Beta  occ. eigenvalues --   -0.23205  -0.22532  -0.18725  -0.12982
  Beta virt. eigenvalues --    0.06810   0.07381   0.08074   0.08591   0.09044
  Beta virt. eigenvalues --    0.09907   0.10600   0.10905   0.11291   0.11615
  Beta virt. eigenvalues --    0.11943   0.12654   0.12959   0.14015   0.14357

 Mulliken charges and spin densities:
               1          2
     1  C    0.632418  -1.261041
     2  C   -0.063536  -0.141627
     3  C   -0.560172   0.076224
     4  C   -1.112887   2.652255
     5  C    0.477959  -1.911170
     6  O   -0.070510   0.052382
     7  C   -0.454457   0.761140
     8  O   -0.294966  -0.002789
     9  C    1.392354  -1.969334
    10  C    1.596888  -2.022077
    11  H   -0.096844   0.249042
    12  H   -0.274310   0.405899
    13  H   -0.122781   0.265280
    14  H    0.094399   0.017644
    15  H   -0.427990   0.565635
    16  H   -0.194731   0.361643
    17  H   -0.214565   0.382017
    18  H    0.198131   0.017235
    19  H   -0.102035   0.262544
    20  H   -0.535763   0.721624
    21  H   -0.398968   0.574692
    22  H   -0.294569   0.442535
    23  H    0.043094   0.102899
    24  H   -0.216161   0.397351
 Sum of Mulliken charges =  -1.00000   1.00000

 Dipole moment (field-independent basis, Debye):
    X=              0.2249    Y=             -1.9072    Z=              0.0782  Tot=              1.9220
 Quadrupole moment (field-independent basis, Debye-Ang):
   XX=           -142.9299   YY=           -101.5620   ZZ=            -93.0527
   XY=             -5.7271   XZ=             -0.6056   YZ=              0.4497

 Summary of Natural Population Analysis:

                                       Natural Population
                Natural  -----------------------------------------------
    Atom  No    Charge         Core      Valence    Rydberg      Total
 -----------------------------------------------------------------------
      C    1   -0.28661      0.99967     2.28238    0.00456     3.28661
      C    2   -0.18468      0.99964     2.17650    0.00854     3.18468
      C    3   -0.19804      0.99959     2.18864    0.00981     3.19804
      C    4   -0.02598      0.99951     2.01413    0.01234     3.02598
      C    5    0.05763      0.99928     1.93137    0.01173     2.94237
      O    6   -0.27611      0.99985     3.26625    0.01001     4.27611
      C    7    0.41093      0.99971     1.56507    0.02430     2.58907
      O    8   -0.30505      0.99987     3.29915    0.00603     4.30505
      C    9   -0.33273      0.99962     2.32784    0.00527     3.33273
      C   10   -0.30059      0.99962     2.29452    0.00645     3.30059
      H   11    0.09803      0.00000     0.40071    0.00126     0.40197
      H   12    0.09844      0.00000     0.40037    0.00118     0.40156
      H   13    0.09595      0.00000     0.40250    0.00155     0.40405
      H   14    0.09267      0.00000     0.40601    0.00132     0.40733
      H   15    0.09480      0.00000     0.40365    0.00155     0.40520
      H   16    0.10321      0.00000     0.39556    0.00123     0.39679
      H   17    0.09917      0.00000     0.39924    0.00159     0.40083
      H   18    0.09901      0.00000     0.39964    0.00135     0.40099
      H   19    0.10879      0.00000     0.39025    0.00096     0.39121
      H   20    0.11806      0.00000     0.37876    0.00318     0.38194
      H   21    0.11500      0.00000     0.38362    0.00137     0.38500
      H   22    0.10464      0.00000     0.39384    0.00152     0.39536
      H   23    0.10346      0.00000     0.39519    0.00135     0.39654
      H   24    0.11001      0.00000     0.38847    0.00152     0.38999
 =======================================================================
   * Total *   -0.00000      9.99634    28.88368    0.11998    39.00000

 Normal termination of Gaussian 16 at Tue Dec  8 10:37:34 2020.
