 Gaussian 16, Revision A.03,

 -----------------------------------------------------------
 # opt freq B3LYP/6-31G(d) empiricaldispersion=gd3bj scf=xqc
 -----------------------------------------------------------

 -------------------------------
 CID_104583277_JID_4083_neutraal
 -------------------------------
 Symbolic Z-matrix:
 Charge =  0 Multiplicity = 1

 SCF Done:  E(RB3LYP) =  -601.070268593     A.U. after   13 cycles
 SCF Done:  E(RB3LYP) =  -601.075178305     A.U. after   12 cycles
 SCF Done:  E(RB3LYP) =  -601.075696553     A.U. after   11 cycles
 SCF Done:  E(RB3LYP) =  -601.076695042     A.U. after   11 cycles
 SCF Done:  E(RB3LYP) =  -601.076490575     A.U. after   12 cycles
 SCF Done:  E(RB3LYP) =  -601.078146222     A.U. after   11 cycles
 SCF Done:  E(RB3LYP) =  -601.077554535     A.U. after   11 cycles
 SCF Done:  E(RB3LYP) =  -601.078537279     A.U. after   11 cycles
 SCF Done:  E(RB3LYP) =  -601.078705680     A.U. after   10 cycles
 SCF Done:  E(RB3LYP) =  -601.078763017     A.U. after   10 cycles
 SCF Done:  E(RB3LYP) =  -601.078830980     A.U. after    9 cycles
 SCF Done:  E(RB3LYP) =  -601.078832916     A.U. after    8 cycles
 SCF Done:  E(RB3LYP) =  -601.078833695     A.U. after    7 cycles
 SCF Done:  E(RB3LYP) =  -601.078833969     A.U. after    7 cycles
 SCF Done:  E(RB3LYP) =  -601.078833927     A.U. after    6 cycles
 Optimization completed.
    -- Stationary point found.
 Normal termination of Gaussian 16 at Thu Dec 10 09:22:50 2020.

 --------------------------------------------------------------------
 #N Geom=AllCheck Guess=TCheck SCRF=Check GenChk RB3LYP/6-31G(d) Freq
 --------------------------------------------------------------------

 Structure from the checkpoint file:  "JID_4083.chk"
 -------------------------------
 CID_104583277_JID_4083_neutraal
 -------------------------------
 Charge =  0 Multiplicity = 1

 SCF Done:  E(RB3LYP) =  -601.078833927     A.U. after    1 cycles

  Exact polarizability: 142.613   5.891 134.038   8.002   2.681 120.356
 Approx polarizability: 184.650  13.326 195.628   6.989   5.591 177.132

                      1                      2                      3
                      A                      A                      A
 Frequencies --     39.0775                47.2308                68.9261
 Red. masses --      3.9829                 4.0657                 2.7697
 Frc consts  --      0.0036                 0.0053                 0.0078
 IR Inten    --      0.1581                 0.3363                 0.3158

                      4                      5                      6
                      A                      A                      A
 Frequencies --     88.2617                97.9667               127.5254
 Red. masses --      3.1466                 3.0271                 3.6868
 Frc consts  --      0.0144                 0.0171                 0.0353
 IR Inten    --      0.0904                 2.5071                 1.7082

                      7                      8                      9
                      A                      A                      A
 Frequencies --    154.5594               170.8331               196.8070
 Red. masses --      2.7667                 2.6740                 2.9614
 Frc consts  --      0.0389                 0.0460                 0.0676
 IR Inten    --      5.5469                 3.3597                 7.2469

                     10                     11                     12
                      A                      A                      A
 Frequencies --    212.5451               230.7809               239.6246
 Red. masses --      2.5077                 2.5121                 3.0977
 Frc consts  --      0.0667                 0.0788                 0.1048
 IR Inten    --      1.3781                 2.3830                 0.1087

                     13                     14                     15
                      A                      A                      A
 Frequencies --    261.0465               274.1327               319.3248
 Red. masses --      1.6384                 1.7728                 2.3025
 Frc consts  --      0.0658                 0.0785                 0.1383
 IR Inten    --      1.9801                 0.9652                 3.6523

                     16                     17                     18
                      A                      A                      A
 Frequencies --    346.1488               373.1620               380.2011
 Red. masses --      1.9724                 1.2417                 2.0254
 Frc consts  --      0.1392                 0.1019                 0.1725
 IR Inten    --     11.9117                75.6910                10.1555

                     19                     20                     21
                      A                      A                      A
 Frequencies --    425.1745               445.5158               456.5020
 Red. masses --      1.8359                 2.2714                 2.2323
 Frc consts  --      0.1955                 0.2656                 0.2741
 IR Inten    --      1.1712                 1.2283                 0.1092

                     22                     23                     24
                      A                      A                      A
 Frequencies --    488.2165               556.7792               640.5097
 Red. masses --      2.2637                 1.9277                 1.8516
 Frc consts  --      0.3179                 0.3521                 0.4476
 IR Inten    --      1.7642                15.2173                 8.0343

                     25                     26                     27
                      A                      A                      A
 Frequencies --    666.9260               687.0650               735.8151
 Red. masses --      2.3579                 1.6785                 3.0513
 Frc consts  --      0.6179                 0.4668                 0.9734
 IR Inten    --     31.1347                10.1276                 9.4939

                     28                     29                     30
                      A                      A                      A
 Frequencies --    801.5805               812.8002               835.4003
 Red. masses --      1.8931                 1.1779                 1.4431
 Frc consts  --      0.7167                 0.4585                 0.5934
 IR Inten    --      5.2666                 3.0825                 7.4198

                     31                     32                     33
                      A                      A                      A
 Frequencies --    849.4810               856.2861               895.2762
 Red. masses --      1.7295                 2.3298                 1.9145
 Frc consts  --      0.7353                 1.0065                 0.9041
 IR Inten    --     16.0760                 8.3465                 3.9926

                     34                     35                     36
                      A                      A                      A
 Frequencies --    912.5993               940.4595               944.7128
 Red. masses --      1.8620                 1.4138                 1.7769
 Frc consts  --      0.9137                 0.7367                 0.9344
 IR Inten    --      4.8076                31.2284                19.8496

                     37                     38                     39
                      A                      A                      A
 Frequencies --    956.3098               960.3454               980.3151
 Red. masses --      2.1881                 1.8771                 2.3038
 Frc consts  --      1.1790                 1.0200                 1.3045
 IR Inten    --      5.6688                 4.5346                 0.4754

                     40                     41                     42
                      A                      A                      A
 Frequencies --   1006.4395              1033.0788              1054.8052
 Red. masses --      1.9805                 1.9006                 1.1366
 Frc consts  --      1.1819                 1.1951                 0.7451
 IR Inten    --      0.2126                 3.4405                11.3398

                     43                     44                     45
                      A                      A                      A
 Frequencies --   1062.2176              1067.9520              1072.5295
 Red. masses --      1.4071                 1.3580                 2.5447
 Frc consts  --      0.9354                 0.9125                 1.7246
 IR Inten    --     10.7810                 3.3421                27.4081

                     46                     47                     48
                      A                      A                      A
 Frequencies --   1084.0860              1097.4366              1121.8462
 Red. masses --      2.3652                 1.3743                 2.0137
 Frc consts  --      1.6377                 0.9752                 1.4932
 IR Inten    --     60.0623                 7.5345                38.0805

                     49                     50                     51
                      A                      A                      A
 Frequencies --   1141.2477              1152.8242              1171.6593
 Red. masses --      2.2511                 1.2124                 1.6481
 Frc consts  --      1.7274                 0.9494                 1.3330
 IR Inten    --     41.8463                 3.4500                 4.5278

                     52                     53                     54
                      A                      A                      A
 Frequencies --   1175.4586              1191.6711              1215.6548
 Red. masses --      2.2917                 2.1347                 1.4082
 Frc consts  --      1.8656                 1.7861                 1.2261
 IR Inten    --     32.0607                 5.5399                 8.2714

                     55                     56                     57
                      A                      A                      A
 Frequencies --   1221.9172              1254.4327              1263.8843
 Red. masses --      1.2444                 1.4533                 1.3497
 Frc consts  --      1.0947                 1.3474                 1.2703
 IR Inten    --     31.7548                 7.1435                 7.8457

                     58                     59                     60
                      A                      A                      A
 Frequencies --   1273.2692              1283.7852              1333.1207
 Red. masses --      1.2993                 1.2909                 1.2077
 Frc consts  --      1.2411                 1.2535                 1.2646
 IR Inten    --      2.7442                 6.0336                 8.2621

                     61                     62                     63
                      A                      A                      A
 Frequencies --   1339.3244              1356.4862              1363.8857
 Red. masses --      1.2560                 1.3772                 1.6607
 Frc consts  --      1.3274                 1.4931                 1.8201
 IR Inten    --      4.7150                 7.1477                 5.5449

                     64                     65                     66
                      A                      A                      A
 Frequencies --   1388.9090              1395.9645              1406.8478
 Red. masses --      1.3614                 1.3402                 1.2602
 Frc consts  --      1.5474                 1.5388                 1.4696
 IR Inten    --      3.5215                 7.3462                 1.3391

                     67                     68                     69
                      A                      A                      A
 Frequencies --   1417.7740              1423.5093              1435.5757
 Red. masses --      1.2465                 1.2533                 1.4198
 Frc consts  --      1.4762                 1.4963                 1.7240
 IR Inten    --      6.9022                10.6585                15.0211

                     70                     71                     72
                      A                      A                      A
 Frequencies --   1438.3246              1445.3567              1474.9031
 Red. masses --      1.4183                 1.2443                 1.1820
 Frc consts  --      1.7287                 1.5315                 1.5150
 IR Inten    --      1.4244                22.4641                 1.5262

                     73                     74                     75
                      A                      A                      A
 Frequencies --   1501.4163              1508.4746              1509.3282
 Red. masses --      1.0910                 1.0973                 1.0868
 Frc consts  --      1.4491                 1.4711                 1.4586
 IR Inten    --      4.9458                13.0129                 8.2567

                     76                     77                     78
                      A                      A                      A
 Frequencies --   1514.4656              1521.5312              1529.1492
 Red. masses --      1.0796                 1.1126                 1.0877
 Frc consts  --      1.4589                 1.5176                 1.4985
 IR Inten    --     16.2626                 3.5256                13.9443

                     79                     80                     81
                      A                      A                      A
 Frequencies --   1535.8988              1541.7758              1546.4218
 Red. masses --      1.0931                 1.1180                 1.3081
 Frc consts  --      1.5192                 1.5658                 1.8431
 IR Inten    --      6.0813                24.3436                 5.2942

                     82                     83                     84
                      A                      A                      A
 Frequencies --   1725.7466              3008.0882              3025.2332
 Red. masses --      4.3350                 1.0833                 1.0682
 Frc consts  --      7.6067                 5.7752                 5.7597
 IR Inten    --      6.7370                23.2535                14.2120

                     85                     86                     87
                      A                      A                      A
 Frequencies --   3028.2726              3039.2391              3043.8094
 Red. masses --      1.0776                 1.0680                 1.0455
 Frc consts  --      5.8226                 5.8121                 5.7071
 IR Inten    --     26.5766                26.9545                10.7930

                     88                     89                     90
                      A                      A                      A
 Frequencies --   3046.9608              3051.6375              3078.8582
 Red. masses --      1.0629                 1.0603                 1.1020
 Frc consts  --      5.8143                 5.8174                 6.1549
 IR Inten    --     22.9796                80.8971                12.8130

                     91                     92                     93
                      A                      A                      A
 Frequencies --   3084.6239              3094.5236              3106.4452
 Red. masses --      1.0994                 1.0964                 1.0952
 Frc consts  --      6.1635                 6.1860                 6.2268
 IR Inten    --     42.2691                45.9231                32.6617

                     94                     95                     96
                      A                      A                      A
 Frequencies --   3111.9895              3133.0323              3143.0403
 Red. masses --      1.1000                 1.1014                 1.0814
 Frc consts  --      6.2767                 6.3695                 6.2939
 IR Inten    --     43.9117                34.7685                17.1115

                     97                     98                     99
                      A                      A                      A
 Frequencies --   3145.0598              3156.3731              3158.0288
 Red. masses --      1.0552                 1.0683                 1.0609
 Frc consts  --      6.1493                 6.2710                 6.2338
 IR Inten    --     16.7272                 3.8019                15.3675

                    100                    101                    102
                      A                      A                      A
 Frequencies --   3163.7833              3216.0267              3235.0385
 Red. masses --      1.0850                 1.1156                 1.1158
 Frc consts  --      6.3984                 6.7980                 6.8801
 IR Inten    --     13.3005                16.3715                15.3655

                    103                    104                    105
                      A                      A                      A
 Frequencies --   3241.3699              3553.4754              3779.6964
 Red. masses --      1.1151                 1.0733                 1.0656
 Frc consts  --      6.9028                 7.9853                 8.9694
 IR Inten    --     11.5377                 5.8265                31.3283

 - Thermochemistry -
 -------------------
 Temperature   298.150 Kelvin.  Pressure   1.00000 Atm.
 Atom     1 has atomic number  6 and mass  12.00000

 Molecular mass:   197.17796 amu.
 Principal axes and moments of inertia in atomic units:
                           1         2         3
     Eigenvalues --  2125.527653936.617794535.64340
           X            0.99994   0.00012   0.01060
           Y           -0.00029   0.99987   0.01624
           Z           -0.01060  -0.01624   0.99981
 This molecule is an asymmetric top.
 Rotational symmetry number  1.
 Warning -- assumption of classical behavior for rotation
           may cause significant error
 Rotational temperatures (Kelvin)      0.04075     0.02200     0.01910
 Rotational constants (GHZ):           0.84908     0.45845     0.39790
 Zero-point vibrational energy     889550.4 (Joules/Mol)
                                  212.60765 (Kcal/Mol)
 Warning -- explicit consideration of  23 degrees of freedom as
           vibrations may cause significant error
 Vibrational temperatures:     56.22    67.95    99.17   126.99   140.95
          (Kelvin)            183.48   222.38   245.79   283.16   305.80
                              332.04   344.77   375.59   394.42   459.44
                              498.03   536.90   547.02   611.73   641.00
                              656.80   702.43   801.08   921.55   959.56
                              988.53  1058.67  1153.30  1169.44  1201.95
                             1222.21  1232.00  1288.10  1313.03  1353.11
                             1359.23  1375.92  1381.72  1410.45  1448.04
                             1486.37  1517.63  1528.29  1536.54  1543.13
                             1559.76  1578.97  1614.09  1642.00  1658.66
                             1685.76  1691.22  1714.55  1749.06  1758.07
                             1804.85  1818.45  1831.95  1847.08  1918.06
                             1926.99  1951.68  1962.33  1998.33  2008.48
                             2024.14  2039.86  2048.11  2065.47  2069.43
                             2079.55  2122.06  2160.20  2170.36  2171.59
                             2178.98  2189.14  2200.10  2209.82  2218.27
                             2224.96  2482.96  4327.97  4352.64  4357.01
                             4372.79  4379.36  4383.90  4390.63  4429.79
                             4438.09  4452.33  4469.48  4477.46  4507.73
                             4522.13  4525.04  4541.32  4543.70  4551.98
                             4627.15  4654.50  4663.61  5112.66  5438.14

 Zero-point correction=                           0.338812 (Hartree/Particle)
 Thermal correction to Energy=                    0.354999
 Thermal correction to Enthalpy=                  0.355943
 Thermal correction to Gibbs Free Energy=         0.295482
 Sum of electronic and zero-point Energies=           -600.740022
 Sum of electronic and thermal Energies=              -600.723835
 Sum of electronic and thermal Enthalpies=            -600.722891
 Sum of electronic and thermal Free Energies=         -600.783352

                     E (Thermal)             CV                S
                      KCal/Mol        Cal/Mol-Kelvin    Cal/Mol-Kelvin
 Total                  222.765             61.612            127.251
 Electronic               0.000              0.000              0.000
 Translational            0.889              2.981             41.742
 Rotational               0.889              2.981             32.007
 Vibrational            220.988             55.650             53.503
 Vibration     1          0.594              1.981              5.305
 Vibration     2          0.595              1.979              4.930
 Vibration     3          0.598              1.969              4.184
 Vibration     4          0.601              1.957              3.698
 Vibration     5          0.603              1.951              3.494
 Vibration     6          0.611              1.926              2.983
 Vibration     7          0.620              1.898              2.615
 Vibration     8          0.626              1.878              2.426
 Vibration     9          0.636              1.844              2.163
 Vibration    10          0.644              1.822              2.022
 Vibration    11          0.652              1.794              1.873
 Vibration    12          0.657              1.780              1.806
 Vibration    13          0.669              1.744              1.655
 Vibration    14          0.676              1.721              1.570
 Vibration    15          0.705              1.637              1.314
 Vibration    16          0.724              1.583              1.184
 Vibration    17          0.745              1.527              1.067
 Vibration    18          0.750              1.512              1.038
 Vibration    19          0.787              1.415              0.875
 Vibration    20          0.805              1.371              0.809
 Vibration    21          0.815              1.347              0.776
 Vibration    22          0.844              1.276              0.688
 Vibration    23          0.912              1.125              0.530

 Optimization completed.
    -- Stationary point found.
 Normal termination of Gaussian 16 at Thu Dec 10 09:35:06 2020.

 ----------------------------------------------------------------------
 # B3LYP/6-311++G(d,p) empiricaldispersion=gd3bj scf=xqc pop=npa geom=c
 heck
 ----------------------------------------------------------------------

 ---------------------------------------
 CID_104583277_JID_4083_Energie_neutraal
 ---------------------------------------
 Structure from the checkpoint file:  "JID_4083.chk"
 Charge =  0 Multiplicity = 1

 SCF Done:  E(RB3LYP) =  -601.261154437     A.U. after   14 cycles
 Normal termination of Gaussian 16 at Thu Dec 10 09:40:54 2020.

 ----------------------------------------------------------------------
 # B3LYP/6-311++G(d,p) empiricaldispersion=gd3bj scf=xqc pop=npa geom=c
 heck
 ----------------------------------------------------------------------

 -------------------------------------
 CID_104583277_JID_4083_Energie_kation
 -------------------------------------
 Structure from the checkpoint file:  "JID_4083.chk"
 Charge =  1 Multiplicity = 2

 SCF Done:  E(UB3LYP) =  -600.970823757     A.U. after   22 cycles
 Normal termination of Gaussian 16 at Thu Dec 10 09:53:11 2020.
 Gaussian 16:  ES64L-G16RevA.03 25-Dec-2016

 ----------------------------------------------------------------------
 # B3LYP/6-311++G(d,p) empiricaldispersion=gd3bj scf=xqc pop=npa geom=c
 heck
 ----------------------------------------------------------------------

 ------------------------------------
 CID_104583277_JID_4083_Energie_anion
 ------------------------------------
 Structure from the checkpoint file:  "JID_4083.chk"
 Charge = -1 Multiplicity = 2

                         Standard orientation:
 ---------------------------------------------------------------------
 Center     Atomic      Atomic             Coordinates (Angstroms)
 Number     Number       Type             X           Y           Z
 ---------------------------------------------------------------------
      1          6           0       -2.548618   -2.184923    0.211289
      2          6           0       -1.550336   -1.297022   -0.544836
      3          6           0       -2.217328   -0.009246   -1.080708
      4          6           0       -2.996006    0.851725   -0.057955
      5          6           0       -2.204059    1.295799    1.144985
      6          6           0       -1.638137    2.496504    1.287578
      7          7           0       -0.359966   -1.080326    0.289275
      8          6           0        0.958528   -1.212189   -0.335607
      9          6           0        1.246051   -0.245017   -1.516037
     10          6           0        1.212147    1.275973   -1.279131
     11          8           0        2.483047    1.873651   -1.025641
     12          6           0        1.970764   -1.257904    0.803344
     13          6           0        3.357211   -0.677563    0.733577
     14          6           0        2.315391   -0.045507    1.634490
     15          1           0       -2.859313   -1.715109    1.150915
     16          1           0       -2.079172   -3.139915    0.464102
     17          1           0       -3.448004   -2.380503   -0.386292
     18          1           0       -1.214890   -1.861800   -1.425206
     19          1           0       -1.454498    0.618094   -1.553211
     20          1           0       -2.923706   -0.291148   -1.873343
     21          1           0       -3.369405    1.737445   -0.586282
     22          1           0       -3.878610    0.294557    0.280717
     23          1           0       -2.091832    0.565779    1.947696
     24          1           0       -1.070477    2.762205    2.175273
     25          1           0       -1.728588    3.263230    0.520517
     26          1           0       -0.416566   -0.204719    0.798282
     27          1           0        0.976219   -2.213544   -0.790318
     28          1           0        2.212218   -0.492905   -1.972224
     29          1           0        0.492599   -0.478004   -2.279121
     30          1           0        0.862732    1.764310   -2.194389
     31          1           0        0.490038    1.532434   -0.490276
     32          1           0        2.738837    1.679228   -0.112941
     33          1           0        1.869220   -2.173082    1.381745
     34          1           0        4.166608   -1.224123    1.208917
     35          1           0        3.651424   -0.150629   -0.167834
     36          1           0        1.875558    0.913310    1.370131
     37          1           0        2.421344   -0.175813    2.707415
 ---------------------------------------------------------------------

 SCF Done:  E(UB3LYP) =  -601.246954454     A.U. after   33 cycles
 SCF Done:  E(UB3LYP) =  -601.246954454     a.u. after    1 cycles

 The electronic state is 2-A.
 Alpha  occ. eigenvalues --  -19.02984 -14.18802 -10.12073 -10.10459 -10.09729
 Alpha  occ. eigenvalues --  -10.08467 -10.08343 -10.08281 -10.08090 -10.07494
 Alpha  occ. eigenvalues --  -10.07312 -10.06884 -10.06721 -10.05298  -0.93047
 Alpha  occ. eigenvalues --   -0.81138  -0.76421  -0.71118  -0.67764  -0.65219
 Alpha  occ. eigenvalues --   -0.61427  -0.58238  -0.55052  -0.52786  -0.51519
 Alpha  occ. eigenvalues --   -0.48001  -0.46273  -0.45249  -0.42446  -0.40902
 Alpha  occ. eigenvalues --   -0.38977  -0.38090  -0.37217  -0.36265  -0.35250
 Alpha  occ. eigenvalues --   -0.33517  -0.32809  -0.31235  -0.30647  -0.29908
 Alpha  occ. eigenvalues --   -0.29400  -0.27916  -0.27498  -0.27267  -0.26724
 Alpha  occ. eigenvalues --   -0.24611  -0.24431  -0.23975  -0.23181  -0.22358
 Alpha  occ. eigenvalues --   -0.20503  -0.20088  -0.18140  -0.16914  -0.11862
 Alpha  occ. eigenvalues --    0.04343
 Alpha virt. eigenvalues --    0.06012   0.06828   0.07565   0.07769   0.08574
 Alpha virt. eigenvalues --    0.08785   0.08953   0.09792   0.09995   0.10619
 Alpha virt. eigenvalues --    0.11236   0.11527   0.11790   0.12309   0.12801

  Beta  occ. eigenvalues --  -19.02981 -14.18797 -10.12065 -10.10450 -10.09717
  Beta  occ. eigenvalues --  -10.08446 -10.08328 -10.08272 -10.08076 -10.07477
  Beta  occ. eigenvalues --  -10.07286 -10.06873 -10.06698 -10.05271  -0.93038
  Beta  occ. eigenvalues --   -0.81120  -0.76399  -0.71071  -0.67730  -0.65186
  Beta  occ. eigenvalues --   -0.61380  -0.58204  -0.54997  -0.52754  -0.51476
  Beta  occ. eigenvalues --   -0.47938  -0.46232  -0.45206  -0.42418  -0.40876
  Beta  occ. eigenvalues --   -0.38933  -0.38053  -0.37176  -0.36238  -0.35222
  Beta  occ. eigenvalues --   -0.33479  -0.32777  -0.31198  -0.30616  -0.29866
  Beta  occ. eigenvalues --   -0.29364  -0.27889  -0.27473  -0.27244  -0.26694
  Beta  occ. eigenvalues --   -0.24581  -0.24389  -0.23958  -0.23136  -0.22333
  Beta  occ. eigenvalues --   -0.20480  -0.20067  -0.18120  -0.16812  -0.11848
  Beta virt. eigenvalues --    0.06473   0.07039   0.07311   0.07884   0.08118
  Beta virt. eigenvalues --    0.09046   0.09238   0.09366   0.09949   0.10266
  Beta virt. eigenvalues --    0.11050   0.11769   0.11847   0.12045   0.12695

 Mulliken charges and spin densities:
               1          2
     1  C    1.066388  -1.671340
     2  C   -1.225302   1.229571
     3  C    0.497398  -0.725951
     4  C    0.859216  -1.517695
     5  C   -0.765727   1.112428
     6  C    0.207558  -0.857324
     7  N    0.180498   0.036580
     8  C    0.287772  -0.666918
     9  C   -0.232645  -0.192958
    10  C   -0.195853  -0.354770
    11  O   -0.241897   0.010007
    12  C   -0.531754   0.577321
    13  C    0.379308  -0.805791
    14  C   -0.132510  -0.266333
    15  H   -0.026785   0.161103
    16  H   -0.092529   0.253336
    17  H   -0.193246   0.334894
    18  H   -0.264567   0.439068
    19  H    0.463880  -0.325163
    20  H   -0.787698   0.984044
    21  H   -0.466361   0.652564
    22  H    0.117894   0.028381
    23  H   -0.017928   0.200647
    24  H   -0.072690   0.189637
    25  H   -0.042551   0.172566
    26  H    0.215681  -0.069026
    27  H   -0.086667   0.249900
    28  H    0.070043   0.122592
    29  H   -0.031345   0.193218
    30  H   -0.061125   0.249675
    31  H    0.400115  -0.085377
    32  H    0.262396  -0.010947
    33  H   -0.260733   0.497694
    34  H   -0.243454   0.410139
    35  H    0.119835   0.007585
    36  H    0.105099  -0.021328
    37  H   -0.259712   0.457968
 Sum of Mulliken charges =  -1.00000   1.00000

 Dipole moment (field-independent basis, Debye):
    X=              2.7648    Y=              1.9896    Z=              1.1901  Tot=              3.6082
 Quadrupole moment (field-independent basis, Debye-Ang):
   XX=           -161.0910   YY=           -139.7753   ZZ=           -135.7788
   XY=              2.2590   XZ=            -12.7433   YZ=              3.3824

 Summary of Natural Population Analysis:

                                       Natural Population
                Natural  -----------------------------------------------
    Atom  No    Charge         Core      Valence    Rydberg      Total
 -----------------------------------------------------------------------
      C    1   -0.28356      0.99964     2.27753    0.00639     3.28356
      C    2   -0.01338      0.99959     2.00061    0.01318     3.01338
      C    3   -0.18952      0.99959     2.17976    0.01016     3.18952
      C    4   -0.21200      0.99960     2.20152    0.01088     3.21200
      C    5   -0.08885      0.99956     2.07867    0.01061     3.08885
      C    6   -0.19481      0.99955     2.18800    0.00727     3.19481
      N    7   -0.35592      0.99972     2.84352    0.01269     3.85592
      C    8   -0.00378      0.99956     1.99081    0.01341     3.00378
      C    9   -0.21748      0.99960     2.20913    0.00875     3.21748
      C   10   -0.02248      0.99958     2.01051    0.01239     3.02248
      O   11   -0.37305      0.99990     3.36706    0.00609     4.37305
      C   12   -0.11069      0.99958     2.09783    0.01329     3.11069
      C   13   -0.20512      0.99961     2.19639    0.00912     3.20512
      C   14   -0.20676      0.99961     2.19756    0.00959     3.20676
      H   15    0.09433      0.00000     0.40441    0.00125     0.40567
      H   16    0.10257      0.00000     0.39622    0.00121     0.39743
      H   17    0.09727      0.00000     0.40160    0.00113     0.40273
      H   18    0.09396      0.00000     0.40374    0.00230     0.40604
      H   19    0.09581      0.00000     0.40203    0.00216     0.40419
      H   20    0.10371      0.00000     0.39385    0.00244     0.39629
      H   21    0.10336      0.00000     0.39514    0.00150     0.39664
      H   22    0.10297      0.00000     0.39562    0.00141     0.39703
      H   23    0.09370      0.00000     0.40506    0.00125     0.40630
      H   24    0.09345      0.00000     0.40562    0.00093     0.40655
      H   25    0.09161      0.00000     0.40729    0.00109     0.40839
      H   26    0.18141      0.00000     0.31443    0.00416     0.31859
      H   27    0.09651      0.00000     0.40166    0.00182     0.40349
      H   28    0.10401      0.00000     0.39488    0.00112     0.39599
      H   29    0.10471      0.00000     0.39401    0.00128     0.39529
      H   30    0.08764      0.00000     0.41120    0.00116     0.41236
      H   31    0.08338      0.00000     0.41462    0.00200     0.41662
      H   32    0.22941      0.00000     0.26761    0.00298     0.27059
      H   33    0.10938      0.00000     0.38905    0.00157     0.39062
      H   34    0.10444      0.00000     0.39456    0.00100     0.39556
      H   35    0.10485      0.00000     0.39387    0.00128     0.39515
      H   36    0.09242      0.00000     0.40608    0.00149     0.40758
      H   37    0.10651      0.00000     0.39226    0.00123     0.39349
 =======================================================================
   * Total *   -0.00000     13.99470    40.82373    0.18158    55.00000

 Normal termination of Gaussian 16 at Thu Dec 10 10:13:29 2020.
