 Gaussian 16, Revision A.03,

 -----------------------------------------------------------
 # opt freq B3LYP/6-31G(d) empiricaldispersion=gd3bj scf=xqc
 -----------------------------------------------------------

 ------------------------------
 CID_64880705_JID_9487_neutraal
 ------------------------------
 Symbolic Z-matrix:
 Charge =  0 Multiplicity = 1

 SCF Done:  E(RB3LYP) =  -846.112433459     A.U. after   15 cycles
 SCF Done:  E(RB3LYP) =  -846.120155526     A.U. after   13 cycles
 SCF Done:  E(RB3LYP) =  -846.120599687     A.U. after   13 cycles
 SCF Done:  E(RB3LYP) =  -846.121429520     A.U. after   12 cycles
 SCF Done:  E(RB3LYP) =  -846.121691876     A.U. after   11 cycles
 SCF Done:  E(RB3LYP) =  -846.122038043     A.U. after   12 cycles
 SCF Done:  E(RB3LYP) =  -846.122172898     A.U. after   11 cycles
 SCF Done:  E(RB3LYP) =  -846.122228808     A.U. after   11 cycles
 SCF Done:  E(RB3LYP) =  -846.122273005     A.U. after   11 cycles
 SCF Done:  E(RB3LYP) =  -846.122310354     A.U. after   10 cycles
 SCF Done:  E(RB3LYP) =  -846.122376960     A.U. after    6 cycles
 SCF Done:  E(RB3LYP) =  -846.122376960     A.U. after    6 cycles
 SCF Done:  E(RB3LYP) =  -846.122376965     A.U. after    6 cycles
 SCF Done:  E(RB3LYP) =  -846.122376967     A.U. after    6 cycles
 SCF Done:  E(RB3LYP) =  -846.122376984     A.U. after    6 cycles
 Optimization completed.
    -- Stationary point found.
 Normal termination of Gaussian 16 at Sun Dec 13 13:01:06 2020.

 --------------------------------------------------------------------
 #N Geom=AllCheck Guess=TCheck SCRF=Check GenChk RB3LYP/6-31G(d) Freq
 --------------------------------------------------------------------

 Structure from the checkpoint file:  "JID_9487.chk"
 ------------------------------
 CID_64880705_JID_9487_neutraal
 ------------------------------
 Charge =  0 Multiplicity = 1

 SCF Done:  E(RB3LYP) =  -846.122376984     A.U. after    1 cycles

  Exact polarizability: 179.171  -8.308 171.838   4.162  -1.559 140.423
 Approx polarizability: 227.517 -18.238 255.411  20.035  -8.262 225.474

                      1                      2                      3
                      A                      A                      A
 Frequencies --     28.3116                32.0222                62.6992
 Red. masses --      4.3794                 2.7950                 5.8350
 Frc consts  --      0.0021                 0.0017                 0.0135
 IR Inten    --      0.1778                 0.0624                 2.7471

                      4                      5                      6
                      A                      A                      A
 Frequencies --     78.3013                87.9279               106.4182
 Red. masses --      2.1016                 2.7112                 4.1399
 Frc consts  --      0.0076                 0.0124                 0.0276
 IR Inten    --      0.1991                 0.1442                 0.1870

                      7                      8                      9
                      A                      A                      A
 Frequencies --    126.8614               148.9967               162.1270
 Red. masses --      4.6653                 3.2062                 2.6339
 Frc consts  --      0.0442                 0.0419                 0.0408
 IR Inten    --      1.1176                 5.8176                 3.6397

                     10                     11                     12
                      A                      A                      A
 Frequencies --    175.3521               211.3402               223.2634
 Red. masses --      2.7039                 3.4041                 2.9271
 Frc consts  --      0.0490                 0.0896                 0.0860
 IR Inten    --      0.1433                 0.0805                 0.5532

                     13                     14                     15
                      A                      A                      A
 Frequencies --    276.3641               302.1449               336.3783
 Red. masses --      2.4356                 2.7687                 3.6570
 Frc consts  --      0.1096                 0.1489                 0.2438
 IR Inten    --      0.4390                 2.2768                 4.6048

                     16                     17                     18
                      A                      A                      A
 Frequencies --    363.9094               378.7749               415.4139
 Red. masses --      2.0448                 4.2989                 3.2881
 Frc consts  --      0.1595                 0.3634                 0.3343
 IR Inten    --      2.1845                 8.1553                 1.2486

                     19                     20                     21
                      A                      A                      A
 Frequencies --    443.6688               452.5526               468.8866
 Red. masses --      3.2577                 3.1845                 3.2793
 Frc consts  --      0.3778                 0.3843                 0.4248
 IR Inten    --      4.7016                 4.2235                 6.6330

                     22                     23                     24
                      A                      A                      A
 Frequencies --    477.0275               494.6154               518.3456
 Red. masses --      4.3692                 2.3564                 1.7184
 Frc consts  --      0.5858                 0.3397                 0.2720
 IR Inten    --      8.3747                 4.7770                 1.5055

                     25                     26                     27
                      A                      A                      A
 Frequencies --    554.4938               580.6733               600.4746
 Red. masses --      1.2485                 3.3964                 3.8080
 Frc consts  --      0.2262                 0.6747                 0.8090
 IR Inten    --     75.3439                10.1334                 0.7040

                     28                     29                     30
                      A                      A                      A
 Frequencies --    632.7267               667.8505               701.2361
 Red. masses --      2.5792                 3.4182                 4.3502
 Frc consts  --      0.6084                 0.8983                 1.2603
 IR Inten    --      0.5363                 5.8768                 5.1795

                     31                     32                     33
                      A                      A                      A
 Frequencies --    738.9593               758.0414               779.7023
 Red. masses --      4.0340                 3.2475                 1.5915
 Frc consts  --      1.2979                 1.0995                 0.5700
 IR Inten    --     14.5834                14.7685                 4.1046

                     34                     35                     36
                      A                      A                      A
 Frequencies --    797.8454               814.7264               829.6777
 Red. masses --      1.4978                 1.9251                 1.8757
 Frc consts  --      0.5617                 0.7529                 0.7607
 IR Inten    --      0.9765                 0.5338                 3.5672

                     37                     38                     39
                      A                      A                      A
 Frequencies --    846.6552               871.4504               877.5161
 Red. masses --      3.0512                 1.8573                 3.5548
 Frc consts  --      1.2886                 0.8311                 1.6128
 IR Inten    --      0.8659                 5.0392                 0.6068

                     40                     41                     42
                      A                      A                      A
 Frequencies --    901.7544               916.7191               929.3350
 Red. masses --      2.5477                 2.3508                 2.3214
 Frc consts  --      1.2206                 1.1640                 1.1813
 IR Inten    --      1.4858                 1.7773                 3.9593

                     43                     44                     45
                      A                      A                      A
 Frequencies --    944.3178               961.1608               978.1780
 Red. masses --      2.1585                 1.4080                 2.0031
 Frc consts  --      1.1341                 0.7664                 1.1292
 IR Inten    --      1.9531                 1.2651                 9.7771

                     46                     47                     48
                      A                      A                      A
 Frequencies --    987.7962               988.3010              1011.4132
 Red. masses --      1.6606                 1.2863                 2.0649
 Frc consts  --      0.9547                 0.7402                 1.2445
 IR Inten    --      1.4558                 0.1231                 4.6442

                     49                     50                     51
                      A                      A                      A
 Frequencies --   1025.8540              1037.3239              1057.0632
 Red. masses --      2.4519                 2.5429                 2.0689
 Frc consts  --      1.5203                 1.6121                 1.3620
 IR Inten    --      9.7184                 2.3421                 0.0289

                     52                     53                     54
                      A                      A                      A
 Frequencies --   1065.3093              1089.4081              1096.1555
 Red. masses --      2.2261                 2.1898                 1.8126
 Frc consts  --      1.4885                 1.5312                 1.2832
 IR Inten    --      3.0183                 9.9726                10.4429

                     55                     56                     57
                      A                      A                      A
 Frequencies --   1108.7253              1121.5176              1140.9124
 Red. masses --      2.0403                 2.1026                 2.6835
 Frc consts  --      1.4777                 1.5582                 2.0580
 IR Inten    --     29.0443                 7.1340                32.4359

                     58                     59                     60
                      A                      A                      A
 Frequencies --   1171.2852              1180.7578              1197.5828
 Red. masses --      1.6537                 2.0760                 2.5968
 Frc consts  --      1.3367                 1.7053                 2.1943
 IR Inten    --      5.7467                16.9886                 6.9843

                     61                     62                     63
                      A                      A                      A
 Frequencies --   1204.8722              1221.3939              1241.3438
 Red. masses --      1.3904                 1.4887                 1.7740
 Frc consts  --      1.1893                 1.3085                 1.6106
 IR Inten    --      2.8162                 0.3872                 2.0203

                     64                     65                     66
                      A                      A                      A
 Frequencies --   1261.5392              1266.2139              1271.1865
 Red. masses --      1.5213                 1.1319                 1.3086
 Frc consts  --      1.4265                 1.0692                 1.2458
 IR Inten    --      0.2480                 4.9460                 4.2180

                     67                     68                     69
                      A                      A                      A
 Frequencies --   1292.8740              1309.4901              1314.1759
 Red. masses --      1.4274                 1.2829                 1.3074
 Frc consts  --      1.4057                 1.2961                 1.3303
 IR Inten    --      6.5322                13.9944                 2.1606

                     70                     71                     72
                      A                      A                      A
 Frequencies --   1321.9892              1334.5789              1339.1323
 Red. masses --      1.2158                 1.2774                 1.3527
 Frc consts  --      1.2519                 1.3405                 1.4292
 IR Inten    --      0.3154                 4.8275                16.4406

                     73                     74                     75
                      A                      A                      A
 Frequencies --   1349.2795              1357.5237              1363.5120
 Red. masses --      1.2999                 1.3251                 2.0330
 Frc consts  --      1.3943                 1.4388                 2.2270
 IR Inten    --      2.1827                 7.1135                82.2296

                     76                     77                     78
                      A                      A                      A
 Frequencies --   1371.6732              1375.7349              1389.6695
 Red. masses --      1.3633                 1.7570                 1.4185
 Frc consts  --      1.5113                 1.9593                 1.6139
 IR Inten    --      0.2214                61.6812                 1.6278

                     79                     80                     81
                      A                      A                      A
 Frequencies --   1396.6798              1403.8197              1406.7604
 Red. masses --      1.4980                 1.5328                 1.4475
 Frc consts  --      1.7217                 1.7797                 1.6877
 IR Inten    --     13.1222                 2.3530                 1.6557

                     82                     83                     84
                      A                      A                      A
 Frequencies --   1410.5854              1418.3114              1431.7522
 Red. masses --      1.4586                 1.5888                 2.0972
 Frc consts  --      1.7100                 1.8830                 2.5329
 IR Inten    --     21.3007                50.2119                93.0612

                     85                     86                     87
                      A                      A                      A
 Frequencies --   1441.1436              1495.3882              1503.2443
 Red. masses --      1.4382                 1.6593                 1.0898
 Frc consts  --      1.7598                 2.1861                 1.4509
 IR Inten    --     19.2382                 5.3267                 4.5985

                     88                     89                     90
                      A                      A                      A
 Frequencies --   1510.2764              1512.3608              1518.3403
 Red. masses --      1.0906                 1.1035                 1.0885
 Frc consts  --      1.4656                 1.4870                 1.4785
 IR Inten    --      2.4349                 3.4474                 3.6029

                     91                     92                     93
                      A                      A                      A
 Frequencies --   1520.8214              1522.2951              1524.5911
 Red. masses --      1.1013                 1.0851                 1.0990
 Frc consts  --      1.5008                 1.4815                 1.5051
 IR Inten    --     12.2981                 0.8203                18.6898

                     94                     95                     96
                      A                      A                      A
 Frequencies --   1529.4493              1534.0768              1538.5344
 Red. masses --      1.0902                 1.3709                 1.1110
 Frc consts  --      1.5026                 1.9008                 1.5495
 IR Inten    --      2.4224                14.0003                13.3802

                     97                     98                     99
                      A                      A                      A
 Frequencies --   1549.3821              1764.5657              1789.4986
 Red. masses --      1.1045                10.3263                 8.4598
 Frc consts  --      1.5622                18.9440                15.9615
 IR Inten    --      0.4871               277.4791               284.2965

                    100                    101                    102
                      A                      A                      A
 Frequencies --   2997.0740              3016.8906              3019.5004
 Red. masses --      1.0825                 1.0686                 1.0724
 Frc consts  --      5.7287                 5.7306                 5.7607
 IR Inten    --     28.6190                30.3464                26.3066

                    103                    104                    105
                      A                      A                      A
 Frequencies --   3040.3045              3047.3726              3054.4185
 Red. masses --      1.0631                 1.0618                 1.0636
 Frc consts  --      5.7896                 5.8098                 5.8466
 IR Inten    --     18.7041                19.9627                 2.1147

                    106                    107                    108
                      A                      A                      A
 Frequencies --   3055.1054              3057.2070              3067.8251
 Red. masses --      1.0703                 1.0629                 1.0634
 Frc consts  --      5.8858                 5.8530                 5.8964
 IR Inten    --     69.1293                52.2147                66.0262

                    109                    110                    111
                      A                      A                      A
 Frequencies --   3074.8331              3078.3882              3082.6519
 Red. masses --      1.0686                 1.0934                 1.0982
 Frc consts  --      5.9528                 6.1049                 6.1488
 IR Inten    --      7.7932                64.7829                36.8198

                    112                    113                    114
                      A                      A                      A
 Frequencies --   3089.4365              3090.3195              3091.5023
 Red. masses --      1.0957                 1.0674                 1.0996
 Frc consts  --      6.1619                 6.0061                 6.1920
 IR Inten    --     21.4748                13.5044                37.5025

                    115                    116                    117
                      A                      A                      A
 Frequencies --   3101.8635              3103.1252              3114.4742
 Red. masses --      1.0700                 1.0949                 1.1034
 Frc consts  --      6.0655                 6.2119                 6.3059
 IR Inten    --     21.4230                15.0431                52.5224

                    118                    119                    120
                      A                      A                      A
 Frequencies --   3119.8750              3129.3606              3135.2331
 Red. masses --      1.0911                 1.1033                 1.1009
 Frc consts  --      6.2572                 6.3661                 6.3757
 IR Inten    --      9.0528                43.0754                 9.2307

                    121                    122                    123
                      A                      A                      A
 Frequencies --   3143.9084              3155.1856              3602.3776
 Red. masses --      1.0973                 1.0978                 1.0766
 Frc consts  --      6.3901                 6.4388                 8.2317
 IR Inten    --     13.7938                28.0774                29.2045

 - Thermochemistry -
 -------------------
 Temperature   298.150 Kelvin.  Pressure   1.00000 Atm.
 Atom     1 has atomic number  6 and mass  12.00000

 Molecular mass:   264.18378 amu.
 Principal axes and moments of inertia in atomic units:
                           1         2         3
     Eigenvalues --  3128.904266307.990167519.65352
           X            0.99987   0.00362  -0.01572
           Y           -0.00347   0.99995   0.00941
           Z            0.01575  -0.00935   0.99983
 This molecule is an asymmetric top.
 Rotational symmetry number  1.
 Warning -- assumption of classical behavior for rotation
           may cause significant error
 Rotational temperatures (Kelvin)      0.02768     0.01373     0.01152
 Rotational constants (GHZ):           0.57680     0.28610     0.24000
 Zero-point vibrational energy    1011507.8 (Joules/Mol)
                                  241.75616 (Kcal/Mol)
 Warning -- explicit consideration of  27 degrees of freedom as
           vibrations may cause significant error
 Vibrational temperatures:     40.73    46.07    90.21   112.66   126.51
          (Kelvin)            153.11   182.53   214.37   233.26   252.29
                              304.07   321.23   397.63   434.72   483.97
                              523.58   544.97   597.69   638.34   651.12
                              674.62   686.34   711.64   745.78   797.79
                              835.46   863.95   910.35   960.89  1008.92
                             1063.20  1090.65  1121.82  1147.92  1172.21
                             1193.72  1218.15  1253.82  1262.55  1297.42
                             1318.95  1337.11  1358.66  1382.90  1407.38
                             1421.22  1421.94  1455.20  1475.98  1492.48
                             1520.88  1532.74  1567.42  1577.12  1595.21
                             1613.61  1641.52  1685.22  1698.85  1723.05
                             1733.54  1757.31  1786.02  1815.07  1821.80
                             1828.95  1860.16  1884.06  1890.81  1902.05
                             1920.16  1926.71  1941.31  1953.17  1961.79
                             1973.53  1979.38  1999.42  2009.51  2019.78
                             2024.01  2029.52  2040.63  2059.97  2073.48
                             2151.53  2162.83  2172.95  2175.95  2184.55
                             2188.12  2190.24  2193.55  2200.54  2207.19
                             2213.61  2229.22  2538.82  2574.69  4312.12
                             4340.63  4344.39  4374.32  4384.49  4394.63
                             4395.62  4398.64  4413.92  4424.00  4429.11
                             4435.25  4445.01  4446.28  4447.98  4462.89
                             4464.71  4481.03  4488.80  4502.45  4510.90
                             4523.38  4539.61  5183.02

 Zero-point correction=                           0.385263 (Hartree/Particle)
 Thermal correction to Energy=                    0.402787
 Thermal correction to Enthalpy=                  0.403731
 Thermal correction to Gibbs Free Energy=         0.339157
 Sum of electronic and zero-point Energies=           -845.737114
 Sum of electronic and thermal Energies=              -845.719590
 Sum of electronic and thermal Enthalpies=            -845.718646
 Sum of electronic and thermal Free Energies=         -845.783220

                     E (Thermal)             CV                S
                      KCal/Mol        Cal/Mol-Kelvin    Cal/Mol-Kelvin
 Total                  252.753             69.287            135.908
 Electronic               0.000              0.000              0.000
 Translational            0.889              2.981             42.614
 Rotational               0.889              2.981             33.362
 Vibrational            250.975             63.325             59.932
 Vibration     1          0.593              1.984              5.944
 Vibration     2          0.594              1.983              5.700
 Vibration     3          0.597              1.972              4.370
 Vibration     4          0.600              1.964              3.933
 Vibration     5          0.601              1.958              3.706
 Vibration     6          0.605              1.944              3.333
 Vibration     7          0.611              1.926              2.993
 Vibration     8          0.618              1.904              2.685
 Vibration     9          0.622              1.889              2.525
 Vibration    10          0.627              1.873              2.377
 Vibration    11          0.643              1.824              2.032
 Vibration    12          0.649              1.806              1.932
 Vibration    13          0.678              1.717              1.556
 Vibration    14          0.694              1.670              1.405
 Vibration    15          0.717              1.603              1.229
 Vibration    16          0.737              1.547              1.105
 Vibration    17          0.749              1.515              1.044
 Vibration    18          0.779              1.437              0.908
 Vibration    19          0.803              1.375              0.815
 Vibration    20          0.811              1.355              0.788
 Vibration    21          0.826              1.319              0.741
 Vibration    22          0.834              1.301              0.718
 Vibration    23          0.850              1.262              0.672
 Vibration    24          0.873              1.209              0.614
 Vibration    25          0.910              1.130              0.535
 Vibration    26          0.937              1.073              0.484
 Vibration    27          0.959              1.031              0.449

 Optimization completed.
    -- Stationary point found.
 Normal termination of Gaussian 16 at Sun Dec 13 13:30:22 2020.

 ----------------------------------------------------------------------
 # B3LYP/6-311++G(d,p) empiricaldispersion=gd3bj scf=xqc pop=npa geom=c
 heck
 ----------------------------------------------------------------------

 --------------------------------------
 CID_64880705_JID_9487_Energie_neutraal
 --------------------------------------
 Structure from the checkpoint file:  "JID_9487.chk"
 Charge =  0 Multiplicity = 1

 SCF Done:  E(RB3LYP) =  -846.356633928     A.U. after   15 cycles
 Normal termination of Gaussian 16 at Sun Dec 13 13:44:11 2020.

 ----------------------------------------------------------------------
 # B3LYP/6-311++G(d,p) empiricaldispersion=gd3bj scf=xqc pop=npa geom=c
 heck
 ----------------------------------------------------------------------

 ------------------------------------
 CID_64880705_JID_9487_Energie_kation
 ------------------------------------
 Structure from the checkpoint file:  "JID_9487.chk"
 Charge =  1 Multiplicity = 2

 SCF Done:  E(UB3LYP) =  -846.043033250     A.U. after   27 cycles
 Normal termination of Gaussian 16 at Sun Dec 13 14:18:47 2020.
 Gaussian 16:  ES64L-G16RevA.03 25-Dec-2016

 ----------------------------------------------------------------------
 # B3LYP/6-311++G(d,p) empiricaldispersion=gd3bj scf=xqc pop=npa geom=c
 heck
 ----------------------------------------------------------------------

 -----------------------------------
 CID_64880705_JID_9487_Energie_anion
 -----------------------------------
 Structure from the checkpoint file:  "JID_9487.chk"
 Charge = -1 Multiplicity = 2

                         Standard orientation:
 ---------------------------------------------------------------------
 Center     Atomic      Atomic             Coordinates (Angstroms)
 Number     Number       Type             X           Y           Z
 ---------------------------------------------------------------------
      1          6           0        3.334141   -1.911610   -0.821354
      2          6           0        3.516572   -0.396571   -0.947775
      3          6           0        2.162953    0.287519   -1.160238
      4          6           0        1.135596   -0.003300   -0.031960
      5          6           0        1.038732   -1.525213    0.226230
      6          6           0        2.396161   -2.241671    0.342783
      7          6           0        1.606143    0.676084    1.274565
      8          8           0        2.210715    0.079542    2.157658
      9          7           0        1.340622    2.003406    1.372603
     10          6           0        0.603132    2.775473    0.400484
     11          6           0       -0.360268    1.943051   -0.431846
     12          8           0       -1.240232    2.525413   -1.056575
     13          7           0       -0.188533    0.581454   -0.436418
     14          6           0       -1.065877   -0.132854   -1.387743
     15          6           0       -2.384655   -0.654785   -0.802752
     16          6           0       -2.301743   -1.640273    0.373854
     17          6           0       -3.756515   -1.746621    0.881061
     18          6           0       -4.444098   -0.412632    0.458293
     19          6           0       -3.349594    0.409849   -0.252817
     20          1           0        4.303206   -2.403135   -0.674512
     21          1           0        2.919810   -2.303491   -1.762683
     22          1           0        3.991479   -0.007907   -0.037980
     23          1           0        4.180323   -0.151128   -1.785505
     24          1           0        1.720835   -0.071510   -2.099352
     25          1           0        2.288576    1.371115   -1.269668
     26          1           0        0.489330   -1.986835   -0.597002
     27          1           0        0.457031   -1.695250    1.134665
     28          1           0        2.207056   -3.321662    0.382137
     29          1           0        2.869416   -1.957300    1.284046
     30          1           0        1.671663    2.445129    2.220940
     31          1           0        1.266708    3.311004   -0.294974
     32          1           0       -0.001185    3.530744    0.909022
     33          1           0       -1.299975    0.570739   -2.190362
     34          1           0       -0.502688   -0.955831   -1.829515
     35          1           0       -2.888191   -1.166115   -1.639236
     36          1           0       -1.870833   -2.610365    0.104211
     37          1           0       -1.666701   -1.203119    1.152982
     38          1           0       -3.795659   -1.911121    1.962537
     39          1           0       -4.260807   -2.600409    0.414860
     40          1           0       -4.867710    0.125370    1.312261
     41          1           0       -5.273645   -0.615885   -0.228391
     42          1           0       -2.816019    1.035062    0.471188
     43          1           0       -3.734579    1.079584   -1.026330
 ---------------------------------------------------------------------

 SCF Done:  E(UB3LYP) =  -846.345701495     A.U. after   33 cycles
 SCF Done:  E(UB3LYP) =  -846.345701495     a.u. after    1 cycles

 The electronic state is 2-A.
 Alpha  occ. eigenvalues --  -19.00104 -19.00050 -14.25911 -14.25285 -10.18687
 Alpha  occ. eigenvalues --  -10.18638 -10.14592 -10.12930 -10.11135 -10.08518
 Alpha  occ. eigenvalues --  -10.08341 -10.07959 -10.07648 -10.07561 -10.07487
 Alpha  occ. eigenvalues --  -10.07239 -10.07199 -10.06807 -10.06741  -0.96017
 Alpha  occ. eigenvalues --   -0.95060  -0.86162  -0.83485  -0.75165  -0.74002
 Alpha  occ. eigenvalues --   -0.67184  -0.66377  -0.65745  -0.63207  -0.61785
 Alpha  occ. eigenvalues --   -0.58572  -0.54748  -0.53213  -0.51927  -0.47884
 Alpha  occ. eigenvalues --   -0.47386  -0.46810  -0.44991  -0.42788  -0.41097
 Alpha  occ. eigenvalues --   -0.40540  -0.39534  -0.38707  -0.37852  -0.36560
 Alpha  occ. eigenvalues --   -0.35857  -0.35131  -0.33925  -0.33598  -0.32959
 Alpha  occ. eigenvalues --   -0.32234  -0.31431  -0.31371  -0.30579  -0.29554
 Alpha  occ. eigenvalues --   -0.29135  -0.27781  -0.27484  -0.25916  -0.25373
 Alpha  occ. eigenvalues --   -0.25052  -0.24828  -0.23771  -0.23362  -0.23278
 Alpha  occ. eigenvalues --   -0.22764  -0.22464  -0.22004  -0.18351  -0.17523
 Alpha  occ. eigenvalues --   -0.16211  -0.15544   0.03979
 Alpha virt. eigenvalues --    0.05412   0.06099   0.07196   0.07449   0.07892
 Alpha virt. eigenvalues --    0.08184   0.08785   0.09433   0.09499   0.09635
 Alpha virt. eigenvalues --    0.10106   0.10496   0.10675   0.11496   0.11576

  Beta  occ. eigenvalues --  -19.00100 -19.00044 -14.25906 -14.25257 -10.18686
  Beta  occ. eigenvalues --  -10.18639 -10.14590 -10.12893 -10.11125 -10.08494
  Beta  occ. eigenvalues --  -10.08332 -10.07952 -10.07638 -10.07555 -10.07472
  Beta  occ. eigenvalues --  -10.07222 -10.07188 -10.06800 -10.06736  -0.96007
  Beta  occ. eigenvalues --   -0.95052  -0.86144  -0.83450  -0.75147  -0.73982
  Beta  occ. eigenvalues --   -0.67159  -0.66345  -0.65714  -0.63161  -0.61765
  Beta  occ. eigenvalues --   -0.58540  -0.54705  -0.53176  -0.51889  -0.47855
  Beta  occ. eigenvalues --   -0.47351  -0.46775  -0.44963  -0.42729  -0.41057
  Beta  occ. eigenvalues --   -0.40509  -0.39481  -0.38682  -0.37819  -0.36538
  Beta  occ. eigenvalues --   -0.35837  -0.35101  -0.33903  -0.33572  -0.32933
  Beta  occ. eigenvalues --   -0.32208  -0.31415  -0.31344  -0.30558  -0.29538
  Beta  occ. eigenvalues --   -0.29104  -0.27753  -0.27462  -0.25891  -0.25352
  Beta  occ. eigenvalues --   -0.25029  -0.24810  -0.23745  -0.23340  -0.23255
  Beta  occ. eigenvalues --   -0.22746  -0.22446  -0.21977  -0.18330  -0.17505
  Beta  occ. eigenvalues --   -0.16190  -0.15528
  Beta virt. eigenvalues --    0.05921   0.06590   0.06770   0.07465   0.07985
  Beta virt. eigenvalues --    0.08253   0.08358   0.09038   0.09599   0.09697
  Beta virt. eigenvalues --    0.09955   0.10266   0.10738   0.10836   0.11622

 Mulliken charges and spin densities:
               1          2
     1  C    0.292327  -0.819749
     2  C   -0.258198  -0.088548
     3  C    0.086193   0.238714
     4  C    0.479797  -1.787201
     5  C   -0.134623   0.323376
     6  C   -0.808452   0.173636
     7  C   -0.300154   0.106046
     8  O   -0.284258   0.019558
     9  N   -0.496978   0.292950
    10  C    1.733651  -2.372852
    11  C   -0.916535   1.081816
    12  O   -0.281383   0.026702
    13  N    0.730395   0.095835
    14  C    0.256917  -0.428975
    15  C   -0.148613   0.617600
    16  C    0.284953  -0.424360
    17  C   -0.128823  -0.565164
    18  C   -0.405339  -0.051577
    19  C   -0.029571  -0.372353
    20  H    0.068366   0.094816
    21  H   -0.210207   0.343861
    22  H    0.083982   0.088221
    23  H   -0.342637   0.531556
    24  H    0.002594   0.169190
    25  H   -0.093013   0.257186
    26  H    0.201535  -0.132395
    27  H    0.120627   0.084983
    28  H   -0.039613   0.200813
    29  H    0.138083   0.063078
    30  H   -0.212396   0.566335
    31  H   -0.334982   0.588233
    32  H   -0.250848   0.468016
    33  H    0.100670   0.115339
    34  H   -0.218331   0.400600
    35  H   -0.134155   0.328409
    36  H   -0.184371   0.370058
    37  H    0.255655  -0.130361
    38  H    0.036568   0.101676
    39  H   -0.033525   0.177733
    40  H    0.044757   0.096722
    41  H    0.066570   0.069089
    42  H    0.097113   0.055850
    43  H    0.166254   0.025536
 Sum of Mulliken charges =  -1.00000   1.00000

 Dipole moment (field-independent basis, Debye):
    X=             -2.5634    Y=             -2.5282    Z=              0.3418  Tot=              3.6166
 Quadrupole moment (field-independent basis, Debye-Ang):
   XX=           -181.1935   YY=           -180.0093   ZZ=           -162.0315
   XY=             -4.2649   XZ=             -1.7791   YZ=             -5.4812

 Summary of Natural Population Analysis:

                                       Natural Population
                Natural  -----------------------------------------------
    Atom  No    Charge         Core      Valence    Rydberg      Total
 -----------------------------------------------------------------------
      C    1   -0.18876      0.99963     2.18147    0.00766     3.18876
      C    2   -0.19248      0.99962     2.18429    0.00857     3.19248
      C    3   -0.19342      0.99958     2.18409    0.00975     3.19342
      C    4    0.04653      0.99950     1.94090    0.01307     2.95347
      C    5   -0.19447      0.99959     2.18439    0.01049     3.19447
      C    6   -0.19078      0.99962     2.18292    0.00824     3.19078
      C    7    0.34662      0.99959     1.62940    0.02439     2.65338
      O    8   -0.32328      0.99988     3.31790    0.00551     4.32328
      N    9   -0.31005      0.99966     2.79919    0.01120     3.81005
      C   10   -0.12586      0.99958     2.11432    0.01196     3.12586
      C   11    0.34770      0.99963     1.63038    0.02229     2.65230
      O   12   -0.32225      0.99988     3.31667    0.00570     4.32225
      N   13   -0.26172      0.99962     2.74921    0.01290     3.76172
      C   14   -0.08616      0.99956     2.07439    0.01221     3.08616
      C   15   -0.11141      0.99958     2.10111    0.01072     3.11141
      C   16   -0.19387      0.99962     2.18484    0.00941     3.19387
      C   17   -0.19043      0.99965     2.18416    0.00663     3.19043
      C   18   -0.19215      0.99965     2.18575    0.00675     3.19215
      C   19   -0.18882      0.99962     2.18182    0.00738     3.18882
      H   20    0.09826      0.00000     0.40092    0.00082     0.40174
      H   21    0.09241      0.00000     0.40623    0.00136     0.40759
      H   22    0.09942      0.00000     0.39926    0.00132     0.40058
      H   23    0.10154      0.00000     0.39736    0.00110     0.39846
      H   24    0.10123      0.00000     0.39715    0.00163     0.39877
      H   25    0.10393      0.00000     0.39445    0.00162     0.39607
      H   26    0.10020      0.00000     0.39813    0.00167     0.39980
      H   27    0.10831      0.00000     0.38998    0.00171     0.39169
      H   28    0.09714      0.00000     0.40203    0.00083     0.40286
      H   29    0.11059      0.00000     0.38814    0.00127     0.38941
      H   30    0.20151      0.00000     0.29353    0.00496     0.29849
      H   31    0.10660      0.00000     0.39143    0.00198     0.39340
      H   32    0.11530      0.00000     0.38295    0.00176     0.38470
      H   33    0.11156      0.00000     0.38714    0.00130     0.38844
      H   34    0.09927      0.00000     0.39918    0.00155     0.40073
      H   35    0.09466      0.00000     0.40378    0.00156     0.40534
      H   36    0.10145      0.00000     0.39744    0.00111     0.39855
      H   37    0.09643      0.00000     0.40183    0.00174     0.40357
      H   38    0.09642      0.00000     0.40258    0.00100     0.40358
      H   39    0.09520      0.00000     0.40361    0.00120     0.40480
      H   40    0.09640      0.00000     0.40260    0.00101     0.40360
      H   41    0.09364      0.00000     0.40518    0.00119     0.40636
      H   42    0.09889      0.00000     0.39971    0.00140     0.40111
      H   43    0.10472      0.00000     0.39441    0.00087     0.39528
 =======================================================================
   * Total *    0.00000     18.99303    52.76621    0.24076    72.00000

 Normal termination of Gaussian 16 at Sun Dec 13 14:59:28 2020.
