 Gaussian 16, Revision A.03,

 -----------------------------------------------------------
 # opt freq B3LYP/6-31G(d) empiricaldispersion=gd3bj scf=xqc
 -----------------------------------------------------------

 -------------------------------
 CID_66281418_JID_10346_neutraal
 -------------------------------
 Symbolic Z-matrix:
 Charge =  0 Multiplicity = 1

 SCF Done:  E(RB3LYP) =  -893.915765810     A.U. after   15 cycles
 SCF Done:  E(RB3LYP) =  -893.931179671     A.U. after   12 cycles
 SCF Done:  E(RB3LYP) =  -893.932599207     A.U. after   12 cycles
 SCF Done:  E(RB3LYP) =  -893.932931321     A.U. after   11 cycles
 SCF Done:  E(RB3LYP) =  -893.933594899     A.U. after   12 cycles
 SCF Done:  E(RB3LYP) =  -893.934040800     A.U. after   13 cycles
 SCF Done:  E(RB3LYP) =  -893.934775146     A.U. after   11 cycles
 SCF Done:  E(RB3LYP) =  -893.935609512     A.U. after   12 cycles
 SCF Done:  E(RB3LYP) =  -893.935652423     A.U. after   13 cycles
 SCF Done:  E(RB3LYP) =  -893.936236528     A.U. after   12 cycles
 SCF Done:  E(RB3LYP) =  -893.936313704     A.U. after   10 cycles
 SCF Done:  E(RB3LYP) =  -893.936320661     A.U. after    9 cycles
 SCF Done:  E(RB3LYP) =  -893.936322135     A.U. after    8 cycles
 SCF Done:  E(RB3LYP) =  -893.936322594     A.U. after    8 cycles
 SCF Done:  E(RB3LYP) =  -893.936322673     A.U. after    7 cycles
 Optimization completed.
    -- Stationary point found.
 Normal termination of Gaussian 16 at Sun Dec 13 20:48:53 2020.

 --------------------------------------------------------------------
 #N Geom=AllCheck Guess=TCheck SCRF=Check GenChk RB3LYP/6-31G(d) Freq
 --------------------------------------------------------------------

 Structure from the checkpoint file:  "JID_10346.chk"
 -------------------------------
 CID_66281418_JID_10346_neutraal
 -------------------------------
 Charge =  0 Multiplicity = 1

 SCF Done:  E(RB3LYP) =  -893.936322673     A.U. after    1 cycles

  Exact polarizability: 227.222   3.584 180.587  24.376   6.366 124.040
 Approx polarizability: 310.503  18.095 300.373  53.509  26.531 198.199

                      1                      2                      3
                      A                      A                      A
 Frequencies --     21.6604                27.0959                35.2896
 Red. masses --      4.1501                 5.4438                 4.6664
 Frc consts  --      0.0011                 0.0024                 0.0034
 IR Inten    --      0.0295                 0.2756                 0.1603

                      4                      5                      6
                      A                      A                      A
 Frequencies --     75.4190                79.1215                93.4475
 Red. masses --      3.4979                 3.6043                 2.9221
 Frc consts  --      0.0117                 0.0133                 0.0150
 IR Inten    --      0.1189                 0.0713                 0.0860

                      7                      8                      9
                      A                      A                      A
 Frequencies --    135.3711               145.6061               149.8995
 Red. masses --      2.2478                 1.9471                 1.8596
 Frc consts  --      0.0243                 0.0243                 0.0246
 IR Inten    --      1.2045                 0.0679                 0.1251

                     10                     11                     12
                      A                      A                      A
 Frequencies --    156.7997               198.3525               212.5366
 Red. masses --      4.3717                 3.6122                 3.9886
 Frc consts  --      0.0633                 0.0837                 0.1062
 IR Inten    --      0.9568                 0.3448                 2.8602

                     13                     14                     15
                      A                      A                      A
 Frequencies --    232.6719               255.9120               275.6159
 Red. masses --      4.4713                 3.6923                 3.0604
 Frc consts  --      0.1426                 0.1425                 0.1370
 IR Inten    --      1.4580                 0.6811                 1.5260

                     16                     17                     18
                      A                      A                      A
 Frequencies --    301.1071               337.1813               343.0186
 Red. masses --      3.6477                 3.2741                 3.7207
 Frc consts  --      0.1949                 0.2193                 0.2579
 IR Inten    --      3.6539                 4.7684                 6.0196

                     19                     20                     21
                      A                      A                      A
 Frequencies --    372.9233               401.7535               420.0458
 Red. masses --      3.3091                 3.5597                 2.7671
 Frc consts  --      0.2711                 0.3385                 0.2877
 IR Inten    --      6.2687                 0.7861                 4.8506

                     22                     23                     24
                      A                      A                      A
 Frequencies --    474.6740               479.5336               521.0412
 Red. masses --      3.2279                 1.3275                 3.1364
 Frc consts  --      0.4285                 0.1799                 0.5017
 IR Inten    --     26.9383               110.4991                 1.7743

                     25                     26                     27
                      A                      A                      A
 Frequencies --    539.7801               544.2297               578.4752
 Red. masses --      2.7879                 4.1045                 3.1035
 Frc consts  --      0.4786                 0.7163                 0.6119
 IR Inten    --     68.5764                 1.1454                13.9449

                     28                     29                     30
                      A                      A                      A
 Frequencies --    588.6674               632.3426               675.5449
 Red. masses --      2.8539                 3.2361                 6.5395
 Frc consts  --      0.5827                 0.7624                 1.7584
 IR Inten    --     35.6794                38.5263                 3.8677

                     31                     32                     33
                      A                      A                      A
 Frequencies --    684.3424               722.7995               746.2877
 Red. masses --      3.2576                 6.3544                 5.6406
 Frc consts  --      0.8989                 1.9559                 1.8509
 IR Inten    --     18.3938                 3.0151                 1.5119

                     34                     35                     36
                      A                      A                      A
 Frequencies --    757.3186               767.8822               788.7396
 Red. masses --      3.9245                 1.3489                 1.7419
 Frc consts  --      1.3261                 0.4686                 0.6385
 IR Inten    --     10.5804                 2.4409                38.3484

                     37                     38                     39
                      A                      A                      A
 Frequencies --    791.9278               820.8410               831.5148
 Red. masses --      1.0802                 1.7694                 1.2256
 Frc consts  --      0.3991                 0.7024                 0.4993
 IR Inten    --      1.7293                 2.4818                 4.5530

                     40                     41                     42
                      A                      A                      A
 Frequencies --    835.5487               842.1880               877.5927
 Red. masses --      1.6554                 2.3715                 2.6781
 Frc consts  --      0.6809                 0.9910                 1.2152
 IR Inten    --     23.7193                32.4251                 2.4072

                     43                     44                     45
                      A                      A                      A
 Frequencies --    928.8149               941.6267               948.9387
 Red. masses --      3.1922                 2.4543                 3.3127
 Frc consts  --      1.6226                 1.2821                 1.7576
 IR Inten    --     10.3396                 6.7557                17.6159

                     46                     47                     48
                      A                      A                      A
 Frequencies --    961.3717               985.3171              1006.2687
 Red. masses --      3.0176                 1.7982                 2.3473
 Frc consts  --      1.6432                 1.0286                 1.4004
 IR Inten    --     11.3708                14.4993                 5.2043

                     49                     50                     51
                      A                      A                      A
 Frequencies --   1022.5516              1061.3789              1070.3465
 Red. masses --      1.7291                 1.3689                 2.4718
 Frc consts  --      1.0653                 0.9086                 1.6685
 IR Inten    --      9.9692                14.8927                19.1522

                     52                     53                     54
                      A                      A                      A
 Frequencies --   1073.1745              1075.7517              1080.3667
 Red. masses --      1.6303                 1.5699                 2.2443
 Frc consts  --      1.1062                 1.0704                 1.5434
 IR Inten    --     18.1025                 4.3283                 9.0527

                     55                     56                     57
                      A                      A                      A
 Frequencies --   1086.2627              1090.3845              1114.6258
 Red. masses --      1.4910                 1.6885                 3.1679
 Frc consts  --      1.0366                 1.1828                 2.3189
 IR Inten    --      1.7288                 1.9371                 1.9721

                     58                     59                     60
                      A                      A                      A
 Frequencies --   1130.7695              1142.5441              1147.9176
 Red. masses --      2.2824                 1.1026                 1.1165
 Frc consts  --      1.7195                 0.8481                 0.8668
 IR Inten    --      4.6193                 0.0264                 1.4276

                     61                     62                     63
                      A                      A                      A
 Frequencies --   1164.8000              1185.3476              1207.7363
 Red. masses --      2.4793                 3.1426                 1.3989
 Frc consts  --      1.9819                 2.6015                 1.2022
 IR Inten    --      6.8492                29.2610                 0.4198

                     64                     65                     66
                      A                      A                      A
 Frequencies --   1211.6088              1217.0801              1232.4831
 Red. masses --      1.6334                 1.7625                 1.7893
 Frc consts  --      1.4128                 1.5382                 1.6014
 IR Inten    --      2.8732                 3.1956                 0.4058

                     67                     68                     69
                      A                      A                      A
 Frequencies --   1241.7492              1250.8787              1266.0135
 Red. masses --      1.9040                 5.2691                 1.5610
 Frc consts  --      1.7298                 4.8576                 1.4741
 IR Inten    --      2.5869                80.4313                35.4083

                     70                     71                     72
                      A                      A                      A
 Frequencies --   1307.3021              1308.0751              1328.4544
 Red. masses --      1.3050                 2.1992                 1.8052
 Frc consts  --      1.3140                 2.2170                 1.8771
 IR Inten    --      4.1541                38.5618                 4.9605

                     73                     74                     75
                      A                      A                      A
 Frequencies --   1348.8361              1381.4054              1404.3125
 Red. masses --      1.5613                 2.4076                 1.5789
 Frc consts  --      1.6737                 2.7070                 1.8346
 IR Inten    --     28.3883                14.3314                11.9560

                     76                     77                     78
                      A                      A                      A
 Frequencies --   1413.4244              1427.8203              1436.6484
 Red. masses --      2.0646                 1.5623                 2.3682
 Frc consts  --      2.4301                 1.8766                 2.8799
 IR Inten    --     72.7991                 1.3305                27.1600

                     79                     80                     81
                      A                      A                      A
 Frequencies --   1448.3522              1455.1040              1484.6298
 Red. masses --      1.6456                 1.6570                 1.1125
 Frc consts  --      2.0339                 2.0671                 1.4448
 IR Inten    --     13.3660                 5.0512                 1.6345

                     82                     83                     84
                      A                      A                      A
 Frequencies --   1494.6305              1497.2217              1500.4537
 Red. masses --      1.0897                 1.0893                 1.0437
 Frc consts  --      1.4342                 1.4387                 1.3844
 IR Inten    --      0.5576                 1.7123                 7.9534

                     85                     86                     87
                      A                      A                      A
 Frequencies --   1521.5869              1533.5532              1539.5201
 Red. masses --      1.0996                 1.3754                 1.3808
 Frc consts  --      1.5000                 1.9058                 1.9282
 IR Inten    --     12.6631                 0.4019                 6.4344

                     88                     89                     90
                      A                      A                      A
 Frequencies --   1562.1105              1625.9372              1630.7508
 Red. masses --      1.9399                 7.3057                 7.3853
 Frc consts  --      2.7891                11.3794                11.5716
 IR Inten    --    176.4874               224.3641                77.6836

                     91                     92                     93
                      A                      A                      A
 Frequencies --   1707.7252              1847.9049              3027.6873
 Red. masses --      8.8146                10.8721                 1.0826
 Frc consts  --     15.1457                21.8738                 5.8473
 IR Inten    --    764.4985               525.0194                 3.5676

                     94                     95                     96
                      A                      A                      A
 Frequencies --   3064.2988              3082.2363              3105.8482
 Red. masses --      1.0603                 1.0358                 1.1052
 Frc consts  --      5.8662                 5.7978                 6.2812
 IR Inten    --     43.1539                 1.3633                15.0464

                     97                     98                     99
                      A                      A                      A
 Frequencies --   3124.2533              3133.8980              3140.1193
 Red. masses --      1.0869                 1.0864                 1.0542
 Frc consts  --      6.2510                 6.2863                 6.1242
 IR Inten    --     10.7037                40.1728                15.9741

                    100                    101                    102
                      A                      A                      A
 Frequencies --   3142.5713              3147.0167              3149.8825
 Red. masses --      1.0996                 1.0515                 1.0581
 Frc consts  --      6.3981                 6.1355                 6.1855
 IR Inten    --      2.0449                11.8743                 9.8223

                    103                    104                    105
                      A                      A                      A
 Frequencies --   3152.7740              3184.6649              3216.6090
 Red. masses --      1.0588                 1.1051                 1.1185
 Frc consts  --      6.2006                 6.6033                 6.8187
 IR Inten    --     16.6519                 6.8923                 2.8592

                    106                    107                    108
                      A                      A                      A
 Frequencies --   3220.9832              3231.9908              3235.0160
 Red. masses --      1.1192                 1.1162                 1.1159
 Frc consts  --      6.8413                 6.8694                 6.8807
 IR Inten    --      0.5280                24.2838                31.9472

                    109                    110                    111
                      A                      A                      A
 Frequencies --   3257.7262              3607.5574              3691.4643
 Red. masses --      1.0913                 1.0757                 1.0811
 Frc consts  --      6.8238                 8.2481                 8.6801
 IR Inten    --      5.1700                38.2697               103.3660

 - Thermochemistry -
 -------------------
 Temperature   298.150 Kelvin.  Pressure   1.00000 Atm.
 Atom     1 has atomic number  6 and mass  12.00000

 Molecular mass:   273.15896 amu.
 Principal axes and moments of inertia in atomic units:
                           1         2         3
     Eigenvalues --  2944.658709461.42356**********
           X            0.99990  -0.01354  -0.00400
           Y            0.01348   0.99980  -0.01468
           Z            0.00420   0.01463   0.99988
 This molecule is an asymmetric top.
 Rotational symmetry number  1.
 Warning -- assumption of classical behavior for rotation
           may cause significant error
 Rotational temperatures (Kelvin)      0.02941     0.00915     0.00802
 Rotational constants (GHZ):           0.61289     0.19075     0.16707
 Zero-point vibrational energy     859759.5 (Joules/Mol)
                                  205.48746 (Kcal/Mol)
 Warning -- explicit consideration of  28 degrees of freedom as
           vibrations may cause significant error
 Vibrational temperatures:     31.16    38.99    50.77   108.51   113.84
          (Kelvin)            134.45   194.77   209.49   215.67   225.60
                              285.39   305.79   334.76   368.20   396.55
                              433.23   485.13   493.53   536.55   578.03
                              604.35   682.95   689.94   749.66   776.62
                              783.03   832.30   846.96   909.80   971.96
                              984.62  1039.95  1073.74  1089.61  1104.81
                             1134.82  1139.41  1181.01  1196.36  1202.17
                             1211.72  1262.66  1336.36  1354.79  1365.31
                             1383.20  1417.65  1447.80  1471.22  1527.09
                             1539.99  1544.06  1547.77  1554.41  1562.89
                             1568.82  1603.70  1626.93  1643.87  1651.60
                             1675.89  1705.45  1737.66  1743.23  1751.11
                             1773.27  1786.60  1799.74  1821.51  1880.92
                             1882.03  1911.35  1940.67  1987.53  2020.49
                             2033.60  2054.31  2067.02  2083.86  2093.57
                             2136.05  2150.44  2154.17  2158.82  2189.22
                             2206.44  2215.03  2247.53  2339.36  2346.29
                             2457.04  2658.72  4356.17  4408.84  4434.65
                             4468.62  4495.10  4508.98  4517.93  4521.46
                             4527.86  4531.98  4536.14  4582.02  4627.98
                             4634.28  4650.11  4654.47  4687.14  5190.47
                             5311.19

 Zero-point correction=                           0.327465 (Hartree/Particle)
 Thermal correction to Energy=                    0.346015
 Thermal correction to Enthalpy=                  0.346960
 Thermal correction to Gibbs Free Energy=         0.279108
 Sum of electronic and zero-point Energies=           -893.608858
 Sum of electronic and thermal Energies=              -893.590307
 Sum of electronic and thermal Enthalpies=            -893.589363
 Sum of electronic and thermal Free Energies=         -893.657214

                     E (Thermal)             CV                S
                      KCal/Mol        Cal/Mol-Kelvin    Cal/Mol-Kelvin
 Total                  217.128             71.489            142.805
 Electronic               0.000              0.000              0.000
 Translational            0.889              2.981             42.713
 Rotational               0.889              2.981             34.064
 Vibrational            215.351             65.527             66.028
 Vibration     1          0.593              1.985              6.476
 Vibration     2          0.593              1.984              6.031
 Vibration     3          0.594              1.982              5.507
 Vibration     4          0.599              1.965              4.007
 Vibration     5          0.600              1.963              3.913
 Vibration     6          0.602              1.954              3.587
 Vibration     7          0.613              1.918              2.868
 Vibration     8          0.617              1.907              2.729
 Vibration     9          0.618              1.903              2.674
 Vibration    10          0.620              1.895              2.588
 Vibration    11          0.637              1.842              2.148
 Vibration    12          0.644              1.822              2.022
 Vibration    13          0.653              1.791              1.858
 Vibration    14          0.666              1.753              1.689
 Vibration    15          0.677              1.718              1.561
 Vibration    16          0.693              1.672              1.411
 Vibration    17          0.718              1.601              1.225
 Vibration    18          0.722              1.589              1.198
 Vibration    19          0.744              1.528              1.068
 Vibration    20          0.767              1.466              0.956
 Vibration    21          0.783              1.427              0.892
 Vibration    22          0.831              1.306              0.725
 Vibration    23          0.836              1.295              0.711
 Vibration    24          0.876              1.203              0.608
 Vibration    25          0.895              1.162              0.566
 Vibration    26          0.899              1.152              0.556
 Vibration    27          0.935              1.078              0.488
 Vibration    28          0.946              1.056              0.470

 Optimization completed.
    -- Stationary point found.
 Normal termination of Gaussian 16 at Sun Dec 13 21:08:19 2020.

 ----------------------------------------------------------------------
 # B3LYP/6-311++G(d,p) empiricaldispersion=gd3bj scf=xqc pop=npa geom=c
 heck
 ----------------------------------------------------------------------

 ---------------------------------------
 CID_66281418_JID_10346_Energie_neutraal
 ---------------------------------------
 Structure from the checkpoint file:  "JID_10346.chk"
 Charge =  0 Multiplicity = 1

 SCF Done:  E(RB3LYP) =  -894.181049907     A.U. after   16 cycles
 Normal termination of Gaussian 16 at Sun Dec 13 21:16:22 2020.

 ----------------------------------------------------------------------
 # B3LYP/6-311++G(d,p) empiricaldispersion=gd3bj scf=xqc pop=npa geom=c
 heck
 ----------------------------------------------------------------------

 -------------------------------------
 CID_66281418_JID_10346_Energie_kation
 -------------------------------------
 Structure from the checkpoint file:  "JID_10346.chk"
 Charge =  1 Multiplicity = 2

 SCF Done:  E(UB3LYP) =  -893.917641282     A.U. after   22 cycles
 Normal termination of Gaussian 16 at Sun Dec 13 21:31:30 2020.
 Gaussian 16:  ES64L-G16RevA.03 25-Dec-2016

 ----------------------------------------------------------------------
 # B3LYP/6-311++G(d,p) empiricaldispersion=gd3bj scf=xqc pop=npa geom=c
 heck
 ----------------------------------------------------------------------

 ------------------------------------
 CID_66281418_JID_10346_Energie_anion
 ------------------------------------
 Structure from the checkpoint file:  "JID_10346.chk"
 Charge = -1 Multiplicity = 2

                         Standard orientation:
 ---------------------------------------------------------------------
 Center     Atomic      Atomic             Coordinates (Angstroms)
 Number     Number       Type             X           Y           Z
 ---------------------------------------------------------------------
      1          6           0       -3.404190    2.247136    0.062669
      2          6           0       -2.394756    1.171727    0.317571
      3          7           0       -1.236946    1.460615    0.823333
      4          6           0       -0.309226    0.446567    1.047603
      5          6           0       -0.551239   -0.875185    0.738227
      6          6           0       -1.820239   -1.191915    0.193581
      7          7           0       -2.331918   -2.336684   -0.186399
      8          7           0       -3.603643   -1.988747   -0.639024
      9          6           0       -3.923497   -0.665463   -0.561723
     10          8           0       -4.941872   -0.070603   -0.875489
     11          7           0       -2.722903   -0.129998   -0.001380
     12          7           0        0.843575    0.913211    1.617755
     13          6           0        2.088948    0.165821    1.580597
     14          6           0        2.718224    0.045634    0.175701
     15          6           0        3.100920    1.407077   -0.374930
     16          6           0        3.165713    1.641245   -1.861860
     17          6           0        2.075356    2.292195   -1.047841
     18          6           0        3.905000   -0.898403    0.223973
     19          6           0        3.680801   -2.391471    0.214657
     20          6           0        4.289589   -1.708166   -0.986393
     21          1           0       -3.683354    2.276630   -0.994434
     22          1           0       -2.971869    3.200092    0.368793
     23          1           0       -4.327126    2.052302    0.616247
     24          1           0        0.167322   -1.666491    0.898853
     25          1           0       -4.221572   -2.703539   -0.988519
     26          1           0        0.917450    1.920617    1.561822
     27          1           0        2.790504    0.664580    2.258786
     28          1           0        1.913901   -0.832087    1.995951
     29          1           0        1.960622   -0.392264   -0.489774
     30          1           0        3.858040    1.922639    0.217237
     31          1           0        3.964198    2.264657   -2.253321
     32          1           0        2.886982    0.818227   -2.514102
     33          1           0        1.063888    1.910587   -1.154532
     34          1           0        2.126458    3.364654   -0.880512
     35          1           0        4.730896   -0.544130    0.841010
     36          1           0        4.315934   -3.019380    0.832775
     37          1           0        2.657137   -2.748571    0.125151
     38          1           0        3.675388   -1.608400   -1.877049
     39          1           0        5.344603   -1.864882   -1.191462
 ---------------------------------------------------------------------

 SCF Done:  E(UB3LYP) =  -894.178074162     A.U. after   33 cycles
 SCF Done:  E(UB3LYP) =  -894.178074162     a.u. after    1 cycles

 The electronic state is 2-A.
 Alpha  occ. eigenvalues --  -18.98442 -14.26567 -14.26133 -14.21517 -14.21318
 Alpha  occ. eigenvalues --  -14.18212 -10.19267 -10.13289 -10.12431 -10.12199
 Alpha  occ. eigenvalues --  -10.10371 -10.08370 -10.08309 -10.08176 -10.07978
 Alpha  occ. eigenvalues --  -10.07888 -10.07778 -10.07606 -10.06091 -10.04407
 Alpha  occ. eigenvalues --   -0.97570  -0.91124  -0.87184  -0.83449  -0.78055
 Alpha  occ. eigenvalues --   -0.76660  -0.75891  -0.72702  -0.67330  -0.65010
 Alpha  occ. eigenvalues --   -0.61742  -0.57712  -0.55967  -0.52129  -0.51132
 Alpha  occ. eigenvalues --   -0.50678  -0.49350  -0.48241  -0.47268  -0.44662
 Alpha  occ. eigenvalues --   -0.43127  -0.41319  -0.40374  -0.40034  -0.38374
 Alpha  occ. eigenvalues --   -0.37562  -0.36693  -0.35461  -0.34231  -0.33428
 Alpha  occ. eigenvalues --   -0.32462  -0.32308  -0.31500  -0.29866  -0.29422
 Alpha  occ. eigenvalues --   -0.29132  -0.27975  -0.27645  -0.27131  -0.25996
 Alpha  occ. eigenvalues --   -0.24979  -0.24871  -0.23175  -0.21584  -0.21363
 Alpha  occ. eigenvalues --   -0.20272  -0.19417  -0.18548  -0.17802  -0.16690
 Alpha  occ. eigenvalues --   -0.16078  -0.13716  -0.08247   0.04205
 Alpha virt. eigenvalues --    0.05588   0.06947   0.07412   0.07923   0.08590
 Alpha virt. eigenvalues --    0.08998   0.09546   0.09777   0.10551   0.10822
 Alpha virt. eigenvalues --    0.11500   0.11857   0.12032   0.12372   0.12854

  Beta  occ. eigenvalues --  -18.98396 -14.26509 -14.26112 -14.21472 -14.21299
  Beta  occ. eigenvalues --  -14.18189 -10.19219 -10.13308 -10.12287 -10.11672
  Beta  occ. eigenvalues --  -10.10367 -10.08356 -10.08297 -10.08166 -10.07971
  Beta  occ. eigenvalues --  -10.07876 -10.07772 -10.07604 -10.06133 -10.04282
  Beta  occ. eigenvalues --   -0.97447  -0.91039  -0.86871  -0.83272  -0.77994
  Beta  occ. eigenvalues --   -0.76494  -0.75863  -0.72576  -0.67100  -0.64871
  Beta  occ. eigenvalues --   -0.61520  -0.57569  -0.55877  -0.52057  -0.51106
  Beta  occ. eigenvalues --   -0.50650  -0.49317  -0.47963  -0.47214  -0.44530
  Beta  occ. eigenvalues --   -0.43000  -0.41227  -0.40333  -0.39976  -0.37891
  Beta  occ. eigenvalues --   -0.37485  -0.36645  -0.35383  -0.34085  -0.33356
  Beta  occ. eigenvalues --   -0.32264  -0.31822  -0.31241  -0.29774  -0.29350
  Beta  occ. eigenvalues --   -0.28967  -0.27718  -0.27542  -0.27083  -0.25948
  Beta  occ. eigenvalues --   -0.24843  -0.24656  -0.22684  -0.21537  -0.21334
  Beta  occ. eigenvalues --   -0.20249  -0.19259  -0.18536  -0.17006  -0.16631
  Beta  occ. eigenvalues --   -0.16001  -0.13325  -0.07623
  Beta virt. eigenvalues --    0.06507   0.07314   0.07600   0.07958   0.08693
  Beta virt. eigenvalues --    0.09089   0.09228   0.09638   0.09854   0.10703
  Beta virt. eigenvalues --    0.11144   0.11646   0.12038   0.12203   0.12418

 Mulliken charges and spin densities:
               1          2
     1  C   -0.608501  -0.033497
     2  C   -0.232269   0.315926
     3  N   -0.093920  -0.003882
     4  C   -0.473893   0.042190
     5  C   -0.172088   0.174931
     6  C    0.293701  -0.040836
     7  N   -0.204060   0.008361
     8  N   -0.225822   0.023175
     9  C    0.357632   0.028141
    10  O   -0.423969   0.015935
    11  N   -0.158652  -0.001953
    12  N    0.153327   0.025490
    13  C   -0.581488  -0.226102
    14  C    0.745551  -0.623898
    15  C    0.086475   0.031545
    16  C    0.069429  -0.502346
    17  C   -0.474439  -0.084272
    18  C   -0.410996   0.866341
    19  C    0.087153  -0.658574
    20  C    0.337158  -0.806497
    21  H    0.167906   0.018292
    22  H    0.130906   0.002309
    23  H    0.160639   0.024283
    24  H    0.159456  -0.005336
    25  H    0.341709  -0.001212
    26  H    0.242707   0.021878
    27  H    0.020339   0.144189
    28  H    0.202864  -0.024373
    29  H    0.043487   0.113590
    30  H   -0.271010   0.502098
    31  H   -0.144717   0.299025
    32  H    0.132647  -0.023349
    33  H    0.180459  -0.007128
    34  H    0.145066   0.008055
    35  H   -0.544341   0.789630
    36  H    0.016730   0.133450
    37  H    0.125204  -0.001833
    38  H    0.157470  -0.036669
    39  H   -0.337854   0.492922
 Sum of Mulliken charges =  -1.00000   1.00000

 Dipole moment (field-independent basis, Debye):
    X=             -2.4392    Y=             -0.0567    Z=             -0.4272  Tot=              2.4769
 Quadrupole moment (field-independent basis, Debye-Ang):
   XX=           -228.5544   YY=           -147.8326   ZZ=           -139.5411
   XY=              4.2924   XZ=             -2.7423   YZ=              1.0453

 Summary of Natural Population Analysis:

                                       Natural Population
                Natural  -----------------------------------------------
    Atom  No    Charge         Core      Valence    Rydberg      Total
 -----------------------------------------------------------------------
      C    1   -0.31193      0.99965     2.30807    0.00422     3.31193
      C    2    0.33358      0.99963     1.65408    0.01271     2.66642
      N    3   -0.28305      0.99964     2.77393    0.00948     3.78305
      C    4    0.22943      0.99952     1.75761    0.01345     2.77057
      C    5   -0.18381      0.99947     2.17751    0.00682     3.18381
      C    6    0.19670      0.99962     1.78915    0.01453     2.80330
      N    7   -0.19576      0.99968     2.68273    0.01336     3.69576
      N    8   -0.21575      0.99967     2.70503    0.01105     3.71575
      C    9    0.39117      0.99971     1.58717    0.02196     2.60883
      O   10   -0.33630      0.99988     3.33038    0.00604     4.33630
      N   11   -0.24366      0.99957     2.73408    0.01002     3.74366
      N   12   -0.30241      0.99967     2.79207    0.01068     3.80241
      C   13   -0.08172      0.99960     2.07054    0.01158     3.08172
      C   14   -0.12472      0.99955     2.11219    0.01298     3.12472
      C   15   -0.11271      0.99956     2.10071    0.01244     3.11271
      C   16   -0.19700      0.99961     2.18975    0.00764     3.19700
      C   17   -0.20180      0.99962     2.19384    0.00834     3.20180
      C   18   -0.11169      0.99956     2.09940    0.01272     3.11169
      C   19   -0.20037      0.99962     2.19316    0.00760     3.20037
      C   20   -0.19498      0.99961     2.18734    0.00803     3.19498
      H   21    0.11311      0.00000     0.38600    0.00089     0.38689
      H   22    0.10558      0.00000     0.39358    0.00084     0.39442
      H   23    0.11328      0.00000     0.38582    0.00090     0.38672
      H   24    0.10734      0.00000     0.39145    0.00121     0.39266
      H   25    0.19614      0.00000     0.30261    0.00125     0.30386
      H   26    0.19146      0.00000     0.30587    0.00267     0.30854
      H   27    0.09602      0.00000     0.40301    0.00097     0.40398
      H   28    0.09754      0.00000     0.40131    0.00116     0.40246
      H   29    0.10309      0.00000     0.39455    0.00236     0.39691
      H   30    0.10309      0.00000     0.39543    0.00149     0.39691
      H   31    0.10111      0.00000     0.39806    0.00083     0.39889
      H   32    0.09974      0.00000     0.39936    0.00090     0.40026
      H   33    0.10938      0.00000     0.38962    0.00100     0.39062
      H   34    0.09966      0.00000     0.39945    0.00090     0.40034
      H   35    0.10503      0.00000     0.39283    0.00214     0.39497
      H   36    0.10161      0.00000     0.39758    0.00081     0.39839
      H   37    0.10123      0.00000     0.39742    0.00135     0.39877
      H   38    0.09951      0.00000     0.39954    0.00095     0.40049
      H   39    0.10286      0.00000     0.39600    0.00114     0.39714
 =======================================================================
   * Total *    0.00000     19.99243    52.76819    0.23938    73.00000

 Normal termination of Gaussian 16 at Sun Dec 13 21:54:14 2020.
