 Gaussian 16, Revision A.03,

 -----------------------------------------------------------
 # opt freq B3LYP/6-31G(d) empiricaldispersion=gd3bj scf=xqc
 -----------------------------------------------------------

 ------------------------------
 CID_89169542_JID_1826_neutraal
 ------------------------------
 Symbolic Z-matrix:
 Charge =  0 Multiplicity = 1

 SCF Done:  E(RB3LYP) =  -552.591699950     A.U. after   15 cycles
 SCF Done:  E(RB3LYP) =  -552.593507979     A.U. after   13 cycles
 SCF Done:  E(RB3LYP) =  -552.593834735     A.U. after   12 cycles
 SCF Done:  E(RB3LYP) =  -552.594653382     A.U. after   11 cycles
 SCF Done:  E(RB3LYP) =  -552.594685333     A.U. after    9 cycles
 SCF Done:  E(RB3LYP) =  -552.594687343     A.U. after    8 cycles
 Optimization completed.
    -- Stationary point found.
 Normal termination of Gaussian 16 at Sun Dec 13 15:51:52 2020.

 --------------------------------------------------------------------
 #N Geom=AllCheck Guess=TCheck SCRF=Check GenChk RB3LYP/6-31G(d) Freq
 --------------------------------------------------------------------

 Structure from the checkpoint file:  "JID_1826.chk"
 ------------------------------
 CID_89169542_JID_1826_neutraal
 ------------------------------
 Charge =  0 Multiplicity = 1

 SCF Done:  E(RB3LYP) =  -552.594687343     A.U. after    1 cycles

  Exact polarizability: 138.764  -8.899 114.230  -0.001   0.001  40.599
 Approx polarizability: 177.593 -15.399 204.617  -0.001   0.004  59.468

 ******    1 imaginary frequencies (negative Signs) ******

                      1                      2                      3
                      A                      A                      A
 Frequencies --   -165.6404                29.2993                80.3174
 Red. masses --      1.7616                 3.5854                 4.5703
 Frc consts  --      0.0285                 0.0018                 0.0174
 IR Inten    --      0.9835                 1.0733                 1.1362

                      4                      5                      6
                      A                      A                      A
 Frequencies --     86.4458                96.1147               144.7695
 Red. masses --      4.5991                 3.3013                 5.7065
 Frc consts  --      0.0202                 0.0180                 0.0705
 IR Inten    --      0.8071                 0.2177                 4.6237

                      7                      8                      9
                      A                      A                      A
 Frequencies --    147.6843               196.6507               248.9911
 Red. masses --      4.3896                 1.2040                 5.8581
 Frc consts  --      0.0564                 0.0274                 0.2140
 IR Inten    --      0.2486                 0.6753                 0.6878

                     10                     11                     12
                      A                      A                      A
 Frequencies --    285.4994               367.9292               385.2839
 Red. masses --      2.6442                 5.8277                 4.2949
 Frc consts  --      0.1270                 0.4648                 0.3756
 IR Inten    --      2.4105                 2.8641                12.0697

                     13                     14                     15
                      A                      A                      A
 Frequencies --    438.4831               550.7349               583.4806
 Red. masses --      6.9544                 1.7084                 4.6433
 Frc consts  --      0.7878                 0.3053                 0.9314
 IR Inten    --      1.1287                15.6466                56.5682

                     16                     17                     18
                      A                      A                      A
 Frequencies --    617.8467               620.2933               666.5209
 Red. masses --      1.3935                 4.8994                 4.1306
 Frc consts  --      0.3134                 1.1107                 1.0812
 IR Inten    --    112.7106                68.1557                 0.6989

                     19                     20                     21
                      A                      A                      A
 Frequencies --    702.8944               772.9296               786.8979
 Red. masses --      1.4402                 4.9420                 1.9276
 Frc consts  --      0.4192                 1.7395                 0.7032
 IR Inten    --     15.0221                79.6006                 1.5365

                     22                     23                     24
                      A                      A                      A
 Frequencies --    890.6825               904.4566               939.2462
 Red. masses --      2.3100                 4.6738                 3.8954
 Frc consts  --      1.0797                 2.2527                 2.0247
 IR Inten    --      0.3707                 3.9577                 7.1411

                     25                     26                     27
                      A                      A                      A
 Frequencies --    947.1595               968.6132              1038.0588
 Red. masses --      1.1018                 1.6211                 1.1106
 Frc consts  --      0.5824                 0.8961                 0.7051
 IR Inten    --     44.8393                10.2700                35.3317

                     28                     29                     30
                      A                      A                      A
 Frequencies --   1073.7993              1132.5293              1200.2778
 Red. masses --      1.4477                 2.5267                 1.9224
 Frc consts  --      0.9835                 1.9094                 1.6318
 IR Inten    --      0.1421                27.2404               385.1471

                     31                     32                     33
                      A                      A                      A
 Frequencies --   1248.3873              1284.0336              1317.1472
 Red. masses --      2.7803                 1.2805                 1.3798
 Frc consts  --      2.5529                 1.2439                 1.4104
 IR Inten    --     48.0414                 1.8493                 6.1373

                     34                     35                     36
                      A                      A                      A
 Frequencies --   1341.8795              1374.4230              1392.7187
 Red. masses --      1.4093                 1.3460                 2.6933
 Frc consts  --      1.4952                 1.4981                 3.0779
 IR Inten    --     25.7438                19.0603               370.7245

                     37                     38                     39
                      A                      A                      A
 Frequencies --   1414.3530              1447.7475              1499.2387
 Red. masses --      2.5982                 1.2386                 1.6872
 Frc consts  --      3.0623                 1.5295                 2.2343
 IR Inten    --      6.9735                 1.4644                31.6655

                     40                     41                     42
                      A                      A                      A
 Frequencies --   1506.9523              1532.7519              1701.3786
 Red. masses --      1.0444                 1.1533                 7.4822
 Frc consts  --      1.3974                 1.5964                12.7610
 IR Inten    --      5.8299                 2.4410                51.1224

                     43                     44                     45
                      A                      A                      A
 Frequencies --   1740.4827              1762.3409              1825.0689
 Red. masses --      6.6602                 4.8417                 9.1340
 Frc consts  --     11.8870                 8.8600                17.9254
 IR Inten    --    131.9344               291.3713               291.1030

                     46                     47                     48
                      A                      A                      A
 Frequencies --   3032.1764              3077.7203              3114.4164
 Red. masses --      1.0371                 1.1008                 1.0995
 Frc consts  --      5.6178                 6.1433                 6.2837
 IR Inten    --     44.8218                25.2115                14.5728

                     49                     50                     51
                      A                      A                      A
 Frequencies --   3149.8323              3223.1010              3268.5392
 Red. masses --      1.0897                 1.0896                 1.0916
 Frc consts  --      6.3697                 6.6692                 6.8713
 IR Inten    --     25.3497                 0.3216                 2.6487

                     52                     53                     54
                      A                      A                      A
 Frequencies --   3308.8981              3566.1933              3703.2873
 Red. masses --      1.0856                 1.0747                 1.0643
 Frc consts  --      7.0032                 8.0532                 8.6000
 IR Inten    --     10.2005                26.4014                80.2096

 - Thermochemistry -
 -------------------
 Temperature   298.150 Kelvin.  Pressure   1.00000 Atm.
 Atom     1 has atomic number  6 and mass  12.00000

 Molecular mass:   155.05824 amu.
 Principal axes and moments of inertia in atomic units:
                           1         2         3
     Eigenvalues --  1271.436713366.624144626.88386
           X            0.99920  -0.04008  -0.00000
           Y            0.04008   0.99920  -0.00000
           Z            0.00000   0.00000   1.00000
 This molecule is an asymmetric top.
 Rotational symmetry number  1.
 Warning -- assumption of classical behavior for rotation
           may cause significant error
 Rotational temperatures (Kelvin)      0.06812     0.02573     0.01872
 Rotational constants (GHZ):           1.41945     0.53607     0.39006
    1 imaginary frequencies ignored.
 Zero-point vibrational energy     411138.3 (Joules/Mol)
                                   98.26442 (Kcal/Mol)
 Warning -- explicit consideration of  16 degrees of freedom as
           vibrations may cause significant error
 Vibrational temperatures:     42.16   115.56   124.38   138.29   208.29
          (Kelvin)            212.48   282.94   358.24   410.77   529.37
                              554.34   630.88   792.38   839.50   888.94
                              892.46   958.97  1011.31  1112.07  1132.17
                             1281.49  1301.31  1351.37  1362.75  1393.62
                             1493.54  1544.96  1629.46  1726.93  1796.15
                             1847.44  1895.08  1930.67  1977.49  2003.81
                             2034.94  2082.99  2157.07  2168.17  2205.29
                             2447.90  2504.17  2535.62  2625.87  4362.63
                             4428.15  4480.95  4531.91  4637.32  4702.70
                             4760.77  5130.96  5328.20

 Zero-point correction=                           0.156594 (Hartree/Particle)
 Thermal correction to Energy=                    0.167815
 Thermal correction to Enthalpy=                  0.168759
 Thermal correction to Gibbs Free Energy=         0.117799
 Sum of electronic and zero-point Energies=           -552.438093
 Sum of electronic and thermal Energies=              -552.426873
 Sum of electronic and thermal Enthalpies=            -552.425928
 Sum of electronic and thermal Free Energies=         -552.476889

                     E (Thermal)             CV                S
                      KCal/Mol        Cal/Mol-Kelvin    Cal/Mol-Kelvin
 Total                  105.305             39.400            107.255
 Electronic               0.000              0.000              0.000
 Translational            0.889              2.981             41.025
 Rotational               0.889              2.981             31.360
 Vibrational            103.528             33.438             34.869
 Vibration     1          0.593              1.984              5.876
 Vibration     2          0.600              1.963              3.883
 Vibration     3          0.601              1.959              3.739
 Vibration     4          0.603              1.952              3.532
 Vibration     5          0.616              1.908              2.740
 Vibration     6          0.617              1.905              2.702
 Vibration     7          0.636              1.845              2.164
 Vibration     8          0.662              1.764              1.738
 Vibration     9          0.683              1.701              1.500
 Vibration    10          0.741              1.538              1.088
 Vibration    11          0.754              1.502              1.018
 Vibration    12          0.799              1.386              0.831
 Vibration    13          0.906              1.138              0.543
 Vibration    14          0.940              1.067              0.479
 Vibration    15          0.978              0.994              0.420
 Vibration    16          0.980              0.989              0.416

                           ! Non-Optimized Parameters !
 Normal termination of Gaussian 16 at Sun Dec 13 15:54:49 2020.

 ----------------------------------------------------------------------
 # B3LYP/6-311++G(d,p) empiricaldispersion=gd3bj scf=xqc pop=npa geom=c
 heck
 ----------------------------------------------------------------------

 --------------------------------------
 CID_89169542_JID_1826_Energie_neutraal
 --------------------------------------
 Structure from the checkpoint file:  "JID_1826.chk"
 Charge =  0 Multiplicity = 1

 SCF Done:  E(RB3LYP) =  -552.771506963     A.U. after   15 cycles
 Normal termination of Gaussian 16 at Sun Dec 13 15:55:54 2020.

 ----------------------------------------------------------------------
 # B3LYP/6-311++G(d,p) empiricaldispersion=gd3bj scf=xqc pop=npa geom=c
 heck
 ----------------------------------------------------------------------

 ------------------------------------
 CID_89169542_JID_1826_Energie_kation
 ------------------------------------
 Structure from the checkpoint file:  "JID_1826.chk"
 Charge =  1 Multiplicity = 2

 SCF Done:  E(UB3LYP) =  -552.459270583     A.U. after   22 cycles
 Normal termination of Gaussian 16 at Sun Dec 13 15:57:56 2020.
 Gaussian 16:  ES64L-G16RevA.03 25-Dec-2016

 ----------------------------------------------------------------------
 # B3LYP/6-311++G(d,p) empiricaldispersion=gd3bj scf=xqc pop=npa geom=c
 heck
 ----------------------------------------------------------------------

 -----------------------------------
 CID_89169542_JID_1826_Energie_anion
 -----------------------------------
 Structure from the checkpoint file:  "JID_1826.chk"
 Charge = -1 Multiplicity = 2

                         Standard orientation:
 ---------------------------------------------------------------------
 Center     Atomic      Atomic             Coordinates (Angstroms)
 Number     Number       Type             X           Y           Z
 ---------------------------------------------------------------------
      1          6           0        3.810238   -1.940309    0.000044
      2          6           0        3.304210   -0.529206   -0.000027
      3          6           0        2.005435   -0.205409    0.000030
      4          7           0        1.540597    1.111681   -0.000032
      5          6           0        0.287672    1.686711    0.000005
      6          8           0        0.202023    2.913662   -0.000056
      7          6           0       -0.990032    0.912977    0.000063
      8          6           0       -1.264034   -0.398987   -0.000007
      9          6           0       -2.645938   -0.933049    0.000081
     10          8           0       -2.899100   -2.120767   -0.000138
     11          8           0       -3.606120    0.022545    0.000067
     12          1           0        2.985856   -2.661526    0.000149
     13          1           0        4.433559   -2.142914    0.881152
     14          1           0        4.433449   -2.143044   -0.881112
     15          1           0        4.049925    0.266619   -0.000133
     16          1           0        1.251330   -0.976580    0.000138
     17          1           0        2.253686    1.834173   -0.000107
     18          1           0       -1.826248    1.604892    0.000168
     19          1           0       -0.528663   -1.190009   -0.000137
     20          1           0       -4.456805   -0.453270   -0.000010
 ---------------------------------------------------------------------

 SCF Done:  E(UB3LYP) =  -552.807085947     A.U. after   22 cycles

 The electronic state is 2-A.
 Alpha  occ. eigenvalues --  -19.01693 -18.94096 -18.92182 -14.20881 -10.12742
 Alpha  occ. eigenvalues --  -10.10747 -10.08981 -10.07047 -10.04783 -10.00420
 Alpha  occ. eigenvalues --  -10.00189  -0.95237  -0.88349  -0.85794  -0.79395
 Alpha  occ. eigenvalues --   -0.67226  -0.62951  -0.58104  -0.51830  -0.47209
 Alpha  occ. eigenvalues --   -0.45138  -0.43526  -0.38369  -0.34345  -0.33340
 Alpha  occ. eigenvalues --   -0.31655  -0.30776  -0.30523  -0.29667  -0.29165
 Alpha  occ. eigenvalues --   -0.28002  -0.26032  -0.25841  -0.24111  -0.20654
 Alpha  occ. eigenvalues --   -0.19769  -0.17784  -0.12770  -0.12690  -0.10323
 Alpha  occ. eigenvalues --   -0.09425   0.03193
 Alpha virt. eigenvalues --    0.07452   0.09636   0.09956   0.10756   0.12016
 Alpha virt. eigenvalues --    0.12276   0.13196   0.13826   0.14778   0.15794
 Alpha virt. eigenvalues --    0.16696   0.17551   0.17966   0.18576   0.18783

  Beta  occ. eigenvalues --  -19.01650 -18.93750 -18.91736 -14.20876 -10.12571
  Beta  occ. eigenvalues --  -10.10589 -10.08984 -10.07052 -10.04719 -10.00143
  Beta  occ. eigenvalues --   -9.99827  -0.94993  -0.87738  -0.85302  -0.79155
  Beta  occ. eigenvalues --   -0.67125  -0.62076  -0.58026  -0.50926  -0.47080
  Beta  occ. eigenvalues --   -0.44890  -0.43079  -0.38270  -0.33849  -0.33148
  Beta  occ. eigenvalues --   -0.31579  -0.30659  -0.30235  -0.29082  -0.28531
  Beta  occ. eigenvalues --   -0.27067  -0.25787  -0.25604  -0.23803  -0.20351
  Beta  occ. eigenvalues --   -0.18533  -0.16547  -0.12389  -0.10016  -0.09852
  Beta  occ. eigenvalues --   -0.08645
  Beta virt. eigenvalues --    0.07444   0.09636   0.09963   0.10042   0.10796
  Beta virt. eigenvalues --    0.12001   0.12955   0.13200   0.13814   0.14771
  Beta virt. eigenvalues --    0.15793   0.16796   0.17970   0.18240   0.18598

 Mulliken charges and spin densities:
               1          2
     1  C   -0.663766  -0.003959
     2  C   -0.524482   0.035194
     3  C    0.313960  -0.001815
     4  N   -0.112899   0.001885
     5  C   -0.155480   0.153575
     6  O   -0.434365   0.144450
     7  C   -0.270014   0.247096
     8  C    0.096326   0.168523
     9  C   -0.000716   0.178247
    10  O   -0.405655   0.110273
    11  O   -0.231197   0.010910
    12  H    0.136774   0.000305
    13  H    0.116434   0.002402
    14  H    0.116429   0.002400
    15  H    0.090650  -0.003210
    16  H    0.013303  -0.000337
    17  H    0.292628  -0.001789
    18  H    0.219999  -0.021929
    19  H    0.156592  -0.022052
    20  H    0.245477  -0.000168
 Sum of Mulliken charges =  -1.00000   1.00000

 Dipole moment (field-independent basis, Debye):
    X=              4.3378    Y=             -2.1150    Z=              0.0002  Tot=              4.8259
 Quadrupole moment (field-independent basis, Debye-Ang):
   XX=            -84.0988   YY=           -100.8322   ZZ=            -72.4216
   XY=             -6.8938   XZ=             -0.0009   YZ=             -0.0005

 Summary of Natural Population Analysis:

                                       Natural Population
                Natural  -----------------------------------------------
    Atom  No    Charge         Core      Valence    Rydberg      Total
 -----------------------------------------------------------------------
      C    1   -0.29277      0.99967     2.28862    0.00448     3.29277
      C    2   -0.13713      0.99957     2.12874    0.00883     3.13713
      C    3    0.01512      0.99948     1.97430    0.01110     2.98488
      N    4   -0.30729      0.99965     2.79911    0.00852     3.80729
      C    5    0.34009      0.99966     1.63920    0.02105     2.65991
      O    6   -0.28367      0.99988     3.27667    0.00711     4.28367
      C    7   -0.04478      0.99951     2.03539    0.00987     3.04478
      C    8   -0.10071      0.99948     2.09177    0.00946     3.10071
      C    9    0.40522      0.99970     1.57073    0.02434     2.59478
      O   10   -0.30032      0.99987     3.29360    0.00685     4.30032
      O   11   -0.35499      0.99988     3.34686    0.00826     4.35499
      H   12    0.09909      0.00000     0.39998    0.00093     0.40091
      H   13    0.09233      0.00000     0.40640    0.00127     0.40767
      H   14    0.09233      0.00000     0.40640    0.00127     0.40767
      H   15    0.08307      0.00000     0.41568    0.00125     0.41693
      H   16    0.09642      0.00000     0.40217    0.00141     0.40358
      H   17    0.18538      0.00000     0.31134    0.00328     0.31462
      H   18    0.10132      0.00000     0.39728    0.00140     0.39868
      H   19    0.08436      0.00000     0.41443    0.00121     0.41564
      H   20    0.22693      0.00000     0.26810    0.00497     0.27307
 =======================================================================
   * Total *    0.00000     10.99636    29.86676    0.13688    41.00000

 Normal termination of Gaussian 16 at Sun Dec 13 16:00:00 2020.
