 Gaussian 16, Revision A.03,

 -----------------------------------------------------------
 # opt freq B3LYP/6-31G(d) empiricaldispersion=gd3bj scf=xqc
 -----------------------------------------------------------

 -------------------------------
 CID_103605457_JID_1097_neutraal
 -------------------------------
 Symbolic Z-matrix:
 Charge =  0 Multiplicity = 1

 SCF Done:  E(RB3LYP) =  -856.855941492     A.U. after   14 cycles
 SCF Done:  E(RB3LYP) =  -856.858573303     A.U. after   12 cycles
 SCF Done:  E(RB3LYP) =  -856.858962905     A.U. after   11 cycles
 SCF Done:  E(RB3LYP) =  -856.858664926     A.U. after   12 cycles
 SCF Done:  E(RB3LYP) =  -856.859088907     A.U. after   11 cycles
 SCF Done:  E(RB3LYP) =  -856.859125696     A.U. after   11 cycles
 SCF Done:  E(RB3LYP) =  -856.859143029     A.U. after   11 cycles
 SCF Done:  E(RB3LYP) =  -856.859151582     A.U. after   10 cycles
 SCF Done:  E(RB3LYP) =  -856.859156933     A.U. after   10 cycles
 SCF Done:  E(RB3LYP) =  -856.859161357     A.U. after   10 cycles
 SCF Done:  E(RB3LYP) =  -856.859162932     A.U. after    9 cycles
 SCF Done:  E(RB3LYP) =  -856.859163435     A.U. after    8 cycles
 SCF Done:  E(RB3LYP) =  -856.859163516     A.U. after    7 cycles
 SCF Done:  E(RB3LYP) =  -856.859163506     A.U. after    7 cycles
 Optimization completed.
    -- Stationary point found.
 Normal termination of Gaussian 16 at Tue Dec  8 19:13:48 2020.

 --------------------------------------------------------------------
 #N Geom=AllCheck Guess=TCheck SCRF=Check GenChk RB3LYP/6-31G(d) Freq
 --------------------------------------------------------------------

 Structure from the checkpoint file:  "JID_1097.chk"
 -------------------------------
 CID_103605457_JID_1097_neutraal
 -------------------------------
 Charge =  0 Multiplicity = 1

 SCF Done:  E(RB3LYP) =  -856.859163506     A.U. after    1 cycles

  Exact polarizability: 120.385   1.632 102.211   7.112   1.336  81.101
 Approx polarizability: 161.111  -2.741 169.411  12.659   3.999 122.764

                      1                      2                      3
                      A                      A                      A
 Frequencies --     20.5507                42.0947                73.7799
 Red. masses --      5.4616                 5.3840                 3.9805
 Frc consts  --      0.0014                 0.0056                 0.0128
 IR Inten    --      1.5878                 4.0753                 3.1777

                      4                      5                      6
                      A                      A                      A
 Frequencies --     89.0807               139.6245               163.7135
 Red. masses --      3.1022                 2.7627                 1.1697
 Frc consts  --      0.0145                 0.0317                 0.0185
 IR Inten    --      2.9595                 1.5271                 1.1316

                      7                      8                      9
                      A                      A                      A
 Frequencies --    200.0102               237.4574               247.8547
 Red. masses --      3.3246                 3.7865                 3.7738
 Frc consts  --      0.0784                 0.1258                 0.1366
 IR Inten    --      2.7031                 4.4247                 1.6833

                     10                     11                     12
                      A                      A                      A
 Frequencies --    283.8807               318.7426               392.2371
 Red. masses --      2.3440                 2.0948                 3.7359
 Frc consts  --      0.1113                 0.1254                 0.3386
 IR Inten    --      1.3472                 3.6592                 6.1645

                     13                     14                     15
                      A                      A                      A
 Frequencies --    553.2489               635.0332               642.9257
 Red. masses --      3.3498                 6.8187                 3.8879
 Frc consts  --      0.6041                 1.6201                 0.9469
 IR Inten    --      0.2659                 0.3016                 3.7893

                     16                     17                     18
                      A                      A                      A
 Frequencies --    658.2987               701.3616               715.0942
 Red. masses --      4.2613                 3.1820                 5.8132
 Frc consts  --      1.0880                 0.9222                 1.7514
 IR Inten    --      4.1824                21.7467                 2.8016

                     19                     20                     21
                      A                      A                      A
 Frequencies --    801.5291               816.3134               855.0707
 Red. masses --      1.9382                 1.1747                 1.3906
 Frc consts  --      0.7336                 0.4612                 0.5991
 IR Inten    --     15.0113                28.8740                74.0328

                     22                     23                     24
                      A                      A                      A
 Frequencies --    903.7064               906.2765               940.3807
 Red. masses --      6.5227                 1.3646                 1.8649
 Frc consts  --      3.1386                 0.6603                 0.9716
 IR Inten    --     15.4232                 4.3140                12.6500

                     25                     26                     27
                      A                      A                      A
 Frequencies --    942.5515               985.9588              1002.1553
 Red. masses --      6.5032                 1.3105                 1.1927
 Frc consts  --      3.4040                 0.7506                 0.7058
 IR Inten    --     12.6666                 5.1550                 9.1835

                     28                     29                     30
                      A                      A                      A
 Frequencies --   1016.8402              1025.1748              1064.5536
 Red. masses --      4.4275                 2.1297                 1.4551
 Frc consts  --      2.6972                 1.3188                 0.9716
 IR Inten    --      3.4381                11.1592                 3.6337

                     31                     32                     33
                      A                      A                      A
 Frequencies --   1073.5097              1129.7689              1170.5056
 Red. masses --      1.7081                 2.0934                 3.4625
 Frc consts  --      1.1598                 1.5743                 2.7950
 IR Inten    --      8.1629                 6.5795                39.2264

                     34                     35                     36
                      A                      A                      A
 Frequencies --   1209.7681              1225.5655              1238.8101
 Red. masses --      2.0660                 1.3443                 1.2067
 Frc consts  --      1.7815                 1.1897                 1.0911
 IR Inten    --     10.1011                 6.7035                 1.3117

                     37                     38                     39
                      A                      A                      A
 Frequencies --   1258.3477              1324.7775              1339.6341
 Red. masses --      1.9075                 1.3620                 1.1741
 Frc consts  --      1.7795                 1.4083                 1.2414
 IR Inten    --     17.9649                16.1840                12.6677

                     40                     41                     42
                      A                      A                      A
 Frequencies --   1359.7065              1392.7512              1404.6011
 Red. masses --      2.0799                 1.1550                 1.6512
 Frc consts  --      2.2656                 1.3200                 1.9194
 IR Inten    --     33.0616                 1.5889                 1.8204

                     43                     44                     45
                      A                      A                      A
 Frequencies --   1428.0810              1484.5433              1496.6210
 Red. masses --      1.4729                 1.0920                 1.1307
 Frc consts  --      1.7699                 1.4179                 1.4922
 IR Inten    --      4.6281                 3.2659                12.3264

                     46                     47                     48
                      A                      A                      A
 Frequencies --   1500.1407              1516.6459              1524.0452
 Red. masses --      1.0652                 1.3995                 1.0956
 Frc consts  --      1.4123                 1.8967                 1.4993
 IR Inten    --      4.0747                67.7180                15.1773

                     49                     50                     51
                      A                      A                      A
 Frequencies --   1528.9423              1540.9894              1640.2847
 Red. masses --      2.9750                 1.0865                 5.9630
 Frc consts  --      4.0975                 1.5202                 9.4526
 IR Inten    --     19.2892                 3.3731                15.4632

                     52                     53                     54
                      A                      A                      A
 Frequencies --   2993.4581              3044.7509              3053.7556
 Red. masses --      1.0678                 1.0633                 1.0914
 Frc consts  --      5.6377                 5.8080                 5.9966
 IR Inten    --     44.0999                25.5995                23.7995

                     55                     56                     57
                      A                      A                      A
 Frequencies --   3066.4678              3083.1639              3086.9766
 Red. masses --      1.0301                 1.0607                 1.1002
 Frc consts  --      5.7068                 5.9405                 6.1772
 IR Inten    --     25.6247                26.3695                12.7029

                     58                     59                     60
                      A                      A                      A
 Frequencies --   3136.4028              3149.5027              3163.7701
 Red. masses --      1.1076                 1.1065                 1.1059
 Frc consts  --      6.4192                 6.4670                 6.5218
 IR Inten    --     10.6174                 9.3149                 5.0243

                     61                     62                     63
                      A                      A                      A
 Frequencies --   3257.2029              3287.6587              3479.6641
 Red. masses --      1.0944                 1.1007                 1.0728
 Frc consts  --      6.8409                 7.0095                 7.6533
 IR Inten    --      4.8387                 0.2027                 4.6685

 - Thermochemistry -
 -------------------
 Temperature   298.150 Kelvin.  Pressure   1.00000 Atm.
 Atom     1 has atomic number  6 and mass  12.00000

 Molecular mass:   172.06703 amu.
 Principal axes and moments of inertia in atomic units:
                           1         2         3
     Eigenvalues --   862.925274297.829984594.09172
           X            0.99992   0.01081   0.00675
           Y           -0.01063   0.99960  -0.02628
           Z           -0.00704   0.02621   0.99963
 This molecule is an asymmetric top.
 Rotational symmetry number  1.
 Warning -- assumption of classical behavior for rotation
           may cause significant error
 Rotational temperatures (Kelvin)      0.10037     0.02015     0.01885
 Rotational constants (GHZ):           2.09142     0.41992     0.39284
 Zero-point vibrational energy     502230.1 (Joules/Mol)
                                  120.03587 (Kcal/Mol)
 Warning -- explicit consideration of  13 degrees of freedom as
           vibrations may cause significant error
 Vibrational temperatures:     29.57    60.56   106.15   128.17   200.89
          (Kelvin)            235.55   287.77   341.65   356.61   408.44
                              458.60   564.34   796.00   913.67   925.03
                              947.15  1009.10  1028.86  1153.22  1174.49
                             1230.26  1300.23  1303.93  1353.00  1356.12
                             1418.57  1441.88  1463.01  1475.00  1531.66
                             1544.54  1625.49  1684.10  1740.59  1763.32
                             1782.37  1810.48  1906.06  1927.43  1956.31
                             2003.86  2020.91  2054.69  2135.93  2153.30
                             2158.37  2182.12  2192.76  2199.81  2217.14
                             2360.00  4306.92  4380.72  4393.67  4411.96
                             4435.99  4441.47  4512.58  4531.43  4551.96
                             4686.39  4730.21  5006.46

 Zero-point correction=                           0.191289 (Hartree/Particle)
 Thermal correction to Energy=                    0.203020
 Thermal correction to Enthalpy=                  0.203964
 Thermal correction to Gibbs Free Energy=         0.151153
 Sum of electronic and zero-point Energies=           -856.667874
 Sum of electronic and thermal Energies=              -856.656144
 Sum of electronic and thermal Enthalpies=            -856.655200
 Sum of electronic and thermal Free Energies=         -856.708010

                     E (Thermal)             CV                S
                      KCal/Mol        Cal/Mol-Kelvin    Cal/Mol-Kelvin
 Total                  127.397             41.711            111.149
 Electronic               0.000              0.000              0.000
 Translational            0.889              2.981             41.336
 Rotational               0.889              2.981             31.211
 Vibrational            125.619             35.750             38.603
 Vibration     1          0.593              1.986              6.580
 Vibration     2          0.595              1.980              5.158
 Vibration     3          0.599              1.966              4.050
 Vibration     4          0.602              1.957              3.680
 Vibration     5          0.615              1.914              2.809
 Vibration     6          0.623              1.887              2.506
 Vibration     7          0.638              1.840              2.133
 Vibration     8          0.656              1.783              1.822
 Vibration     9          0.661              1.766              1.746
 Vibration    10          0.682              1.704              1.510
 Vibration    11          0.705              1.638              1.317
 Vibration    12          0.760              1.487              0.992
 Vibration    13          0.909              1.133              0.537

 Optimization completed.
    -- Stationary point found.
 Normal termination of Gaussian 16 at Tue Dec  8 19:18:13 2020.

 ----------------------------------------------------------------------
 # B3LYP/6-311++G(d,p) empiricaldispersion=gd3bj scf=xqc pop=npa geom=c
 heck
 ----------------------------------------------------------------------

 ---------------------------------------
 CID_103605457_JID_1097_Energie_neutraal
 ---------------------------------------
 Structure from the checkpoint file:  "JID_1097.chk"
 Charge =  0 Multiplicity = 1

 SCF Done:  E(RB3LYP) =  -857.016453372     A.U. after   14 cycles
 Normal termination of Gaussian 16 at Tue Dec  8 19:20:13 2020.

 ----------------------------------------------------------------------
 # B3LYP/6-311++G(d,p) empiricaldispersion=gd3bj scf=xqc pop=npa geom=c
 heck
 ----------------------------------------------------------------------

 -------------------------------------
 CID_103605457_JID_1097_Energie_kation
 -------------------------------------
 Structure from the checkpoint file:  "JID_1097.chk"
 Charge =  1 Multiplicity = 2

 SCF Done:  E(UB3LYP) =  -856.708612173     A.U. after   22 cycles
 Normal termination of Gaussian 16 at Tue Dec  8 19:24:37 2020.
 Gaussian 16:  ES64L-G16RevA.03 25-Dec-2016

 ----------------------------------------------------------------------
 # B3LYP/6-311++G(d,p) empiricaldispersion=gd3bj scf=xqc pop=npa geom=c
 heck
 ----------------------------------------------------------------------

 ------------------------------------
 CID_103605457_JID_1097_Energie_anion
 ------------------------------------
 Structure from the checkpoint file:  "JID_1097.chk"
 Charge = -1 Multiplicity = 2

                         Standard orientation:
 ---------------------------------------------------------------------
 Center     Atomic      Atomic             Coordinates (Angstroms)
 Number     Number       Type             X           Y           Z
 ---------------------------------------------------------------------
      1          6           0        3.495972   -0.227333    1.287931
      2         16           0        2.768800   -0.995385   -0.207592
      3          6           0        2.312729    0.520698   -1.154957
      4          6           0        0.837844    0.893244   -1.028646
      5          7           0        0.471424    1.120991    0.368055
      6          6           0       -0.933143    1.447384    0.569435
      7          6           0       -1.893598    0.329529    0.260303
      8          6           0       -1.740401   -1.018269    0.108845
      9          6           0       -3.066347   -1.479265   -0.123055
     10          7           0       -3.948307   -0.508016   -0.114949
     11          8           0       -3.196879    0.654411    0.130357
     12          1           0        3.699784   -1.033497    1.997198
     13          1           0        2.803948    0.487482    1.738947
     14          1           0        4.435392    0.276875    1.044734
     15          1           0        2.951092    1.336746   -0.803933
     16          1           0        2.555900    0.325552   -2.203286
     17          1           0        0.665967    1.827316   -1.580534
     18          1           0        0.225524    0.116430   -1.515494
     19          1           0        0.695636    0.276358    0.893348
     20          1           0       -1.074308    1.756341    1.613596
     21          1           0       -1.190327    2.318762   -0.044497
     22          1           0       -0.826732   -1.592495    0.146671
     23          1           0       -3.407815   -2.491748   -0.299015
 ---------------------------------------------------------------------

 SCF Done:  E(UB3LYP) =  -857.001452329     A.U. after   33 cycles
 SCF Done:  E(UB3LYP) =  -857.001452329     a.u. after    1 cycles

 The electronic state is 2-A.
 Alpha  occ. eigenvalues --  -88.73674 -19.10281 -14.25593 -14.20534 -10.13584
 Alpha  occ. eigenvalues --  -10.11282 -10.11063 -10.10113 -10.09952 -10.08172
 Alpha  occ. eigenvalues --  -10.07709  -7.82265  -5.78660  -5.78300  -5.77639
 Alpha  occ. eigenvalues --   -1.03914  -0.82153  -0.77064  -0.70819  -0.68944
 Alpha  occ. eigenvalues --   -0.63841  -0.58939  -0.54071  -0.51555  -0.48372
 Alpha  occ. eigenvalues --   -0.47977  -0.43161  -0.39392  -0.38004  -0.36883
 Alpha  occ. eigenvalues --   -0.35385  -0.34319  -0.32449  -0.31672  -0.31079
 Alpha  occ. eigenvalues --   -0.29250  -0.29010  -0.28437  -0.27408  -0.25059
 Alpha  occ. eigenvalues --   -0.21549  -0.20801  -0.20576  -0.16135  -0.14333
 Alpha  occ. eigenvalues --   -0.12300   0.04890
 Alpha virt. eigenvalues --    0.06680   0.07160   0.07515   0.08184   0.09313
 Alpha virt. eigenvalues --    0.09793   0.10893   0.11146   0.11965   0.12277
 Alpha virt. eigenvalues --    0.13000   0.13179   0.13636   0.13967   0.14637

  Beta  occ. eigenvalues --  -88.73667 -19.10193 -14.25495 -14.20517 -10.13462
  Beta  occ. eigenvalues --  -10.11273 -10.11050 -10.10104 -10.09935 -10.08095
  Beta  occ. eigenvalues --  -10.07724  -7.82258  -5.78649  -5.78285  -5.77635
  Beta  occ. eigenvalues --   -1.03756  -0.82116  -0.76931  -0.70734  -0.68848
  Beta  occ. eigenvalues --   -0.63778  -0.58853  -0.53989  -0.51490  -0.48258
  Beta  occ. eigenvalues --   -0.47883  -0.43101  -0.39254  -0.37894  -0.36655
  Beta  occ. eigenvalues --   -0.35317  -0.34206  -0.32385  -0.31607  -0.31006
  Beta  occ. eigenvalues --   -0.29188  -0.28948  -0.28355  -0.27334  -0.24996
  Beta  occ. eigenvalues --   -0.21416  -0.20713  -0.20264  -0.15704  -0.14270
  Beta  occ. eigenvalues --   -0.12266
  Beta virt. eigenvalues --    0.07056   0.07595   0.07833   0.08332   0.08752
  Beta virt. eigenvalues --    0.09775   0.10455   0.11111   0.11671   0.12159
  Beta virt. eigenvalues --    0.12741   0.13110   0.13330   0.13886   0.14193

 Mulliken charges and spin densities:
               1          2
     1  C    1.514295  -2.283725
     2  S   -0.460957   0.777788
     3  C   -0.378195  -0.118187
     4  C    0.375530  -0.667266
     5  N   -0.130272   0.102931
     6  C    0.926979  -1.681648
     7  C   -0.739486   0.792855
     8  C    0.130071  -0.008567
     9  C   -0.063184  -0.076518
    10  N   -0.294586   0.045974
    11  O    0.100203   0.025431
    12  H   -0.517391   0.687222
    13  H   -0.342020   0.542182
    14  H   -0.670715   0.845379
    15  H    0.166627   0.015149
    16  H   -0.193140   0.410332
    17  H   -0.306393   0.453946
    18  H    0.226344  -0.135144
    19  H    0.002001   0.174206
    20  H   -0.432984   0.671318
    21  H    0.085414   0.093684
    22  H   -0.040520   0.198800
    23  H    0.042380   0.133858
 Sum of Mulliken charges =  -1.00000   1.00000

 Dipole moment (field-independent basis, Debye):
    X=             -4.6198    Y=             -1.5448    Z=             -4.9830  Tot=              6.9685
 Quadrupole moment (field-independent basis, Debye-Ang):
   XX=           -162.3601   YY=           -101.4622   ZZ=           -110.7350
   XY=              2.4568   XZ=            -10.8000   YZ=             -0.5102

 Summary of Natural Population Analysis:

                                       Natural Population
                Natural  -----------------------------------------------
    Atom  No    Charge         Core      Valence    Rydberg      Total
 -----------------------------------------------------------------------
      C    1   -0.34597      0.99963     2.33995    0.00639     3.34597
      S    2    0.07314      4.99964     2.90741    0.01980     7.92686
      C    3   -0.25034      0.99959     2.23939    0.01136     3.25034
      C    4   -0.09265      0.99960     2.08145    0.01160     3.09265
      N    5   -0.34119      0.99975     2.82780    0.01363     3.84119
      C    6   -0.10983      0.99958     2.09777    0.01249     3.10983
      C    7    0.19131      0.99949     1.79435    0.01485     2.80869
      C    8   -0.19437      0.99948     2.18539    0.00950     3.19437
      C    9   -0.00554      0.99966     1.99165    0.01423     3.00554
      N   10   -0.07765      0.99971     2.56442    0.01351     3.57765
      O   11   -0.16483      0.99985     3.15605    0.00893     4.16483
      H   12    0.10947      0.00000     0.38798    0.00255     0.39053
      H   13    0.10790      0.00000     0.38865    0.00345     0.39210
      H   14    0.10266      0.00000     0.39385    0.00349     0.39734
      H   15    0.10684      0.00000     0.39164    0.00152     0.39316
      H   16    0.10371      0.00000     0.39515    0.00114     0.39629
      H   17    0.09331      0.00000     0.40528    0.00141     0.40669
      H   18    0.08291      0.00000     0.41528    0.00181     0.41709
      H   19    0.17771      0.00000     0.31746    0.00483     0.32229
      H   20    0.11267      0.00000     0.38488    0.00245     0.38733
      H   21    0.10215      0.00000     0.39648    0.00136     0.39785
      H   22    0.11828      0.00000     0.38013    0.00159     0.38172
      H   23    0.10028      0.00000     0.39881    0.00091     0.39972
 =======================================================================
   * Total *   -0.00000     14.99599    30.84121    0.16280    46.00000

 Normal termination of Gaussian 16 at Tue Dec  8 19:31:15 2020.
