 Gaussian 16, Revision A.03,

 -----------------------------------------------------------
 # opt freq B3LYP/6-31G(d) empiricaldispersion=gd3bj scf=xqc
 -----------------------------------------------------------

 -------------------------------
 CID_63583809_JID_10423_neutraal
 -------------------------------
 Symbolic Z-matrix:
 Charge =  0 Multiplicity = 1

 SCF Done:  E(RB3LYP) =  -952.119627661     A.U. after   15 cycles
 SCF Done:  E(RB3LYP) =  -952.126492646     A.U. after   13 cycles
 SCF Done:  E(RB3LYP) =  -952.127357978     A.U. after   13 cycles
 SCF Done:  E(RB3LYP) =  -952.128235497     A.U. after   13 cycles
 SCF Done:  E(RB3LYP) =  -952.129406560     A.U. after   13 cycles
 SCF Done:  E(RB3LYP) =  -952.132040303     A.U. after   15 cycles
 SCF Done:  E(RB3LYP) =  -952.133814603     A.U. after   13 cycles
 SCF Done:  E(RB3LYP) =  -952.134694444     A.U. after   13 cycles
 SCF Done:  E(RB3LYP) =  -952.134763735     A.U. after   13 cycles
 SCF Done:  E(RB3LYP) =  -952.135506588     A.U. after   13 cycles
 SCF Done:  E(RB3LYP) =  -952.137553323     A.U. after    8 cycles
 SCF Done:  E(RB3LYP) =  -952.137553441     A.U. after    7 cycles
 SCF Done:  E(RB3LYP) =  -952.137553516     A.U. after    7 cycles
 SCF Done:  E(RB3LYP) =  -952.137553554     A.U. after    6 cycles
 SCF Done:  E(RB3LYP) =  -952.137553593     A.U. after    7 cycles
 Optimization completed.
    -- Stationary point found.
 Normal termination of Gaussian 16 at Sun Dec 13 13:24:39 2020.

 --------------------------------------------------------------------
 #N Geom=AllCheck Guess=TCheck SCRF=Check GenChk RB3LYP/6-31G(d) Freq
 --------------------------------------------------------------------

 Structure from the checkpoint file:  "JID_10423.chk"
 -------------------------------
 CID_63583809_JID_10423_neutraal
 -------------------------------
 Charge =  0 Multiplicity = 1

 SCF Done:  E(RB3LYP) =  -952.137553593     A.U. after    1 cycles

  Exact polarizability: 207.972  -2.155 147.337   1.551 -18.006 146.211
 Approx polarizability: 267.746   2.782 223.818   4.742 -37.416 242.869

                      1                      2                      3
                      A                      A                      A
 Frequencies --     24.1927                29.3428                45.6643
 Red. masses --      4.6826                 6.4287                 3.3245
 Frc consts  --      0.0016                 0.0033                 0.0041
 IR Inten    --      0.1905                 1.5270                 2.1152

                      4                      5                      6
                      A                      A                      A
 Frequencies --     48.2434                52.0980                73.4104
 Red. masses --      3.2885                 6.6238                 5.4854
 Frc consts  --      0.0045                 0.0106                 0.0174
 IR Inten    --      1.2620                 2.2055                 2.3148

                      7                      8                      9
                      A                      A                      A
 Frequencies --     90.3531               103.9033               129.9680
 Red. masses --      2.2836                 4.7975                 4.3380
 Frc consts  --      0.0110                 0.0305                 0.0432
 IR Inten    --      0.1519                 1.6843                 5.8827

                     10                     11                     12
                      A                      A                      A
 Frequencies --    133.7066               155.3208               166.7504
 Red. masses --      5.2712                 7.1066                 4.4848
 Frc consts  --      0.0555                 0.1010                 0.0735
 IR Inten    --      3.6259                 2.1375                 1.2368

                     13                     14                     15
                      A                      A                      A
 Frequencies --    193.7063               219.3066               260.7537
 Red. masses --      2.3338                 3.3731                 4.0793
 Frc consts  --      0.0516                 0.0956                 0.1634
 IR Inten    --      2.2173                 0.7250                 1.2100

                     16                     17                     18
                      A                      A                      A
 Frequencies --    283.9685               306.9991               331.2296
 Red. masses --      3.3784                 2.9444                 2.6412
 Frc consts  --      0.1605                 0.1635                 0.1707
 IR Inten    --      6.6197                 3.3354                18.1590

                     19                     20                     21
                      A                      A                      A
 Frequencies --    343.6248               366.3407               382.5796
 Red. masses --      1.6076                 2.5090                 2.5764
 Frc consts  --      0.1118                 0.1984                 0.2222
 IR Inten    --     11.6381                 2.4436                10.4700

                     22                     23                     24
                      A                      A                      A
 Frequencies --    440.1261               464.4235               471.5964
 Red. masses --      5.8904                 1.3389                 1.6381
 Frc consts  --      0.6723                 0.1701                 0.2147
 IR Inten    --     17.1263               181.2666                30.9516

                     25                     26                     27
                      A                      A                      A
 Frequencies --    508.5056               532.1329               563.9045
 Red. masses --      2.6844                 3.0827                 2.4422
 Frc consts  --      0.4090                 0.5143                 0.4576
 IR Inten    --     29.6955                 8.2281                45.8043

                     28                     29                     30
                      A                      A                      A
 Frequencies --    580.8362               602.5090               608.8949
 Red. masses --      2.9934                 2.2827                 2.4478
 Frc consts  --      0.5950                 0.4882                 0.5347
 IR Inten    --      1.5469                52.2201                 8.9256

                     31                     32                     33
                      A                      A                      A
 Frequencies --    624.9184               635.9304               664.4409
 Red. masses --      3.1980                 2.9329                 4.4743
 Frc consts  --      0.7358                 0.6988                 1.1638
 IR Inten    --     48.4422                12.4643                 4.4315

                     34                     35                     36
                      A                      A                      A
 Frequencies --    676.7309               687.6570               751.9202
 Red. masses --      3.0293                 1.6197                 7.0838
 Frc consts  --      0.8174                 0.4513                 2.3597
 IR Inten    --     60.7970                 7.6669                 8.3733

                     37                     38                     39
                      A                      A                      A
 Frequencies --    770.1287               793.0399               805.0481
 Red. masses --      4.0113                 1.1861                 1.2634
 Frc consts  --      1.4017                 0.4395                 0.4824
 IR Inten    --      4.8405                 1.4163                35.1678

                     40                     41                     42
                      A                      A                      A
 Frequencies --    840.3386               864.5881               882.3583
 Red. masses --      2.0530                 1.3530                 2.7610
 Frc consts  --      0.8542                 0.5959                 1.2665
 IR Inten    --      7.1972                 4.0069                 1.3887

                     43                     44                     45
                      A                      A                      A
 Frequencies --    887.2983               912.0158               914.3958
 Red. masses --      3.6078                 2.6291                 1.5842
 Frc consts  --      1.6735                 1.2884                 0.7804
 IR Inten    --      3.1987                 2.2675               257.2298

                     46                     47                     48
                      A                      A                      A
 Frequencies --    945.9486               965.0591               970.2365
 Red. masses --      3.5002                 1.7519                 3.1180
 Frc consts  --      1.8454                 0.9613                 1.7294
 IR Inten    --     17.3741                 0.4657                21.7545

                     49                     50                     51
                      A                      A                      A
 Frequencies --    984.5551               993.6113              1007.1056
 Red. masses --      2.0831                 2.1799                 4.7697
 Frc consts  --      1.1897                 1.2680                 2.8503
 IR Inten    --      1.8234                 5.5583                 7.8146

                     52                     53                     54
                      A                      A                      A
 Frequencies --   1018.4302              1027.5062              1060.4270
 Red. masses --      1.3602                 2.1622                 1.3800
 Frc consts  --      0.8312                 1.3450                 0.9143
 IR Inten    --      2.2547                18.8019                33.4940

                     55                     56                     57
                      A                      A                      A
 Frequencies --   1065.1569              1101.4521              1108.5676
 Red. masses --      2.0310                 1.9417                 2.7792
 Frc consts  --      1.3576                 1.3879                 2.0123
 IR Inten    --      4.8362                 7.6020                 2.8743

                     58                     59                     60
                      A                      A                      A
 Frequencies --   1165.1726              1181.4724              1195.3398
 Red. masses --      2.1986                 2.6494                 2.2691
 Frc consts  --      1.7586                 2.1789                 1.9102
 IR Inten    --     40.1560                 0.7524                28.7242

                     61                     62                     63
                      A                      A                      A
 Frequencies --   1219.5909              1230.9503              1240.9701
 Red. masses --      1.5392                 1.4284                 1.5235
 Frc consts  --      1.3488                 1.2752                 1.3824
 IR Inten    --      3.7839                 4.7194                 3.6943

                     64                     65                     66
                      A                      A                      A
 Frequencies --   1243.0564              1249.3534              1263.7040
 Red. masses --      1.7163                 4.4853                 3.9956
 Frc consts  --      1.5626                 4.1249                 3.7594
 IR Inten    --      6.1247                12.7383                59.6390

                     67                     68                     69
                      A                      A                      A
 Frequencies --   1293.0072              1301.8106              1306.6753
 Red. masses --      1.4978                 1.1510                 1.3502
 Frc consts  --      1.4754                 1.1493                 1.3583
 IR Inten    --      5.7117                 2.3612                 4.4517

                     70                     71                     72
                      A                      A                      A
 Frequencies --   1322.2750              1336.0267              1343.5633
 Red. masses --      1.3906                 1.2542                 1.2028
 Frc consts  --      1.4325                 1.3190                 1.2793
 IR Inten    --      8.9122                 2.2149                16.1528

                     73                     74                     75
                      A                      A                      A
 Frequencies --   1349.2755              1364.1657              1374.6227
 Red. masses --      1.3402                 1.3077                 1.5084
 Frc consts  --      1.4375                 1.4338                 1.6793
 IR Inten    --     13.8667                 6.1809                21.0556

                     76                     77                     78
                      A                      A                      A
 Frequencies --   1383.1037              1390.0667              1398.7747
 Red. masses --      1.9319                 2.3751                 2.1264
 Frc consts  --      2.1774                 2.7040                 2.4512
 IR Inten    --     20.3605               133.7345                57.7481

                     79                     80                     81
                      A                      A                      A
 Frequencies --   1411.2066              1423.9716              1436.3768
 Red. masses --      1.8948                 2.5896                 1.6186
 Frc consts  --      2.2233                 3.0937                 1.9675
 IR Inten    --     12.0738                97.7146                26.8668

                     82                     83                     84
                      A                      A                      A
 Frequencies --   1459.7021              1508.7466              1516.4311
 Red. masses --      1.5183                 1.0908                 1.0813
 Frc consts  --      1.9060                 1.4629                 1.4650
 IR Inten    --     49.7796                 9.2130                 0.8229

                     85                     86                     87
                      A                      A                      A
 Frequencies --   1520.5636              1527.6177              1528.3256
 Red. masses --      1.0827                 1.0880                 1.0934
 Frc consts  --      1.4749                 1.4960                 1.5047
 IR Inten    --      0.3366                 3.5529                 2.5051

                     88                     89                     90
                      A                      A                      A
 Frequencies --   1551.4523              1564.7736              1624.0777
 Red. masses --      1.1107                 7.7234                 1.3284
 Frc consts  --      1.5751                11.1419                 2.0644
 IR Inten    --      3.3856               143.3364               103.8756

                     91                     92                     93
                      A                      A                      A
 Frequencies --   1640.0412              1725.5611              1756.6507
 Red. masses --      6.0191                 1.0654                 8.0078
 Frc consts  --      9.5387                 1.8691                14.5591
 IR Inten    --      1.4438                35.3421               268.7728

                     94                     95                     96
                      A                      A                      A
 Frequencies --   1802.5037              2898.4444              2946.3289
 Red. masses --      8.8349                 1.0812                 1.0740
 Frc consts  --     16.9124                 5.3515                 5.4933
 IR Inten    --    304.8074                68.3545                71.4296

                     97                     98                     99
                      A                      A                      A
 Frequencies --   3029.5583              3049.9788              3055.2859
 Red. masses --      1.0619                 1.0690                 1.0602
 Frc consts  --      5.7421                 5.8590                 5.8312
 IR Inten    --     32.4955                37.1241                25.5551

                    100                    101                    102
                      A                      A                      A
 Frequencies --   3070.2257              3072.2859              3080.2504
 Red. masses --      1.0616                 1.0635                 1.1007
 Frc consts  --      5.8961                 5.9143                 6.1531
 IR Inten    --     32.9519                28.3801                16.8138

                    103                    104                    105
                      A                      A                      A
 Frequencies --   3090.5668              3094.2731              3106.7989
 Red. masses --      1.0950                 1.0931                 1.0985
 Frc consts  --      6.1625                 6.1666                 6.2473
 IR Inten    --      8.9029                16.9992                15.9803

                    106                    107                    108
                      A                      A                      A
 Frequencies --   3118.3637              3127.7187              3271.1660
 Red. masses --      1.1039                 1.1041                 1.0948
 Frc consts  --      6.3244                 6.3638                 6.9025
 IR Inten    --     55.6622                31.1296                 3.6908

                    109                    110                    111
                      A                      A                      A
 Frequencies --   3291.5342              3458.6008              3549.9153
 Red. masses --      1.0987                 1.0454                 1.0982
 Frc consts  --      7.0135                 7.3679                 8.1542
 IR Inten    --      3.4711                 2.1859                 1.7070

                    112                    113                    114
                      A                      A                      A
 Frequencies --   3587.1103              3596.7226              3710.1119
 Red. masses --      1.0458                 1.0772                 1.1047
 Frc consts  --      7.9288                 8.2100                 8.9589
 IR Inten    --     91.0077                51.4582                89.8409

 - Thermochemistry -
 -------------------
 Temperature   298.150 Kelvin.  Pressure   1.00000 Atm.
 Atom     1 has atomic number  6 and mass  12.00000

 Molecular mass:   280.15354 amu.
 Principal axes and moments of inertia in atomic units:
                           1         2         3
     Eigenvalues --  3069.699959704.05148**********
           X            0.99992  -0.00597  -0.01149
           Y            0.00563   0.99956  -0.02904
           Z            0.01166   0.02898   0.99951
 This molecule is an asymmetric top.
 Rotational symmetry number  1.
 Warning -- assumption of classical behavior for rotation
           may cause significant error
 Rotational temperatures (Kelvin)      0.02822     0.00893     0.00834
 Rotational constants (GHZ):           0.58792     0.18598     0.17376
 Zero-point vibrational energy     890198.0 (Joules/Mol)
                                  212.76242 (Kcal/Mol)
 Warning -- explicit consideration of  30 degrees of freedom as
           vibrations may cause significant error
 Vibrational temperatures:     34.81    42.22    65.70    69.41    74.96
          (Kelvin)            105.62   130.00   149.49   186.99   192.37
                              223.47   239.92   278.70   315.53   375.17
                              408.57   441.70   476.57   494.40   527.08
                              550.45   633.24   668.20   678.52   731.63
                              765.62   811.33   835.69   866.88   876.06
                              899.12   914.96   955.98   973.66   989.38
                             1081.85  1108.04  1141.01  1158.28  1209.06
                             1243.95  1269.52  1276.62  1312.19  1315.61
                             1361.01  1388.50  1395.95  1416.56  1429.58
                             1449.00  1465.29  1478.35  1525.72  1532.52
                             1584.74  1594.98  1676.42  1699.88  1719.83
                             1754.72  1771.06  1785.48  1788.48  1797.54
                             1818.19  1860.35  1873.02  1880.01  1902.46
                             1922.24  1933.09  1941.31  1962.73  1977.78
                             1989.98  2000.00  2012.52  2030.41  2048.78
                             2066.63  2100.19  2170.75  2181.81  2187.75
                             2197.90  2198.92  2232.19  2251.36  2336.69
                             2359.65  2482.70  2527.43  2593.40  4170.22
                             4239.11  4358.86  4388.24  4395.87  4417.37
                             4420.33  4431.79  4446.64  4451.97  4469.99
                             4486.63  4500.09  4706.48  4735.78  4976.16
                             5107.54  5161.05  5174.88  5338.02

 Zero-point correction=                           0.339058 (Hartree/Particle)
 Thermal correction to Energy=                    0.358816
 Thermal correction to Enthalpy=                  0.359760
 Thermal correction to Gibbs Free Energy=         0.288603
 Sum of electronic and zero-point Energies=           -951.798495
 Sum of electronic and thermal Energies=              -951.778737
 Sum of electronic and thermal Enthalpies=            -951.777793
 Sum of electronic and thermal Free Energies=         -951.848950

                     E (Thermal)             CV                S
                      KCal/Mol        Cal/Mol-Kelvin    Cal/Mol-Kelvin
 Total                  225.161             74.071            149.763
 Electronic               0.000              0.000              0.000
 Translational            0.889              2.981             42.789
 Rotational               0.889              2.981             34.092
 Vibrational            223.383             68.109             72.883
 Vibration     1          0.593              1.985              6.256
 Vibration     2          0.593              1.984              5.873
 Vibration     3          0.595              1.979              4.997
 Vibration     4          0.595              1.978              4.888
 Vibration     5          0.596              1.977              4.736
 Vibration     6          0.599              1.967              4.060
 Vibration     7          0.602              1.956              3.652
 Vibration     8          0.605              1.946              3.380
 Vibration     9          0.612              1.923              2.947
 Vibration    10          0.613              1.920              2.892
 Vibration    11          0.620              1.897              2.606
 Vibration    12          0.624              1.883              2.472
 Vibration    13          0.635              1.849              2.192
 Vibration    14          0.647              1.812              1.965
 Vibration    15          0.669              1.745              1.657
 Vibration    16          0.682              1.703              1.510
 Vibration    17          0.697              1.660              1.378
 Vibration    18          0.714              1.613              1.254
 Vibration    19          0.722              1.588              1.195
 Vibration    20          0.739              1.541              1.095
 Vibration    21          0.752              1.507              1.029
 Vibration    22          0.800              1.383              0.826
 Vibration    23          0.822              1.329              0.753
 Vibration    24          0.829              1.313              0.733
 Vibration    25          0.864              1.231              0.637
 Vibration    26          0.887              1.179              0.582
 Vibration    27          0.920              1.109              0.516
 Vibration    28          0.938              1.073              0.484
 Vibration    29          0.961              1.026              0.445
 Vibration    30          0.968              1.013              0.435

                           ! Non-Optimized Parameters !
 Normal termination of Gaussian 16 at Sun Dec 13 13:45:07 2020.

 ----------------------------------------------------------------------
 # B3LYP/6-311++G(d,p) empiricaldispersion=gd3bj scf=xqc pop=npa geom=c
 heck
 ----------------------------------------------------------------------

 ---------------------------------------
 CID_63583809_JID_10423_Energie_neutraal
 ---------------------------------------
 Structure from the checkpoint file:  "JID_10423.chk"
 Charge =  0 Multiplicity = 1

 SCF Done:  E(RB3LYP) =  -952.422020353     A.U. after   16 cycles
 Normal termination of Gaussian 16 at Sun Dec 13 13:53:58 2020.

 ----------------------------------------------------------------------
 # B3LYP/6-311++G(d,p) empiricaldispersion=gd3bj scf=xqc pop=npa geom=c
 heck
 ----------------------------------------------------------------------

 -------------------------------------
 CID_63583809_JID_10423_Energie_kation
 -------------------------------------
 Structure from the checkpoint file:  "JID_10423.chk"
 Charge =  1 Multiplicity = 2

 SCF Done:  E(UB3LYP) =  -952.130275492     A.U. after   26 cycles
 Normal termination of Gaussian 16 at Sun Dec 13 14:13:35 2020.
 Gaussian 16:  ES64L-G16RevA.03 25-Dec-2016

 ----------------------------------------------------------------------
 # B3LYP/6-311++G(d,p) empiricaldispersion=gd3bj scf=xqc pop=npa geom=c
 heck
 ----------------------------------------------------------------------

 ------------------------------------
 CID_63583809_JID_10423_Energie_anion
 ------------------------------------
 Structure from the checkpoint file:  "JID_10423.chk"
 Charge = -1 Multiplicity = 2

                         Standard orientation:
 ---------------------------------------------------------------------
 Center     Atomic      Atomic             Coordinates (Angstroms)
 Number     Number       Type             X           Y           Z
 ---------------------------------------------------------------------
      1          6           0       -4.771713   -0.045259    0.961869
      2          6           0       -4.300297    1.260533    1.648145
      3          6           0       -2.971550    1.651444    0.941253
      4          6           0       -2.789533    0.633774   -0.206864
      5          6           0       -3.499438   -0.620497    0.329470
      6          7           0       -1.389532    0.396772   -0.562698
      7          6           0       -0.660010    1.603836   -0.936747
      8          6           0        0.812576    1.349153   -0.903826
      9          6           0        1.867906    1.685025   -1.707511
     10          6           0        3.030273    1.106640   -1.111764
     11          6           0        2.608494    0.438582    0.012611
     12          8           0        1.255485    0.602020    0.139241
     13          6           0        3.162939   -0.491112    1.020934
     14          8           0        2.423356   -1.185337    1.713111
     15          7           0        4.528584   -0.572159    1.144960
     16          7           0        5.484514    0.335004    0.658825
     17          6           0       -1.231582   -0.689497   -1.530036
     18          6           0       -1.018884   -2.077043   -0.908146
     19          8           0       -1.424647   -3.085823   -1.473505
     20          7           0       -0.314346   -2.082897    0.250692
     21          1           0       -5.503500    0.182826    0.176713
     22          1           0       -5.251789   -0.741478    1.656242
     23          1           0       -5.052926    2.051619    1.573381
     24          1           0       -4.123638    1.094192    2.715723
     25          1           0       -2.123306    1.545440    1.627587
     26          1           0       -2.983903    2.687621    0.588510
     27          1           0       -3.353377    0.988956   -1.094418
     28          1           0       -2.860982   -1.081834    1.092005
     29          1           0       -3.697399   -1.374134   -0.437994
     30          1           0       -0.924035    2.000154   -1.935742
     31          1           0       -0.904147    2.387406   -0.212436
     32          1           0        1.820693    2.264789   -2.618483
     33          1           0        4.035528    1.156376   -1.500877
     34          1           0        4.838872   -1.135450    1.927200
     35          1           0        5.663203    0.144834   -0.324946
     36          1           0        5.135817    1.288555    0.743477
     37          1           0       -2.081637   -0.769380   -2.221996
     38          1           0       -0.343291   -0.494738   -2.143233
     39          1           0        0.092805   -1.240850    0.636015
     40          1           0       -0.016164   -2.972303    0.623719
 ---------------------------------------------------------------------

 SCF Done:  E(UB3LYP) =  -952.426539045     A.U. after   33 cycles
 SCF Done:  E(UB3LYP) =  -952.426539045     a.u. after    1 cycles

 The electronic state is 2-A.
 Alpha  occ. eigenvalues --  -19.04593 -18.97679 -18.94463 -14.23276 -14.22988
 Alpha  occ. eigenvalues --  -14.20894 -14.20871 -10.16005 -10.12701 -10.10499
 Alpha  occ. eigenvalues --  -10.10117 -10.09599 -10.09477 -10.08707 -10.07847
 Alpha  occ. eigenvalues --  -10.07759 -10.07396 -10.06793 -10.05064 -10.04347
 Alpha  occ. eigenvalues --   -0.98490  -0.92498  -0.90738  -0.85693  -0.83459
 Alpha  occ. eigenvalues --   -0.78438  -0.73906  -0.68184  -0.67663  -0.66139
 Alpha  occ. eigenvalues --   -0.63146  -0.61804  -0.60004  -0.54972  -0.49901
 Alpha  occ. eigenvalues --   -0.48498  -0.48133  -0.47421  -0.46383  -0.43355
 Alpha  occ. eigenvalues --   -0.42351  -0.41775  -0.40716  -0.40617  -0.39700
 Alpha  occ. eigenvalues --   -0.38316  -0.36544  -0.35962  -0.33780  -0.33259
 Alpha  occ. eigenvalues --   -0.32724  -0.32644  -0.31231  -0.31199  -0.30195
 Alpha  occ. eigenvalues --   -0.29360  -0.29050  -0.27804  -0.27178  -0.26515
 Alpha  occ. eigenvalues --   -0.25235  -0.25103  -0.24932  -0.24115  -0.23993
 Alpha  occ. eigenvalues --   -0.23327  -0.23078  -0.18484  -0.16609  -0.15868
 Alpha  occ. eigenvalues --   -0.15361  -0.13784  -0.12903  -0.12115  -0.10957
 Alpha  occ. eigenvalues --    0.04380
 Alpha virt. eigenvalues --    0.05829   0.07140   0.07530   0.08160   0.08394
 Alpha virt. eigenvalues --    0.09338   0.10145   0.10233   0.10612   0.10814
 Alpha virt. eigenvalues --    0.11277   0.11639   0.11782   0.12556   0.13044

  Beta  occ. eigenvalues --  -19.04314 -18.97678 -18.94192 -14.23263 -14.22921
  Beta  occ. eigenvalues --  -14.20888 -14.20840 -10.16003 -10.12463 -10.10496
  Beta  occ. eigenvalues --  -10.10134 -10.09596 -10.09204 -10.08581 -10.07833
  Beta  occ. eigenvalues --  -10.07751 -10.07396 -10.06793 -10.05158 -10.04127
  Beta  occ. eigenvalues --   -0.98025  -0.92493  -0.90351  -0.85442  -0.83401
  Beta  occ. eigenvalues --   -0.78426  -0.73881  -0.67971  -0.67379  -0.65845
  Beta  occ. eigenvalues --   -0.63105  -0.61767  -0.59796  -0.54776  -0.49505
  Beta  occ. eigenvalues --   -0.48386  -0.48048  -0.47401  -0.46355  -0.43126
  Beta  occ. eigenvalues --   -0.42229  -0.41677  -0.40623  -0.40507  -0.39682
  Beta  occ. eigenvalues --   -0.38159  -0.36432  -0.35813  -0.33359  -0.33145
  Beta  occ. eigenvalues --   -0.32676  -0.32257  -0.31072  -0.30828  -0.30046
  Beta  occ. eigenvalues --   -0.29234  -0.28930  -0.27589  -0.27032  -0.25382
  Beta  occ. eigenvalues --   -0.25150  -0.24978  -0.24869  -0.24090  -0.23864
  Beta  occ. eigenvalues --   -0.23258  -0.23063  -0.18325  -0.16039  -0.15507
  Beta  occ. eigenvalues --   -0.15209  -0.12902  -0.12600  -0.12011  -0.09616
  Beta virt. eigenvalues --    0.06076   0.07089   0.07565   0.08134   0.08493
  Beta virt. eigenvalues --    0.09324   0.09788   0.10116   0.10223   0.10596
  Beta virt. eigenvalues --    0.10809   0.11256   0.11518   0.11788   0.12622

 Mulliken charges and spin densities:
               1          2
     1  C   -0.492889  -0.191284
     2  C    0.121408  -0.529696
     3  C   -0.341608   0.042820
     4  C   -0.297157   0.151904
     5  C   -0.102189   0.024152
     6  N    0.545679   0.016443
     7  C   -0.883262  -0.217936
     8  C    0.719358   0.163061
     9  C   -0.238210  -0.152598
    10  C   -0.234466   0.239419
    11  C   -0.080451   0.183588
    12  O    0.016055   0.046925
    13  C    0.133035  -0.045555
    14  O   -0.426607   0.100414
    15  N   -0.305531   0.039990
    16  N   -0.359072  -0.058911
    17  C   -0.442985  -0.040681
    18  C   -0.048938   0.038073
    19  O   -0.332188  -0.000093
    20  N   -0.433444  -0.007694
    21  H    0.033014   0.103525
    22  H    0.095427   0.060757
    23  H   -0.077221   0.224894
    24  H    0.080912   0.048271
    25  H    0.184096  -0.016307
    26  H    0.029014   0.113203
    27  H    0.086964   0.037573
    28  H    0.166422  -0.002076
    29  H    0.182519   0.007363
    30  H   -0.031466   0.179627
    31  H    0.184717  -0.018064
    32  H   -0.017325   0.155838
    33  H   -0.051268   0.145705
    34  H    0.301946   0.001570
    35  H    0.164647   0.065398
    36  H    0.159991   0.074390
    37  H    0.168438   0.019271
    38  H    0.191651  -0.005249
    39  H    0.328765  -0.009500
    40  H    0.302220   0.011471
 Sum of Mulliken charges =  -1.00000   1.00000

 Dipole moment (field-independent basis, Debye):
    X=             -2.1383    Y=              2.9986    Z=             -0.2520  Tot=              3.6915
 Quadrupole moment (field-independent basis, Debye-Ang):
   XX=           -185.3619   YY=           -153.6536   ZZ=           -143.6187
   XY=              0.5794   XZ=             -6.8415   YZ=             -5.9664

 Summary of Natural Population Analysis:

                                       Natural Population
                Natural  -----------------------------------------------
    Atom  No    Charge         Core      Valence    Rydberg      Total
 -----------------------------------------------------------------------
      C    1   -0.19181      0.99964     2.18338    0.00879     3.19181
      C    2   -0.19343      0.99965     2.18577    0.00801     3.19343
      C    3   -0.20124      0.99962     2.19246    0.00916     3.20124
      C    4    0.00407      0.99958     1.98405    0.01230     2.99593
      C    5   -0.20149      0.99961     2.19451    0.00736     3.20149
      N    6   -0.27851      0.99969     2.76699    0.01184     3.77851
      C    7   -0.10331      0.99957     2.09366    0.01008     3.10331
      C    8    0.19495      0.99948     1.78989    0.01567     2.80505
      C    9   -0.18019      0.99950     2.17240    0.00830     3.18019
      C   10   -0.10209      0.99953     2.09370    0.00886     3.10209
      C   11    0.11279      0.99945     1.87187    0.01590     2.88721
      O   12   -0.21147      0.99984     3.20245    0.00918     4.21147
      C   13    0.33856      0.99961     1.63974    0.02208     2.66144
      O   14   -0.30905      0.99988     3.30305    0.00612     4.30905
      N   15   -0.23144      0.99967     2.71874    0.01303     3.73144
      N   16   -0.32242      0.99978     2.81215    0.01049     3.82242
      C   17   -0.13039      0.99957     2.12059    0.01022     3.13039
      C   18    0.32997      0.99970     1.64697    0.02336     2.67003
      O   19   -0.33639      0.99988     3.33025    0.00626     4.33639
      N   20   -0.39763      0.99969     2.89097    0.00697     3.89763
      H   21    0.09358      0.00000     0.40538    0.00104     0.40642
      H   22    0.09855      0.00000     0.40070    0.00074     0.40145
      H   23    0.09709      0.00000     0.40187    0.00104     0.40291
      H   24    0.09618      0.00000     0.40295    0.00087     0.40382
      H   25    0.10498      0.00000     0.39368    0.00134     0.39502
      H   26    0.09900      0.00000     0.40007    0.00093     0.40100
      H   27    0.07649      0.00000     0.42177    0.00173     0.42351
      H   28    0.10430      0.00000     0.39416    0.00154     0.39570
      H   29    0.10647      0.00000     0.39240    0.00113     0.39353
      H   30    0.08687      0.00000     0.41195    0.00118     0.41313
      H   31    0.10453      0.00000     0.39396    0.00150     0.39547
      H   32    0.10240      0.00000     0.39675    0.00085     0.39760
      H   33    0.09599      0.00000     0.40277    0.00124     0.40401
      H   34    0.18066      0.00000     0.31608    0.00325     0.31934
      H   35    0.16810      0.00000     0.32937    0.00252     0.33190
      H   36    0.17403      0.00000     0.32335    0.00262     0.32597
      H   37    0.09550      0.00000     0.40310    0.00140     0.40450
      H   38    0.11459      0.00000     0.38413    0.00128     0.38541
      H   39    0.21874      0.00000     0.27913    0.00213     0.28126
      H   40    0.19247      0.00000     0.30534    0.00220     0.30753
 =======================================================================
   * Total *   -0.00000     19.99294    54.75252    0.25454    75.00000

 Normal termination of Gaussian 16 at Sun Dec 13 14:38:29 2020.
