 Gaussian 16, Revision A.03,

 -----------------------------------------------------------
 # opt freq B3LYP/6-31G(d) empiricaldispersion=gd3bj scf=xqc
 -----------------------------------------------------------

 ------------------------------
 CID_62575631_JID_5270_neutraal
 ------------------------------
 Symbolic Z-matrix:
 Charge =  0 Multiplicity = 1

 SCF Done:  E(RB3LYP) =  -655.252459637     A.U. after   13 cycles
 SCF Done:  E(RB3LYP) =  -655.257300573     A.U. after   12 cycles
 SCF Done:  E(RB3LYP) =  -655.257642368     A.U. after   12 cycles
 SCF Done:  E(RB3LYP) =  -655.258790140     A.U. after   12 cycles
 SCF Done:  E(RB3LYP) =  -655.259507301     A.U. after   11 cycles
 SCF Done:  E(RB3LYP) =  -655.259749614     A.U. after   11 cycles
 SCF Done:  E(RB3LYP) =  -655.259866325     A.U. after   10 cycles
 SCF Done:  E(RB3LYP) =  -655.259928712     A.U. after   11 cycles
 SCF Done:  E(RB3LYP) =  -655.259968647     A.U. after   11 cycles
 SCF Done:  E(RB3LYP) =  -655.260011470     A.U. after   10 cycles
 SCF Done:  E(RB3LYP) =  -655.260050698     A.U. after    9 cycles
 SCF Done:  E(RB3LYP) =  -655.260051147     A.U. after    9 cycles
 SCF Done:  E(RB3LYP) =  -655.260051366     A.U. after    8 cycles
 SCF Done:  E(RB3LYP) =  -655.260051437     A.U. after    7 cycles
 SCF Done:  E(RB3LYP) =  -655.260051468     A.U. after    6 cycles
 Optimization completed.
    -- Stationary point found.
 Normal termination of Gaussian 16 at Thu Dec 10 15:36:34 2020.

 --------------------------------------------------------------------
 #N Geom=AllCheck Guess=TCheck SCRF=Check GenChk RB3LYP/6-31G(d) Freq
 --------------------------------------------------------------------

 Structure from the checkpoint file:  "JID_5270.chk"
 ------------------------------
 CID_62575631_JID_5270_neutraal
 ------------------------------
 Charge =  0 Multiplicity = 1

 SCF Done:  E(RB3LYP) =  -655.260051468     A.U. after    1 cycles

  Exact polarizability: 134.895   6.782 137.054   3.128   0.218 137.330
 Approx polarizability: 168.333  16.845 208.614   3.278  -4.778 211.740

                      1                      2                      3
                      A                      A                      A
 Frequencies --     15.5988                20.2355                44.7298
 Red. masses --      4.4832                 3.6322                 3.7458
 Frc consts  --      0.0006                 0.0009                 0.0044
 IR Inten    --      0.0271                 0.0429                 0.2645

                      4                      5                      6
                      A                      A                      A
 Frequencies --     86.4660                95.7741               105.4429
 Red. masses --      2.7989                 3.5439                 3.5143
 Frc consts  --      0.0123                 0.0192                 0.0230
 IR Inten    --      0.4565                 0.0147                 0.2517

                      7                      8                      9
                      A                      A                      A
 Frequencies --    131.4390               166.7106               192.8364
 Red. masses --      2.4802                 2.2788                 2.9520
 Frc consts  --      0.0252                 0.0373                 0.0647
 IR Inten    --      0.4044                 2.8510                 1.4343

                     10                     11                     12
                      A                      A                      A
 Frequencies --    219.7145               227.8998               255.4035
 Red. masses --      2.3778                 1.1963                 1.5110
 Frc consts  --      0.0676                 0.0366                 0.0581
 IR Inten    --      0.8621                 0.4873                 0.2951

                     13                     14                     15
                      A                      A                      A
 Frequencies --    268.4238               277.4740               308.9323
 Red. masses --      1.6970                 1.6344                 1.7449
 Frc consts  --      0.0720                 0.0741                 0.0981
 IR Inten    --      0.7936                 0.9808                 0.4429

                     16                     17                     18
                      A                      A                      A
 Frequencies --    322.8299               346.2208               379.1306
 Red. masses --      2.1801                 2.0789                 2.5639
 Frc consts  --      0.1339                 0.1468                 0.2171
 IR Inten    --      0.9438                 1.0800                 2.6991

                     19                     20                     21
                      A                      A                      A
 Frequencies --    396.9531               443.2210               479.4544
 Red. masses --      2.7723                 2.1649                 2.8487
 Frc consts  --      0.2574                 0.2506                 0.3858
 IR Inten    --      0.6223                 4.4407                 8.5509

                     22                     23                     24
                      A                      A                      A
 Frequencies --    526.4552               590.9708               621.6069
 Red. masses --      2.6122                 2.5292                 3.9739
 Frc consts  --      0.4266                 0.5204                 0.9047
 IR Inten    --      1.2309                 4.3451                12.4357

                     25                     26                     27
                      A                      A                      A
 Frequencies --    625.8750               702.4412               709.4580
 Red. masses --      3.5919                 1.8588                 1.9949
 Frc consts  --      0.8290                 0.5404                 0.5916
 IR Inten    --      0.9802                20.3121                 4.6615

                     28                     29                     30
                      A                      A                      A
 Frequencies --    731.5614               781.7589               801.1758
 Red. masses --      1.5938                 1.4525                 2.1621
 Frc consts  --      0.5026                 0.5230                 0.8177
 IR Inten    --     29.5327                36.6087                47.9012

                     31                     32                     33
                      A                      A                      A
 Frequencies --    810.8893               848.4217               861.0245
 Red. masses --      1.2169                 1.3375                 1.7808
 Frc consts  --      0.4715                 0.5672                 0.7779
 IR Inten    --      8.9520                 2.2428                20.1953

                     34                     35                     36
                      A                      A                      A
 Frequencies --    875.2388               895.7626               931.5120
 Red. masses --      2.1662                 5.4647                 1.5225
 Frc consts  --      0.9777                 2.5835                 0.7784
 IR Inten    --     11.2933                28.9121                 4.2628

                     37                     38                     39
                      A                      A                      A
 Frequencies --    934.3897               949.2212               951.0656
 Red. masses --      1.6762                 1.4024                 1.6960
 Frc consts  --      0.8622                 0.7445                 0.9039
 IR Inten    --      2.1902                 1.2382                 6.5881

                     40                     41                     42
                      A                      A                      A
 Frequencies --    980.4689              1006.6064              1067.0384
 Red. masses --      2.2314                 2.9386                 2.0649
 Frc consts  --      1.2639                 1.7543                 1.3852
 IR Inten    --      7.5417                 2.3748                23.2088

                     43                     44                     45
                      A                      A                      A
 Frequencies --   1070.5405              1100.6874              1103.5496
 Red. masses --      2.6118                 1.9125                 2.0942
 Frc consts  --      1.7636                 1.3652                 1.5027
 IR Inten    --     11.0306                 5.2951                20.4120

                     46                     47                     48
                      A                      A                      A
 Frequencies --   1108.5075              1125.5992              1128.6287
 Red. masses --      2.0457                 1.9646                 1.7119
 Frc consts  --      1.4811                 1.4666                 1.2848
 IR Inten    --     26.4399                29.0453                 6.3738

                     49                     50                     51
                      A                      A                      A
 Frequencies --   1143.5302              1146.9376              1193.9497
 Red. masses --      3.5765                 2.2384                 1.8437
 Frc consts  --      2.7555                 1.7348                 1.5485
 IR Inten    --     19.0913                27.2216                 1.1910

                     52                     53                     54
                      A                      A                      A
 Frequencies --   1207.5349              1216.3232              1233.8611
 Red. masses --      3.1713                 1.9954                 1.3485
 Frc consts  --      2.7245                 1.7393                 1.2096
 IR Inten    --     26.5103                26.6272                 2.0259

                     55                     56                     57
                      A                      A                      A
 Frequencies --   1258.2537              1280.4413              1291.6268
 Red. masses --      2.1168                 1.5239                 1.8438
 Frc consts  --      1.9746                 1.4721                 1.8123
 IR Inten    --     18.1400                 1.1454                 4.3467

                     58                     59                     60
                      A                      A                      A
 Frequencies --   1326.2717              1345.7446              1378.2850
 Red. masses --      1.4483                 1.1722                 1.3424
 Frc consts  --      1.5010                 1.2508                 1.5025
 IR Inten    --     14.2695                 3.6359                17.5027

                     61                     62                     63
                      A                      A                      A
 Frequencies --   1379.1676              1382.7601              1406.5195
 Red. masses --      1.2874                 1.3031                 1.2913
 Frc consts  --      1.4428                 1.4679                 1.5051
 IR Inten    --     16.0937                 4.5783                25.5281

                     64                     65                     66
                      A                      A                      A
 Frequencies --   1413.7681              1423.3078              1426.8193
 Red. masses --      1.2632                 1.4523                 1.3007
 Frc consts  --      1.4875                 1.7334                 1.5601
 IR Inten    --      7.1609                 6.3534                 7.5747

                     67                     68                     69
                      A                      A                      A
 Frequencies --   1432.3746              1437.2168              1448.4578
 Red. masses --      2.2355                 1.2527                 1.2290
 Frc consts  --      2.7024                 1.5246                 1.5193
 IR Inten    --      2.9457                 1.5277                 5.0141

                     70                     71                     72
                      A                      A                      A
 Frequencies --   1452.0499              1504.1112              1506.8227
 Red. masses --      1.3577                 1.0786                 1.0945
 Frc consts  --      1.6866                 1.4377                 1.4642
 IR Inten    --     23.0930                 3.0450                 6.1423

                     73                     74                     75
                      A                      A                      A
 Frequencies --   1513.6637              1516.8121              1520.8173
 Red. masses --      1.0471                 1.0590                 1.0526
 Frc consts  --      1.4136                 1.4355                 1.4343
 IR Inten    --      0.3261                 1.9847                 0.5182

                     76                     77                     78
                      A                      A                      A
 Frequencies --   1524.8519              1530.6961              1535.1582
 Red. masses --      1.1619                 1.0566                 1.0706
 Frc consts  --      1.5917                 1.4586                 1.4865
 IR Inten    --     18.0866                 1.0145                 6.7107

                     79                     80                     81
                      A                      A                      A
 Frequencies --   1541.4522              1543.1721              1544.3782
 Red. masses --      1.0618                 1.3942                 2.0637
 Frc consts  --      1.4864                 1.9561                 2.9000
 IR Inten    --      2.1088                11.8382                26.6250

                     82                     83                     84
                      A                      A                      A
 Frequencies --   1554.5044              1635.1569              2963.7250
 Red. masses --      1.0893                 5.4941                 1.0726
 Frc consts  --      1.5508                 8.6550                 5.5508
 IR Inten    --      4.2712                 0.9387                47.7685

                     85                     86                     87
                      A                      A                      A
 Frequencies --   2984.0731              3026.2664              3041.7339
 Red. masses --      1.0666                 1.0725                 1.0861
 Frc consts  --      5.5958                 5.7871                 5.9203
 IR Inten    --     44.5573                17.7708                75.7252

                     88                     89                     90
                      A                      A                      A
 Frequencies --   3046.7365              3048.3557              3050.4110
 Red. masses --      1.0683                 1.0531                 1.0597
 Frc consts  --      5.8427                 5.7655                 5.8094
 IR Inten    --     26.8363                23.0041                60.5871

                     91                     92                     93
                      A                      A                      A
 Frequencies --   3052.5254              3055.3612              3067.2493
 Red. masses --      1.0367                 1.0401                 1.0860
 Frc consts  --      5.6912                 5.7205                 6.0197
 IR Inten    --     17.3895                18.3311                23.3136

                     94                     95                     96
                      A                      A                      A
 Frequencies --   3088.6779              3091.3181              3114.9664
 Red. masses --      1.0992                 1.1057                 1.1005
 Frc consts  --      6.1784                 6.2256                 6.2911
 IR Inten    --     26.9015                23.9586                15.1723

                     97                     98                     99
                      A                      A                      A
 Frequencies --   3118.1621              3119.6105              3124.9304
 Red. masses --      1.1006                 1.0995                 1.1007
 Frc consts  --      6.3050                 6.3046                 6.3330
 IR Inten    --     69.4447                34.2184                35.7486

                    100                    101                    102
                      A                      A                      A
 Frequencies --   3134.2687              3142.8876              3265.1142
 Red. masses --      1.1030                 1.1011                 1.0920
 Frc consts  --      6.3842                 6.4080                 6.8593
 IR Inten    --     13.6577                40.9592                 1.4188

                    103                    104                    105
                      A                      A                      A
 Frequencies --   3287.6544              3302.0128              3538.4307
 Red. masses --      1.0971                 1.1045                 1.0721
 Frc consts  --      6.9869                 7.0956                 7.9087
 IR Inten    --      0.7163                 1.3222                 3.5008

 - Thermochemistry -
 -------------------
 Temperature   298.150 Kelvin.  Pressure   1.00000 Atm.
 Atom     1 has atomic number  6 and mass  12.00000

 Molecular mass:   210.17321 amu.
 Principal axes and moments of inertia in atomic units:
                           1         2         3
     Eigenvalues --  2099.292695294.776665704.92100
           X            0.99971  -0.02245   0.00852
           Y            0.02229   0.99959   0.01774
           Z           -0.00891  -0.01754   0.99981
 This molecule is an asymmetric top.
 Rotational symmetry number  1.
 Warning -- assumption of classical behavior for rotation
           may cause significant error
 Rotational temperatures (Kelvin)      0.04126     0.01636     0.01518
 Rotational constants (GHZ):           0.85969     0.34085     0.31635
 Zero-point vibrational energy     876184.5 (Joules/Mol)
                                  209.41313 (Kcal/Mol)
 Warning -- explicit consideration of  23 degrees of freedom as
           vibrations may cause significant error
 Vibrational temperatures:     22.44    29.11    64.36   124.41   137.80
          (Kelvin)            151.71   189.11   239.86   277.45   316.12
                              327.90   367.47   386.20   399.22   444.48
                              464.48   498.13   545.48   571.13   637.70
                              689.83   757.45   850.28   894.35   900.49
                             1010.66  1020.75  1052.55  1124.78  1152.71
                             1166.69  1220.69  1238.82  1259.27  1288.80
                             1340.24  1344.38  1365.72  1368.37  1410.68
                             1448.28  1535.23  1540.27  1583.64  1587.76
                             1594.90  1619.49  1623.84  1645.28  1650.19
                             1717.83  1737.37  1750.02  1775.25  1810.35
                             1842.27  1858.36  1908.21  1936.23  1983.04
                             1984.31  1989.48  2023.67  2034.10  2047.82
                             2052.87  2060.87  2067.83  2084.01  2089.18
                             2164.08  2167.98  2177.82  2182.35  2188.12
                             2193.92  2202.33  2208.75  2217.81  2220.28
                             2222.02  2236.59  2352.63  4264.14  4293.42
                             4354.12  4376.38  4383.57  4385.90  4388.86
                             4391.90  4395.98  4413.09  4443.92  4447.72
                             4481.74  4486.34  4488.42  4496.08  4509.51
                             4521.91  4697.77  4730.20  4750.86  5091.01

 Zero-point correction=                           0.333721 (Hartree/Particle)
 Thermal correction to Energy=                    0.350250
 Thermal correction to Enthalpy=                  0.351194
 Thermal correction to Gibbs Free Energy=         0.287823
 Sum of electronic and zero-point Energies=           -654.926330
 Sum of electronic and thermal Energies=              -654.909802
 Sum of electronic and thermal Enthalpies=            -654.908858
 Sum of electronic and thermal Free Energies=         -654.972229

                     E (Thermal)             CV                S
                      KCal/Mol        Cal/Mol-Kelvin    Cal/Mol-Kelvin
 Total                  219.785             62.009            133.376
 Electronic               0.000              0.000              0.000
 Translational            0.889              2.981             41.932
 Rotational               0.889              2.981             32.517
 Vibrational            218.008             56.048             58.927
 Vibration     1          0.593              1.986              7.128
 Vibration     2          0.593              1.986              6.611
 Vibration     3          0.595              1.980              5.038
 Vibration     4          0.601              1.959              3.738
 Vibration     5          0.603              1.952              3.539
 Vibration     6          0.605              1.945              3.351
 Vibration     7          0.612              1.922              2.925
 Vibration     8          0.624              1.883              2.472
 Vibration     9          0.635              1.850              2.200
 Vibration    10          0.647              1.811              1.961
 Vibration    11          0.651              1.798              1.895
 Vibration    12          0.666              1.754              1.693
 Vibration    13          0.673              1.731              1.606
 Vibration    14          0.678              1.715              1.549
 Vibration    15          0.698              1.657              1.368
 Vibration    16          0.708              1.630              1.296
 Vibration    17          0.724              1.583              1.183
 Vibration    18          0.749              1.515              1.043
 Vibration    19          0.763              1.477              0.974
 Vibration    20          0.803              1.376              0.817
 Vibration    21          0.836              1.296              0.712
 Vibration    22          0.881              1.191              0.595
 Vibration    23          0.948              1.051              0.465

                           ! Non-Optimized Parameters !
 Normal termination of Gaussian 16 at Thu Dec 10 15:51:18 2020.

 ----------------------------------------------------------------------
 # B3LYP/6-311++G(d,p) empiricaldispersion=gd3bj scf=xqc pop=npa geom=c
 heck
 ----------------------------------------------------------------------

 --------------------------------------
 CID_62575631_JID_5270_Energie_neutraal
 --------------------------------------
 Structure from the checkpoint file:  "JID_5270.chk"
 Charge =  0 Multiplicity = 1

 SCF Done:  E(RB3LYP) =  -655.445652422     A.U. after   14 cycles
 Normal termination of Gaussian 16 at Thu Dec 10 15:58:35 2020.

 ----------------------------------------------------------------------
 # B3LYP/6-311++G(d,p) empiricaldispersion=gd3bj scf=xqc pop=npa geom=c
 heck
 ----------------------------------------------------------------------

 ------------------------------------
 CID_62575631_JID_5270_Energie_kation
 ------------------------------------
 Structure from the checkpoint file:  "JID_5270.chk"
 Charge =  1 Multiplicity = 2

 SCF Done:  E(UB3LYP) =  -655.178877470     A.U. after   22 cycles
 Normal termination of Gaussian 16 at Thu Dec 10 16:14:50 2020.
 Gaussian 16:  ES64L-G16RevA.03 25-Dec-2016

 ----------------------------------------------------------------------
 # B3LYP/6-311++G(d,p) empiricaldispersion=gd3bj scf=xqc pop=npa geom=c
 heck
 ----------------------------------------------------------------------

 -----------------------------------
 CID_62575631_JID_5270_Energie_anion
 -----------------------------------
 Structure from the checkpoint file:  "JID_5270.chk"
 Charge = -1 Multiplicity = 2

                         Standard orientation:
 ---------------------------------------------------------------------
 Center     Atomic      Atomic             Coordinates (Angstroms)
 Number     Number       Type             X           Y           Z
 ---------------------------------------------------------------------
      1          6           0        2.850492   -1.998657   -1.216751
      2          6           0        1.747174   -0.936917   -1.220317
      3          7           0        2.095883    0.286805   -0.507927
      4          6           0        1.504008    1.496515   -1.070316
      5          6           0       -0.029736    1.603830   -1.066559
      6          7           0       -0.557995    1.911739    0.262412
      7          6           0       -2.021942    1.825932    0.358857
      8          6           0       -2.595758    0.440741    0.192092
      9          6           0       -2.852279   -0.456499    1.189008
     10          8           0       -3.295088   -1.643136    0.679280
     11          6           0       -3.323337   -1.500963   -0.677341
     12          6           0       -2.908918   -0.254672   -1.031883
     13          6           0        2.229366    0.234916    0.960973
     14          6           0        1.316923   -0.786920    1.664009
     15          6           0        3.695621    0.032049    1.378259
     16          1           0        3.794202   -1.566872   -1.565293
     17          1           0        2.575819   -2.827236   -1.880263
     18          1           0        3.018139   -2.418930   -0.220815
     19          1           0        1.560813   -0.648360   -2.261371
     20          1           0        0.805443   -1.390814   -0.864215
     21          1           0        1.917742    2.363260   -0.542103
     22          1           0        1.837905    1.573026   -2.114055
     23          1           0       -0.325499    2.423290   -1.737262
     24          1           0       -0.447458    0.677370   -1.496110
     25          1           0       -0.171047    1.248656    0.928087
     26          1           0       -2.312504    2.222982    1.338548
     27          1           0       -2.445519    2.501575   -0.393927
     28          1           0       -2.784301   -0.404845    2.265406
     29          1           0       -3.660587   -2.363717   -1.230899
     30          1           0       -2.841951    0.141931   -2.035361
     31          1           0        1.941435    1.228680    1.324142
     32          1           0        1.605375   -1.816723    1.429634
     33          1           0        1.393437   -0.665869    2.750186
     34          1           0        0.264021   -0.672033    1.383095
     35          1           0        4.328372    0.782027    0.894135
     36          1           0        3.808440    0.128049    2.465466
     37          1           0        4.063536   -0.956310    1.087155
 ---------------------------------------------------------------------

 SCF Done:  E(UB3LYP) =  -655.430107931     A.U. after   33 cycles
 SCF Done:  E(UB3LYP) =  -655.430107932     a.u. after    1 cycles

 The electronic state is 2-A.
 Alpha  occ. eigenvalues --  -19.09810 -14.20283 -14.19943 -10.12849 -10.12595
 Alpha  occ. eigenvalues --  -10.10777 -10.10754 -10.09558 -10.09349 -10.08944
 Alpha  occ. eigenvalues --  -10.08401 -10.07806 -10.06501 -10.06239 -10.06209
 Alpha  occ. eigenvalues --   -1.02037  -0.82937  -0.80678  -0.71498  -0.68538
 Alpha  occ. eigenvalues --   -0.66440  -0.65480  -0.61680  -0.59387  -0.57033
 Alpha  occ. eigenvalues --   -0.53280  -0.51144  -0.49846  -0.47593  -0.45538
 Alpha  occ. eigenvalues --   -0.43657  -0.39531  -0.39019  -0.38200  -0.36739
 Alpha  occ. eigenvalues --   -0.35672  -0.35223  -0.34841  -0.33355  -0.32911
 Alpha  occ. eigenvalues --   -0.31990  -0.31031  -0.30670  -0.29825  -0.29404
 Alpha  occ. eigenvalues --   -0.29252  -0.28344  -0.27744  -0.26086  -0.25871
 Alpha  occ. eigenvalues --   -0.25243  -0.24815  -0.24011  -0.23019  -0.18645
 Alpha  occ. eigenvalues --   -0.14860  -0.13091  -0.10628   0.04341
 Alpha virt. eigenvalues --    0.06190   0.06659   0.07095   0.07890   0.08399
 Alpha virt. eigenvalues --    0.08683   0.09119   0.09417   0.09539   0.10665
 Alpha virt. eigenvalues --    0.10979   0.11219   0.11303   0.12296   0.12671

  Beta  occ. eigenvalues --  -19.09811 -14.20278 -14.19944 -10.12835 -10.12573
  Beta  occ. eigenvalues --  -10.10763 -10.10748 -10.09547 -10.09333 -10.08932
  Beta  occ. eigenvalues --  -10.08402 -10.07788 -10.06477 -10.06217 -10.06193
  Beta  occ. eigenvalues --   -1.02031  -0.82924  -0.80666  -0.71484  -0.68516
  Beta  occ. eigenvalues --   -0.66412  -0.65450  -0.61651  -0.59349  -0.57001
  Beta  occ. eigenvalues --   -0.53230  -0.51109  -0.49813  -0.47543  -0.45502
  Beta  occ. eigenvalues --   -0.43623  -0.39510  -0.38998  -0.38169  -0.36722
  Beta  occ. eigenvalues --   -0.35634  -0.35206  -0.34811  -0.33332  -0.32882
  Beta  occ. eigenvalues --   -0.31963  -0.31002  -0.30646  -0.29802  -0.29382
  Beta  occ. eigenvalues --   -0.29231  -0.28315  -0.27715  -0.26054  -0.25846
  Beta  occ. eigenvalues --   -0.25222  -0.24797  -0.23981  -0.22995  -0.18634
  Beta  occ. eigenvalues --   -0.14846  -0.13078  -0.10619
  Beta virt. eigenvalues --    0.06365   0.07153   0.07301   0.07637   0.08425
  Beta virt. eigenvalues --    0.08574   0.08990   0.09445   0.09716   0.09920
  Beta virt. eigenvalues --    0.10972   0.11292   0.11505   0.11583   0.12408

 Mulliken charges and spin densities:
               1          2
     1  C    0.659517  -1.200478
     2  C   -0.542506   0.333219
     3  N    0.219144   0.055906
     4  C    0.218356  -0.718681
     5  C   -0.416928   0.223903
     6  N    0.091046  -0.008616
     7  C    0.761053  -1.767331
     8  C    2.654885  -2.129948
     9  C   -1.696039   1.217718
    10  O    0.036041  -0.004005
    11  C    1.499732  -1.888244
    12  C   -1.957161   2.253433
    13  C   -1.207214   0.925458
    14  C    0.009151  -0.493490
    15  C    0.382418  -0.878183
    16  H   -0.019077   0.166485
    17  H   -0.179718   0.315935
    18  H    0.137751   0.000187
    19  H   -0.248647   0.401625
    20  H    0.112331   0.012631
    21  H    0.192146  -0.029369
    22  H   -0.136167   0.298086
    23  H   -0.251106   0.424862
    24  H    0.392944  -0.327640
    25  H    0.165824   0.105234
    26  H   -0.205856   0.391704
    27  H    0.124104   0.038858
    28  H   -0.671532   0.848869
    29  H   -0.565499   0.742903
    30  H   -0.952603   1.148248
    31  H   -0.026908   0.161861
    32  H   -0.239682   0.377379
    33  H   -0.257670   0.417766
    34  H    0.893434  -0.792456
    35  H   -0.041720   0.184158
    36  H    0.005000   0.116927
    37  H    0.061158   0.075085
 Sum of Mulliken charges =  -1.00000   1.00000

 Dipole moment (field-independent basis, Debye):
    X=              2.0758    Y=              1.4129    Z=              1.6070  Tot=              2.9812
 Quadrupole moment (field-independent basis, Debye-Ang):
   XX=           -161.8288   YY=           -138.1624   ZZ=           -150.7323
   XY=             -1.5545   XZ=             -3.1864   YZ=             -3.8537

 Summary of Natural Population Analysis:

                                       Natural Population
                Natural  -----------------------------------------------
    Atom  No    Charge         Core      Valence    Rydberg      Total
 -----------------------------------------------------------------------
      C    1   -0.28830      0.99966     2.28346    0.00517     3.28830
      C    2   -0.08720      0.99961     2.07581    0.01178     3.08720
      N    3   -0.29230      0.99969     2.77773    0.01488     3.79230
      C    4   -0.07894      0.99960     2.06721    0.01212     3.07894
      C    5   -0.09986      0.99961     2.08995    0.01029     3.09986
      N    6   -0.33858      0.99975     2.82748    0.01134     3.83858
      C    7   -0.09481      0.99958     2.08350    0.01173     3.09481
      C    8   -0.07410      0.99952     2.06418    0.01041     3.07410
      C    9    0.06180      0.99943     1.92429    0.01448     2.93820
      O   10   -0.23288      0.99987     3.22458    0.00843     4.23288
      C   11    0.06394      0.99951     1.92192    0.01462     2.93606
      C   12   -0.14859      0.99952     2.13936    0.00970     3.14859
      C   13   -0.00883      0.99960     1.99719    0.01205     3.00883
      C   14   -0.29859      0.99964     2.29269    0.00625     3.29859
      C   15   -0.28392      0.99964     2.27902    0.00526     3.28392
      H   16    0.09802      0.00000     0.40072    0.00126     0.40198
      H   17    0.09910      0.00000     0.39993    0.00097     0.40090
      H   18    0.09359      0.00000     0.40517    0.00124     0.40641
      H   19    0.09624      0.00000     0.40220    0.00156     0.40376
      H   20    0.08430      0.00000     0.41358    0.00212     0.41570
      H   21    0.09537      0.00000     0.40326    0.00136     0.40463
      H   22    0.09457      0.00000     0.40438    0.00106     0.40543
      H   23    0.09026      0.00000     0.40802    0.00172     0.40974
      H   24    0.08553      0.00000     0.41195    0.00252     0.41447
      H   25    0.17174      0.00000     0.32322    0.00504     0.32826
      H   26    0.09974      0.00000     0.39913    0.00113     0.40026
      H   27    0.09700      0.00000     0.40170    0.00131     0.40300
      H   28    0.09779      0.00000     0.40041    0.00180     0.40221
      H   29    0.09732      0.00000     0.40110    0.00159     0.40268
      H   30    0.11338      0.00000     0.38475    0.00187     0.38662
      H   31    0.09299      0.00000     0.40499    0.00202     0.40701
      H   32    0.09962      0.00000     0.39946    0.00092     0.40038
      H   33    0.10312      0.00000     0.39584    0.00104     0.39688
      H   34    0.09997      0.00000     0.39825    0.00177     0.40003
      H   35    0.10011      0.00000     0.39858    0.00131     0.39989
      H   36    0.09470      0.00000     0.40443    0.00087     0.40530
      H   37    0.09667      0.00000     0.40206    0.00127     0.40333
 =======================================================================
   * Total *   -0.00000     14.99425    42.81151    0.19424    58.00000

 Normal termination of Gaussian 16 at Thu Dec 10 16:38:23 2020.
