 Gaussian 16, Revision A.03,

 -----------------------------------------------------------
 # opt freq B3LYP/6-31G(d) empiricaldispersion=gd3bj scf=xqc
 -----------------------------------------------------------

 ------------------------------
 CID_56668914_JID_8837_neutraal
 ------------------------------
 Symbolic Z-matrix:
 Charge =  0 Multiplicity = 1

 SCF Done:  E(RB3LYP) =  -1165.56727423     A.U. after   15 cycles
 SCF Done:  E(RB3LYP) =  -1165.57370017     A.U. after   12 cycles
 SCF Done:  E(RB3LYP) =  -1165.57479839     A.U. after   12 cycles
 SCF Done:  E(RB3LYP) =  -1165.57513003     A.U. after   12 cycles
 SCF Done:  E(RB3LYP) =  -1165.57545440     A.U. after   11 cycles
 SCF Done:  E(RB3LYP) =  -1165.57574154     A.U. after   12 cycles
 SCF Done:  E(RB3LYP) =  -1165.57598830     A.U. after   12 cycles
 SCF Done:  E(RB3LYP) =  -1165.57620810     A.U. after   12 cycles
 SCF Done:  E(RB3LYP) =  -1165.57631337     A.U. after   11 cycles
 SCF Done:  E(RB3LYP) =  -1165.57642293     A.U. after   11 cycles
 SCF Done:  E(RB3LYP) =  -1165.57662778     A.U. after   10 cycles
 SCF Done:  E(RB3LYP) =  -1165.57662847     A.U. after   10 cycles
 SCF Done:  E(RB3LYP) =  -1165.57662877     A.U. after   10 cycles
 SCF Done:  E(RB3LYP) =  -1165.57662883     A.U. after    8 cycles
 SCF Done:  E(RB3LYP) =  -1165.57662884     A.U. after    6 cycles
 Optimization completed.
    -- Stationary point found.
 Normal termination of Gaussian 16 at Fri Dec 11 22:27:21 2020.

 --------------------------------------------------------------------
 #N Geom=AllCheck Guess=TCheck SCRF=Check GenChk RB3LYP/6-31G(d) Freq
 --------------------------------------------------------------------

 Structure from the checkpoint file:  "JID_8837.chk"
 ------------------------------
 CID_56668914_JID_8837_neutraal
 ------------------------------
 Charge =  0 Multiplicity = 1

 SCF Done:  E(RB3LYP) =  -1165.57662884     A.U. after    1 cycles

  Exact polarizability: 219.521   6.681 145.702 -11.099   8.057 133.386
 Approx polarizability: 281.933  16.530 246.232 -23.271  26.724 215.074

                      1                      2                      3
                      A                      A                      A
 Frequencies --     15.7431                28.8628                44.7554
 Red. masses --      4.5528                 3.6439                 4.2447
 Frc consts  --      0.0007                 0.0018                 0.0050
 IR Inten    --      0.4113                 0.1380                 1.5142

                      4                      5                      6
                      A                      A                      A
 Frequencies --     56.0074                59.7970                87.1378
 Red. masses --      3.0921                 4.7740                 3.8973
 Frc consts  --      0.0057                 0.0101                 0.0174
 IR Inten    --      0.0920                 1.3547                 3.6012

                      7                      8                      9
                      A                      A                      A
 Frequencies --     97.3616               174.5822               196.6796
 Red. masses --      4.3842                 3.3648                 4.4033
 Frc consts  --      0.0245                 0.0604                 0.1004
 IR Inten    --      0.4879                 2.2131                 4.0132

                     10                     11                     12
                      A                      A                      A
 Frequencies --    222.8305               236.8354               252.6354
 Red. masses --      2.3359                 1.2528                 1.4213
 Frc consts  --      0.0683                 0.0414                 0.0534
 IR Inten    --      0.6063                 0.1927                 0.3228

                     13                     14                     15
                      A                      A                      A
 Frequencies --    266.4895               304.3473               328.7781
 Red. masses --      2.4134                 2.9775                 3.2267
 Frc consts  --      0.1010                 0.1625                 0.2055
 IR Inten    --      0.8966                 0.6350                 1.7922

                     16                     17                     18
                      A                      A                      A
 Frequencies --    338.6411               367.5839               393.0046
 Red. masses --      2.3267                 3.9017                 3.1683
 Frc consts  --      0.1572                 0.3106                 0.2883
 IR Inten    --      6.9945                 9.0025                 4.5746

                     19                     20                     21
                      A                      A                      A
 Frequencies --    398.4262               404.2862               421.9655
 Red. masses --      2.9652                 2.9400                 3.0281
 Frc consts  --      0.2773                 0.2831                 0.3177
 IR Inten    --      3.6948                 4.5352                 0.4696

                     22                     23                     24
                      A                      A                      A
 Frequencies --    424.9250               469.2713               480.2292
 Red. masses --      1.9432                 5.1406                 4.1999
 Frc consts  --      0.2067                 0.6670                 0.5707
 IR Inten    --      0.1392                10.1920                13.7602

                     25                     26                     27
                      A                      A                      A
 Frequencies --    539.0099               565.2278               566.9567
 Red. masses --      5.7022                 3.5660                 2.8235
 Frc consts  --      0.9761                 0.6712                 0.5347
 IR Inten    --      6.4498                 3.5313                15.1122

                     28                     29                     30
                      A                      A                      A
 Frequencies --    609.0090               659.6210               662.8298
 Red. masses --      4.9066                 6.4360                 5.2215
 Frc consts  --      1.0722                 1.6499                 1.3516
 IR Inten    --     25.2266                 3.0667               121.4816

                     31                     32                     33
                      A                      A                      A
 Frequencies --    696.9364               761.6271               767.2779
 Red. masses --      4.6511                 4.3605                 2.5102
 Frc consts  --      1.3311                 1.4903                 0.8707
 IR Inten    --    115.5688                 5.3299                20.9909

                     34                     35                     36
                      A                      A                      A
 Frequencies --    816.4612               827.2406               857.2571
 Red. masses --      1.6460                 2.7712                 3.1840
 Frc consts  --      0.6465                 1.1173                 1.3786
 IR Inten    --     18.2329                 4.2075                 8.7535

                     37                     38                     39
                      A                      A                      A
 Frequencies --    863.1925               879.0934               887.6686
 Red. masses --      1.5429                 1.6306                 2.0255
 Frc consts  --      0.6773                 0.7425                 0.9403
 IR Inten    --      6.4679                36.4654                29.7763

                     40                     41                     42
                      A                      A                      A
 Frequencies --    903.9181               923.1851               943.8098
 Red. masses --      1.4981                 2.2511                 1.1921
 Frc consts  --      0.7212                 1.1304                 0.6257
 IR Inten    --      5.2751                 2.9684                 2.5847

                     43                     44                     45
                      A                      A                      A
 Frequencies --    961.1533               965.3213               969.4972
 Red. masses --      1.5034                 1.9828                 1.6267
 Frc consts  --      0.8183                 1.0886                 0.9008
 IR Inten    --      1.0449                 0.6985                 0.9726

                     46                     47                     48
                      A                      A                      A
 Frequencies --    980.1120               996.3515              1027.1879
 Red. masses --      1.4922                 1.3282                 2.8459
 Frc consts  --      0.8446                 0.7769                 1.7691
 IR Inten    --      0.0621                 3.1284                74.2886

                     49                     50                     51
                      A                      A                      A
 Frequencies --   1044.9021              1047.8104              1102.9154
 Red. masses --      2.6849                 2.6876                 2.2413
 Frc consts  --      1.7272                 1.7385                 1.6063
 IR Inten    --      6.1260                 2.7874                31.2648

                     52                     53                     54
                      A                      A                      A
 Frequencies --   1114.8630              1140.4923              1149.3486
 Red. masses --      1.7480                 5.6756                 2.1726
 Frc consts  --      1.2801                 4.3496                 1.6910
 IR Inten    --      5.5628               167.9777                 3.9429

                     55                     56                     57
                      A                      A                      A
 Frequencies --   1160.5875              1173.9752              1205.4966
 Red. masses --      1.3853                 2.7360                 1.7403
 Frc consts  --      1.0994                 2.2217                 1.4901
 IR Inten    --      2.6846                88.6932                11.9865

                     58                     59                     60
                      A                      A                      A
 Frequencies --   1222.4438              1236.1476              1243.9186
 Red. masses --      1.1858                 4.1529                 2.0293
 Frc consts  --      1.0440                 3.7389                 1.8500
 IR Inten    --      9.3866                 7.5573                 0.6742

                     61                     62                     63
                      A                      A                      A
 Frequencies --   1248.6856              1260.6063              1276.5626
 Red. masses --      1.3361                 1.5589                 1.4406
 Frc consts  --      1.2274                 1.4595                 1.3832
 IR Inten    --      8.5520                 2.9389                 4.9004

                     64                     65                     66
                      A                      A                      A
 Frequencies --   1317.8971              1328.2899              1331.0581
 Red. masses --      1.7840                 3.1728                 1.3383
 Frc consts  --      1.8256                 3.2982                 1.3970
 IR Inten    --     56.1813               182.8744                 1.6208

                     67                     68                     69
                      A                      A                      A
 Frequencies --   1363.8660              1367.0447              1376.0247
 Red. masses --      1.6493                 1.3838                 1.7783
 Frc consts  --      1.8076                 1.5236                 1.9838
 IR Inten    --      1.4168                 8.2720                 5.2341

                     70                     71                     72
                      A                      A                      A
 Frequencies --   1387.4802              1390.9765              1394.7911
 Red. masses --      1.4466                 1.3979                 1.2975
 Frc consts  --      1.6407                 1.5935                 1.4872
 IR Inten    --      1.2885                 2.1186                25.9428

                     73                     74                     75
                      A                      A                      A
 Frequencies --   1401.7235              1423.0218              1430.5447
 Red. masses --      1.2934                 1.2334                 1.2763
 Frc consts  --      1.4974                 1.4716                 1.5389
 IR Inten    --     19.4192                52.6945                 4.2448

                     76                     77                     78
                      A                      A                      A
 Frequencies --   1449.3057              1471.6025              1512.7388
 Red. masses --      1.2365                 2.4584                 1.0978
 Frc consts  --      1.5303                 3.1367                 1.4802
 IR Inten    --      5.0115                 6.1268                11.0428

                     79                     80                     81
                      A                      A                      A
 Frequencies --   1513.6461              1519.7300              1520.9576
 Red. masses --      1.0837                 1.0456                 1.0862
 Frc consts  --      1.4629                 1.4229                 1.4804
 IR Inten    --      0.9289                 1.5432                 6.9635

                     82                     83                     84
                      A                      A                      A
 Frequencies --   1526.5331              1531.0737              1534.7013
 Red. masses --      1.0685                 1.0865                 1.0518
 Frc consts  --      1.4670                 1.5007                 1.4595
 IR Inten    --      2.1212                 7.8643                 3.4156

                     85                     86                     87
                      A                      A                      A
 Frequencies --   1540.9537              1565.1903              1631.6096
 Red. masses --      1.0508                 2.4307                 6.0233
 Frc consts  --      1.4701                 3.5085                 9.4474
 IR Inten    --      9.1989                14.5127                 0.5175

                     88                     89                     90
                      A                      A                      A
 Frequencies --   1675.5512              3018.6139              3032.6438
 Red. masses --      5.7480                 1.0823                 1.0570
 Frc consts  --      9.5079                 5.8105                 5.7277
 IR Inten    --      4.5247                 7.8282                20.2232

                     91                     92                     93
                      A                      A                      A
 Frequencies --   3037.8107              3044.0428              3067.6937
 Red. masses --      1.0372                 1.0404                 1.0681
 Frc consts  --      5.6396                 5.6800                 5.9223
 IR Inten    --     38.5862                36.4589                33.7924

                     94                     95                     96
                      A                      A                      A
 Frequencies --   3073.3207              3077.3072              3097.3952
 Red. masses --      1.1038                 1.0690                 1.0588
 Frc consts  --      6.1428                 5.9646                 5.9848
 IR Inten    --     18.4490                30.5898                22.1304

                     97                     98                     99
                      A                      A                      A
 Frequencies --   3101.1269              3106.7451              3112.6228
 Red. masses --      1.1007                 1.1006                 1.1018
 Frc consts  --      6.2368                 6.2587                 6.2895
 IR Inten    --     12.2042                51.2347                49.4898

                    100                    101                    102
                      A                      A                      A
 Frequencies --   3128.1959              3145.2495              3151.7806
 Red. masses --      1.1010                 1.1020                 1.0973
 Frc consts  --      6.3480                 6.4232                 6.4225
 IR Inten    --     35.8469                 5.0153                 1.7516

                    103                    104                    105
                      A                      A                      A
 Frequencies --   3154.1006              3166.2207              3184.4790
 Red. masses --      1.1061                 1.0868                 1.0912
 Frc consts  --      6.4836                 6.4194                 6.5196
 IR Inten    --     19.5334                14.7726                27.3741

                    106                    107                    108
                      A                      A                      A
 Frequencies --   3186.3135              3221.9551              3523.6065
 Red. masses --      1.0920                 1.0928                 1.0754
 Frc consts  --      6.5323                 6.6839                 7.8668
 IR Inten    --      6.0372                 2.0285                26.6919

 - Thermochemistry -
 -------------------
 Temperature   298.150 Kelvin.  Pressure   1.00000 Atm.
 Atom     1 has atomic number  6 and mass  12.00000

 Molecular mass:   268.12455 amu.
 Principal axes and moments of inertia in atomic units:
                           1         2         3
     Eigenvalues --  1681.65128********************
           X            0.99994  -0.01085  -0.00158
           Y            0.01080   0.99952  -0.02920
           Z            0.00189   0.02918   0.99957
 This molecule is an asymmetric top.
 Rotational symmetry number  1.
 Warning -- assumption of classical behavior for rotation
           may cause significant error
 Rotational temperatures (Kelvin)      0.05151     0.00776     0.00762
 Rotational constants (GHZ):           1.07320     0.16178     0.15888
 Zero-point vibrational energy     852144.4 (Joules/Mol)
                                  203.66739 (Kcal/Mol)
 Warning -- explicit consideration of  28 degrees of freedom as
           vibrations may cause significant error
 Vibrational temperatures:     22.65    41.53    64.39    80.58    86.03
          (Kelvin)            125.37   140.08   251.18   282.98   320.60
                              340.75   363.49   383.42   437.89   473.04
                              487.23   528.87   565.45   573.25   581.68
                              607.11   611.37   675.18   690.94   775.52
                              813.24   815.72   876.23   949.05   953.66
                             1002.74  1095.81  1103.94  1174.71  1190.21
                             1233.40  1241.94  1264.82  1277.16  1300.54
                             1328.26  1357.93  1382.89  1388.88  1394.89
                             1410.16  1433.53  1477.89  1503.38  1507.57
                             1586.85  1604.04  1640.91  1653.66  1669.83
                             1689.09  1734.44  1758.82  1778.54  1789.72
                             1796.58  1813.73  1836.69  1896.16  1911.11
                             1915.10  1962.30  1966.87  1979.79  1996.27
                             2001.30  2006.79  2016.77  2047.41  2058.23
                             2085.23  2117.31  2176.49  2177.80  2186.55
                             2188.32  2196.34  2202.87  2208.09  2217.09
                             2251.96  2347.52  2410.74  4343.11  4363.30
                             4370.73  4379.70  4413.73  4421.82  4427.56
                             4456.46  4461.83  4469.91  4478.37  4500.78
                             4525.31  4534.71  4538.05  4555.49  4581.76
                             4584.39  4635.67  5069.68

 Zero-point correction=                           0.324565 (Hartree/Particle)
 Thermal correction to Energy=                    0.342300
 Thermal correction to Enthalpy=                  0.343244
 Thermal correction to Gibbs Free Energy=         0.276703
 Sum of electronic and zero-point Energies=          -1165.252064
 Sum of electronic and thermal Energies=             -1165.234329
 Sum of electronic and thermal Enthalpies=           -1165.233385
 Sum of electronic and thermal Free Energies=        -1165.299926

                     E (Thermal)             CV                S
                      KCal/Mol        Cal/Mol-Kelvin    Cal/Mol-Kelvin
 Total                  214.797             68.150            140.049
 Electronic               0.000              0.000              0.000
 Translational            0.889              2.981             42.658
 Rotational               0.889              2.981             33.721
 Vibrational            213.019             62.188             63.670
 Vibration     1          0.593              1.986              7.110
 Vibration     2          0.593              1.984              5.906
 Vibration     3          0.595              1.979              5.037
 Vibration     4          0.596              1.975              4.593
 Vibration     5          0.597              1.973              4.464
 Vibration     6          0.601              1.958              3.723
 Vibration     7          0.603              1.951              3.506
 Vibration     8          0.627              1.874              2.386
 Vibration     9          0.636              1.845              2.164
 Vibration    10          0.649              1.806              1.936
 Vibration    11          0.656              1.784              1.827
 Vibration    12          0.664              1.758              1.712
 Vibration    13          0.672              1.735              1.619
 Vibration    14          0.695              1.665              1.393
 Vibration    15          0.712              1.618              1.266
 Vibration    16          0.719              1.598              1.219
 Vibration    17          0.740              1.539              1.090
 Vibration    18          0.760              1.485              0.989
 Vibration    19          0.765              1.473              0.968
 Vibration    20          0.769              1.461              0.947
 Vibration    21          0.784              1.422              0.885
 Vibration    22          0.787              1.416              0.875
 Vibration    23          0.826              1.318              0.740
 Vibration    24          0.837              1.294              0.709
 Vibration    25          0.894              1.164              0.567
 Vibration    26          0.921              1.106              0.513
 Vibration    27          0.923              1.103              0.510
 Vibration    28          0.968              1.013              0.434

 Optimization completed.
    -- Stationary point found.
 Normal termination of Gaussian 16 at Fri Dec 11 22:44:52 2020.

 ----------------------------------------------------------------------
 # B3LYP/6-311++G(d,p) empiricaldispersion=gd3bj scf=xqc pop=npa geom=c
 heck
 ----------------------------------------------------------------------

 --------------------------------------
 CID_56668914_JID_8837_Energie_neutraal
 --------------------------------------
 Structure from the checkpoint file:  "JID_8837.chk"
 Charge =  0 Multiplicity = 1

 SCF Done:  E(RB3LYP) =  -1165.81486098     A.U. after   16 cycles
 Normal termination of Gaussian 16 at Fri Dec 11 22:53:43 2020.

 ----------------------------------------------------------------------
 # B3LYP/6-311++G(d,p) empiricaldispersion=gd3bj scf=xqc pop=npa geom=c
 heck
 ----------------------------------------------------------------------

 ------------------------------------
 CID_56668914_JID_8837_Energie_kation
 ------------------------------------
 Structure from the checkpoint file:  "JID_8837.chk"
 Charge =  1 Multiplicity = 2

 SCF Done:  E(UB3LYP) =  -1165.50502956     A.U. after   28 cycles
 Normal termination of Gaussian 16 at Fri Dec 11 23:16:21 2020.
 Gaussian 16:  ES64L-G16RevA.03 25-Dec-2016

 ----------------------------------------------------------------------
 # B3LYP/6-311++G(d,p) empiricaldispersion=gd3bj scf=xqc pop=npa geom=c
 heck
 ----------------------------------------------------------------------

 -----------------------------------
 CID_56668914_JID_8837_Energie_anion
 -----------------------------------
 Structure from the checkpoint file:  "JID_8837.chk"
 Charge = -1 Multiplicity = 2

                         Standard orientation:
 ---------------------------------------------------------------------
 Center     Atomic      Atomic             Coordinates (Angstroms)
 Number     Number       Type             X           Y           Z
 ---------------------------------------------------------------------
      1          6           0        4.735042   -1.534817    0.490857
      2          6           0        4.894586   -0.076187    0.049900
      3          6           0        6.251045    0.149999   -0.626550
      4          6           0        3.748194    0.366429   -0.889346
      5          6           0        2.383156    0.305969   -0.247694
      6          6           0        1.500601   -0.751685   -0.505101
      7          6           0        0.256832   -0.826286    0.117887
      8          6           0       -0.144247    0.168006    1.020664
      9          6           0        0.736487    1.222401    1.286130
     10          6           0        1.980481    1.291525    0.660818
     11          6           0       -1.513555    0.139204    1.664578
     12          7           0       -2.631354    0.565857    0.789114
     13          6           0       -2.442400    1.740445   -0.072396
     14          6           0       -2.191550    1.191196   -1.491451
     15          7           0       -3.081272    0.025138   -1.658922
     16         16           0       -3.437475   -0.627511   -0.111244
     17          8           0       -4.888105   -0.538508    0.055423
     18          8           0       -2.778330   -1.913156    0.114581
     19          1           0        4.766656   -2.207214   -0.376587
     20          1           0        3.783629   -1.698198    1.006347
     21          1           0        5.544245   -1.828602    1.168875
     22          1           0        4.846734    0.558475    0.947004
     23          1           0        6.339104   -0.459823   -1.534878
     24          1           0        6.385879    1.199367   -0.914255
     25          1           0        7.075752   -0.126529    0.040084
     26          1           0        3.949880    1.392475   -1.224265
     27          1           0        3.764707   -0.266105   -1.786764
     28          1           0        1.796715   -1.531381   -1.202431
     29          1           0       -0.416612   -1.648790   -0.099977
     30          1           0        0.445512    1.997284    1.992622
     31          1           0        2.647972    2.121914    0.879542
     32          1           0       -1.760457   -0.863010    2.017397
     33          1           0       -1.531207    0.808490    2.530915
     34          1           0       -1.599129    2.326464    0.297087
     35          1           0       -3.345082    2.361356   -0.046319
     36          1           0       -1.154486    0.863117   -1.592404
     37          1           0       -2.409990    1.922602   -2.273715
     38          1           0       -3.978381    0.277445   -2.069556
 ---------------------------------------------------------------------

 SCF Done:  E(UB3LYP) =  -1165.80776290     A.U. after   33 cycles
 SCF Done:  E(UB3LYP) =  -1165.80776290     a.u. after    1 cycles

 The electronic state is 2-A.
 Alpha  occ. eigenvalues --  -88.99027 -19.03875 -19.03504 -14.26171 -14.25806
 Alpha  occ. eigenvalues --  -10.13036 -10.12855 -10.12605 -10.09097 -10.08992
 Alpha  occ. eigenvalues --  -10.08915 -10.08703 -10.08337 -10.08123 -10.08075
 Alpha  occ. eigenvalues --  -10.08051 -10.07395 -10.07308  -8.05098  -6.01377
 Alpha  occ. eigenvalues --   -6.01300  -6.01263  -1.04587  -0.92909  -0.88098
 Alpha  occ. eigenvalues --   -0.82327  -0.77307  -0.72784  -0.68800  -0.66833
 Alpha  occ. eigenvalues --   -0.65772  -0.63136  -0.60114  -0.58170  -0.56015
 Alpha  occ. eigenvalues --   -0.52393  -0.51724  -0.49072  -0.47375  -0.45857
 Alpha  occ. eigenvalues --   -0.43953  -0.41296  -0.40333  -0.38789  -0.38673
 Alpha  occ. eigenvalues --   -0.37298  -0.36686  -0.36547  -0.35594  -0.34962
 Alpha  occ. eigenvalues --   -0.34347  -0.33764  -0.33108  -0.32082  -0.30845
 Alpha  occ. eigenvalues --   -0.30083  -0.29257  -0.28647  -0.27624  -0.27354
 Alpha  occ. eigenvalues --   -0.26712  -0.25484  -0.24920  -0.24632  -0.24314
 Alpha  occ. eigenvalues --   -0.24166  -0.23895  -0.23302  -0.18746  -0.17465
 Alpha  occ. eigenvalues --   -0.16724  -0.15344   0.03759
 Alpha virt. eigenvalues --    0.05364   0.06148   0.06493   0.07086   0.07438
 Alpha virt. eigenvalues --    0.07809   0.08107   0.08304   0.09451   0.09514
 Alpha virt. eigenvalues --    0.10214   0.10388   0.10546   0.11067   0.11529

  Beta  occ. eigenvalues --  -88.99025 -19.03874 -19.03498 -14.26162 -14.25793
  Beta  occ. eigenvalues --  -10.13032 -10.12831 -10.12569 -10.09088 -10.08946
  Beta  occ. eigenvalues --  -10.08865 -10.08703 -10.08343 -10.08093 -10.08064
  Beta  occ. eigenvalues --  -10.08025 -10.07369 -10.07295  -8.05096  -6.01375
  Beta  occ. eigenvalues --   -6.01297  -6.01261  -1.04578  -0.92903  -0.88075
  Beta  occ. eigenvalues --   -0.82295  -0.77242  -0.72743  -0.68738  -0.66787
  Beta  occ. eigenvalues --   -0.65722  -0.63092  -0.60074  -0.58118  -0.55951
  Beta  occ. eigenvalues --   -0.52340  -0.51683  -0.49014  -0.47319  -0.45809
  Beta  occ. eigenvalues --   -0.43915  -0.41254  -0.40307  -0.38753  -0.38639
  Beta  occ. eigenvalues --   -0.37242  -0.36652  -0.36507  -0.35545  -0.34913
  Beta  occ. eigenvalues --   -0.34308  -0.33719  -0.33077  -0.32056  -0.30813
  Beta  occ. eigenvalues --   -0.30059  -0.29206  -0.28603  -0.27546  -0.27316
  Beta  occ. eigenvalues --   -0.26683  -0.25455  -0.24903  -0.24583  -0.24290
  Beta  occ. eigenvalues --   -0.24133  -0.23865  -0.23285  -0.18728  -0.17395
  Beta  occ. eigenvalues --   -0.16630  -0.15123
  Beta virt. eigenvalues --    0.05748   0.06494   0.06667   0.07031   0.07219
  Beta virt. eigenvalues --    0.07645   0.08066   0.08407   0.08787   0.09704
  Beta virt. eigenvalues --    0.09943   0.10359   0.10555   0.10693   0.11326

 Mulliken charges and spin densities:
               1          2
     1  C   -0.344019  -0.340657
     2  C   -0.511144   0.977501
     3  C    0.366411  -1.081298
     4  C   -0.005742  -1.344515
     5  C    1.383193   0.207750
     6  C   -0.730180   0.332431
     7  C   -0.769028   0.174736
     8  C    0.982400  -0.052772
     9  C   -0.008952  -0.263060
    10  C   -0.162058  -0.319640
    11  C   -0.621868  -0.373825
    12  N   -0.165339   0.050839
    13  C    0.394414  -0.609910
    14  C    0.239455  -0.801305
    15  N   -0.366727   0.067006
    16  S    0.647235  -0.202305
    17  O   -0.203534   0.002498
    18  O   -0.151268   0.001845
    19  H    0.064034   0.078519
    20  H    0.194235  -0.052608
    21  H    0.003216   0.130094
    22  H    0.078211   0.080236
    23  H    0.011009   0.113935
    24  H   -0.196663   0.337033
    25  H   -0.086544   0.218752
    26  H   -0.109987   0.295696
    27  H    0.067273   0.088593
    28  H    0.029994   0.129087
    29  H    0.231520   0.018789
    30  H   -0.249036   0.412989
    31  H   -0.537901   0.714725
    32  H    0.205605  -0.007044
    33  H    0.097332   0.100388
    34  H   -0.202505   0.384137
    35  H   -0.129021   0.344670
    36  H    0.390920  -0.169331
    37  H   -1.043416   1.254498
    38  H    0.208475   0.101526
 Sum of Mulliken charges =  -1.00000   1.00000

 Dipole moment (field-independent basis, Debye):
    X=              0.1929    Y=             -4.8305    Z=              2.5980  Tot=              5.4882
 Quadrupole moment (field-independent basis, Debye-Ang):
   XX=           -227.7151   YY=           -169.7444   ZZ=           -147.3579
   XY=             -5.9121   XZ=             -3.0732   YZ=              8.3157

 Summary of Natural Population Analysis:

                                       Natural Population
                Natural  -----------------------------------------------
    Atom  No    Charge         Core      Valence    Rydberg      Total
 -----------------------------------------------------------------------
      C    1   -0.28613      0.99965     2.28174    0.00473     3.28613
      C    2   -0.11035      0.99961     2.10132    0.00941     3.11035
      C    3   -0.28135      0.99965     2.27690    0.00480     3.28135
      C    4   -0.19737      0.99958     2.18724    0.01055     3.19737
      C    5   -0.00431      0.99951     1.99390    0.01090     3.00431
      C    6   -0.10082      0.99951     2.09255    0.00876     3.10082
      C    7   -0.09586      0.99951     2.08691    0.00944     3.09586
      C    8   -0.03494      0.99949     2.02570    0.00975     3.03494
      C    9   -0.09873      0.99951     2.08902    0.01020     3.09873
      C   10   -0.09446      0.99950     2.08464    0.01033     3.09446
      C   11   -0.09254      0.99956     2.07938    0.01359     3.09254
      N   12   -0.36264      0.99974     2.85027    0.01263     3.86264
      C   13   -0.09761      0.99961     2.08494    0.01305     3.09761
      C   14   -0.09954      0.99963     2.08776    0.01216     3.09954
      N   15   -0.42019      0.99976     2.90868    0.01174     3.92019
      S   16    1.14934      4.99932     1.74777    0.10357     6.85066
      O   17   -0.45577      0.99990     3.45018    0.00568     4.45577
      O   18   -0.45448      0.99990     3.44946    0.00512     4.45448
      H   19    0.09439      0.00000     0.40478    0.00083     0.40561
      H   20    0.10466      0.00000     0.39454    0.00079     0.39534
      H   21    0.09725      0.00000     0.40199    0.00076     0.40275
      H   22    0.09333      0.00000     0.40476    0.00191     0.40667
      H   23    0.09497      0.00000     0.40401    0.00102     0.40503
      H   24    0.10115      0.00000     0.39764    0.00121     0.39885
      H   25    0.09749      0.00000     0.40160    0.00091     0.40251
      H   26    0.10747      0.00000     0.39105    0.00148     0.39253
      H   27    0.09730      0.00000     0.40124    0.00145     0.40270
      H   28    0.09874      0.00000     0.40007    0.00119     0.40126
      H   29    0.11316      0.00000     0.38531    0.00153     0.38684
      H   30    0.10010      0.00000     0.39876    0.00114     0.39990
      H   31    0.10276      0.00000     0.39583    0.00141     0.39724
      H   32    0.11374      0.00000     0.38514    0.00112     0.38626
      H   33    0.09997      0.00000     0.39892    0.00111     0.40003
      H   34    0.11281      0.00000     0.38540    0.00180     0.38719
      H   35    0.10108      0.00000     0.39734    0.00158     0.39892
      H   36    0.10292      0.00000     0.39494    0.00214     0.39708
      H   37    0.10879      0.00000     0.38665    0.00456     0.39121
      H   38    0.19565      0.00000     0.30223    0.00212     0.30435
 =======================================================================
   * Total *    0.00000     21.99294    49.71058    0.29648    72.00000

 Normal termination of Gaussian 16 at Fri Dec 11 23:42:35 2020.
