 Gaussian 16, Revision A.03,

 -----------------------------------------------------------
 # opt freq B3LYP/6-31G(d) empiricaldispersion=gd3bj scf=xqc
 -----------------------------------------------------------

 -------------------------------
 CID_116372901_JID_5487_neutraal
 -------------------------------
 Symbolic Z-matrix:
 Charge =  0 Multiplicity = 1

 SCF Done:  E(RB3LYP) =  -619.401068821     A.U. after   14 cycles
 SCF Done:  E(RB3LYP) =  -619.404026328     A.U. after   12 cycles
 SCF Done:  E(RB3LYP) =  -619.404408248     A.U. after   11 cycles
 SCF Done:  E(RB3LYP) =  -619.404634440     A.U. after   11 cycles
 SCF Done:  E(RB3LYP) =  -619.404843702     A.U. after   12 cycles
 SCF Done:  E(RB3LYP) =  -619.405229235     A.U. after   11 cycles
 SCF Done:  E(RB3LYP) =  -619.405578367     A.U. after   11 cycles
 SCF Done:  E(RB3LYP) =  -619.405654745     A.U. after   12 cycles
 SCF Done:  E(RB3LYP) =  -619.405644963     A.U. after   11 cycles
 SCF Done:  E(RB3LYP) =  -619.405698834     A.U. after   11 cycles
 SCF Done:  E(RB3LYP) =  -619.405711804     A.U. after   10 cycles
 SCF Done:  E(RB3LYP) =  -619.405709742     A.U. after   10 cycles
 SCF Done:  E(RB3LYP) =  -619.405713787     A.U. after    9 cycles
 SCF Done:  E(RB3LYP) =  -619.405713885     A.U. after    9 cycles
 SCF Done:  E(RB3LYP) =  -619.405714238     A.U. after    9 cycles
 SCF Done:  E(RB3LYP) =  -619.405714172     A.U. after    8 cycles
 Optimization completed.
    -- Stationary point found.
 Normal termination of Gaussian 16 at Thu Dec 10 16:31:24 2020.

 --------------------------------------------------------------------
 #N Geom=AllCheck Guess=TCheck SCRF=Check GenChk RB3LYP/6-31G(d) Freq
 --------------------------------------------------------------------

 Structure from the checkpoint file:  "JID_5487.chk"
 -------------------------------
 CID_116372901_JID_5487_neutraal
 -------------------------------
 Charge =  0 Multiplicity = 1

 SCF Done:  E(RB3LYP) =  -619.405714172     A.U. after    1 cycles

  Exact polarizability: 171.777   5.119 134.872   0.899  -0.775 122.939
 Approx polarizability: 217.157  16.210 196.129  -2.454  -2.293 181.460

                      1                      2                      3
                      A                      A                      A
 Frequencies --     12.9101                36.4738                64.9334
 Red. masses --      3.3590                 3.9745                 3.5499
 Frc consts  --      0.0003                 0.0031                 0.0088
 IR Inten    --      0.5370                 0.8164                 1.1168

                      4                      5                      6
                      A                      A                      A
 Frequencies --     87.2679               102.3318               111.8128
 Red. masses --      2.4810                 3.5377                 2.4062
 Frc consts  --      0.0111                 0.0218                 0.0177
 IR Inten    --      0.1958                 2.3972                 2.3818

                      7                      8                      9
                      A                      A                      A
 Frequencies --    123.9828               143.2797               173.3392
 Red. masses --      2.7102                 3.6920                 2.2422
 Frc consts  --      0.0245                 0.0447                 0.0397
 IR Inten    --      0.8919                 3.5436                 2.5887

                     10                     11                     12
                      A                      A                      A
 Frequencies --    215.1956               234.7078               240.8042
 Red. masses --      1.8970                 1.2915                 2.1376
 Frc consts  --      0.0518                 0.0419                 0.0730
 IR Inten    --      0.3804                 0.6734                 1.8921

                     13                     14                     15
                      A                      A                      A
 Frequencies --    251.1438               278.0426               312.1728
 Red. masses --      2.4535                 2.3252                 1.9031
 Frc consts  --      0.0912                 0.1059                 0.1093
 IR Inten    --      0.6127                 1.1534                 0.1776

                     16                     17                     18
                      A                      A                      A
 Frequencies --    333.1983               351.1475               393.4193
 Red. masses --      2.1927                 2.6558                 3.8148
 Frc consts  --      0.1434                 0.1929                 0.3479
 IR Inten    --      0.3440                 0.8752                 0.5723

                     19                     20                     21
                      A                      A                      A
 Frequencies --    405.9994               437.5247               484.8751
 Red. masses --      2.4267                 3.2900                 2.1721
 Frc consts  --      0.2357                 0.3711                 0.3009
 IR Inten    --      0.8122                 0.4631                 0.4587

                     22                     23                     24
                      A                      A                      A
 Frequencies --    494.5745               554.6126               593.3506
 Red. masses --      2.8687                 2.3714                 4.0221
 Frc consts  --      0.4134                 0.4298                 0.8343
 IR Inten    --      0.7346                 0.2719                 5.0871

                     25                     26                     27
                      A                      A                      A
 Frequencies --    601.7976               679.6327               757.3420
 Red. masses --      3.5554                 2.0809                 1.8118
 Frc consts  --      0.7586                 0.5663                 0.6123
 IR Inten    --      2.2525                 8.9789                 3.1057

                     28                     29                     30
                      A                      A                      A
 Frequencies --    770.8434               789.2971               796.9047
 Red. masses --      1.8464                 1.3241                 1.9678
 Frc consts  --      0.6464                 0.4860                 0.7363
 IR Inten    --     36.4842                 2.5403                 7.8471

                     31                     32                     33
                      A                      A                      A
 Frequencies --    827.5999               834.8960               863.3989
 Red. masses --      1.7559                 1.5933                 2.1540
 Frc consts  --      0.7086                 0.6544                 0.9460
 IR Inten    --      2.8247                 1.6000                 9.5444

                     34                     35                     36
                      A                      A                      A
 Frequencies --    877.0816               913.2730               919.1532
 Red. masses --      2.1896                 1.8948                 1.8355
 Frc consts  --      0.9924                 0.9312                 0.9137
 IR Inten    --      6.9369                 4.6411                 5.7760

                     37                     38                     39
                      A                      A                      A
 Frequencies --    962.0821               972.2606               998.9700
 Red. masses --      1.9069                 1.5548                 1.9888
 Frc consts  --      1.0399                 0.8660                 1.1693
 IR Inten    --      2.1035                 5.2734                 0.6063

                     40                     41                     42
                      A                      A                      A
 Frequencies --   1029.2244              1031.7837              1037.3564
 Red. masses --      1.5630                 2.0440                 1.6448
 Frc consts  --      0.9755                 1.2820                 1.0428
 IR Inten    --      0.7914                 2.2602                 4.4992

                     43                     44                     45
                      A                      A                      A
 Frequencies --   1043.4775              1047.8123              1068.4166
 Red. masses --      1.9738                 1.9377                 1.9087
 Frc consts  --      1.2662                 1.2534                 1.2837
 IR Inten    --      2.0322                 1.0516                 0.2880

                     46                     47                     48
                      A                      A                      A
 Frequencies --   1074.6642              1124.0623              1134.7354
 Red. masses --      2.1743                 2.4785                 2.7549
 Frc consts  --      1.4795                 1.8451                 2.0900
 IR Inten    --      0.7683                 9.1625                16.2873

                     49                     50                     51
                      A                      A                      A
 Frequencies --   1146.3208              1154.2594              1157.8156
 Red. masses --      1.1408                 1.9345                 2.0070
 Frc consts  --      0.8832                 1.5186                 1.5852
 IR Inten    --      2.7978                21.0181                 3.6511

                     52                     53                     54
                      A                      A                      A
 Frequencies --   1178.4106              1192.1128              1217.8173
 Red. masses --      1.5993                 1.7155                 2.0971
 Frc consts  --      1.3085                 1.4364                 1.8324
 IR Inten    --     23.7098                23.8441                 8.0076

                     55                     56                     57
                      A                      A                      A
 Frequencies --   1272.3975              1279.4323              1301.5132
 Red. masses --      1.2908                 1.2949                 1.2851
 Frc consts  --      1.2313                 1.2489                 1.2826
 IR Inten    --      3.4882                 1.0524                 0.9224

                     58                     59                     60
                      A                      A                      A
 Frequencies --   1307.2307              1310.1960              1317.0958
 Red. masses --      1.3145                 1.2494                 1.3998
 Frc consts  --      1.3234                 1.2637                 1.4307
 IR Inten    --     10.5244                 0.0238                 3.8752

                     61                     62                     63
                      A                      A                      A
 Frequencies --   1330.3656              1345.1487              1360.9171
 Red. masses --      1.2472                 1.2923                 1.3497
 Frc consts  --      1.3005                 1.3776                 1.4728
 IR Inten    --      2.7690                 1.8750                 1.7317

                     64                     65                     66
                      A                      A                      A
 Frequencies --   1378.0372              1378.3747              1387.3061
 Red. masses --      1.3052                 1.3395                 1.4049
 Frc consts  --      1.4603                 1.4994                 1.5931
 IR Inten    --      8.3244                 3.4791                 5.8978

                     67                     68                     69
                      A                      A                      A
 Frequencies --   1395.0719              1401.7504              1408.1482
 Red. masses --      1.3942                 1.3988                 1.4210
 Frc consts  --      1.5987                 1.6194                 1.6601
 IR Inten    --      3.4671                 1.9519                 1.6259

                     70                     71                     72
                      A                      A                      A
 Frequencies --   1411.9432              1424.5304              1438.7018
 Red. masses --      1.4699                 1.4716                 1.3608
 Frc consts  --      1.7266                 1.7594                 1.6595
 IR Inten    --      0.1800                 0.4570                 1.1521

                     73                     74                     75
                      A                      A                      A
 Frequencies --   1442.4124              1446.1092              1512.0417
 Red. masses --      1.2528                 1.2781                 1.1394
 Frc consts  --      1.5357                 1.5748                 1.5348
 IR Inten    --      1.5971                 9.7019                27.1033

                     76                     77                     78
                      A                      A                      A
 Frequencies --   1515.5350              1517.6684              1522.3466
 Red. masses --      1.0853                 1.0776                 1.0844
 Frc consts  --      1.4687                 1.4624                 1.4807
 IR Inten    --      2.3528                 7.9731                 3.9746

                     79                     80                     81
                      A                      A                      A
 Frequencies --   1523.1663              1530.0939              1531.5973
 Red. masses --      1.0577                 1.0887                 1.0864
 Frc consts  --      1.4458                 1.5017                 1.5015
 IR Inten    --      4.2199                 9.6396                23.3341

                     82                     83                     84
                      A                      A                      A
 Frequencies --   1535.9669              1537.0142              1539.9674
 Red. masses --      1.0468                 1.0504                 1.0865
 Frc consts  --      1.4550                 1.4620                 1.5181
 IR Inten    --      1.6719                 3.7350                 1.8008

                     85                     86                     87
                      A                      A                      A
 Frequencies --   1545.4306              1547.9135              2359.2537
 Red. masses --      1.1010                 1.0737                12.6532
 Frc consts  --      1.5493                 1.5157                41.4954
 IR Inten    --     33.6816                 2.6041                12.9158

                     88                     89                     90
                      A                      A                      A
 Frequencies --   2961.3508              3020.3358              3024.0914
 Red. masses --      1.0703                 1.0707                 1.0751
 Frc consts  --      5.5302                 5.7548                 5.7925
 IR Inten    --     43.5648                27.3995                11.3782

                     91                     92                     93
                      A                      A                      A
 Frequencies --   3031.4009              3040.8734              3045.7451
 Red. masses --      1.0645                 1.0685                 1.0631
 Frc consts  --      5.7632                 5.8211                 5.8103
 IR Inten    --     29.6745                22.6558                18.0133

                     94                     95                     96
                      A                      A                      A
 Frequencies --   3048.7367              3050.5792              3053.0702
 Red. masses --      1.0399                 1.0651                 1.0552
 Frc consts  --      5.6948                 5.8397                 5.7949
 IR Inten    --     32.5053                 7.9194                11.4339

                     97                     98                     99
                      A                      A                      A
 Frequencies --   3053.1441              3057.8401              3064.0928
 Red. masses --      1.0459                 1.0902                 1.0963
 Frc consts  --      5.7442                 6.0061                 6.0645
 IR Inten    --     21.0879                21.5488                50.3444

                    100                    101                    102
                      A                      A                      A
 Frequencies --   3067.1964              3075.7003              3078.5996
 Red. masses --      1.0833                 1.0976                 1.0839
 Frc consts  --      6.0047                 6.1177                 6.0526
 IR Inten    --     44.7490                31.4260                19.7686

                    103                    104                    105
                      A                      A                      A
 Frequencies --   3084.4677              3089.0765              3094.1667
 Red. masses --      1.0909                 1.1000                 1.1024
 Frc consts  --      6.1151                 6.1845                 6.2183
 IR Inten    --     38.9057                45.9110                37.3186

                    106                    107                    108
                      A                      A                      A
 Frequencies --   3101.3606              3112.2539              3116.1818
 Red. masses --      1.1025                 1.1018                 1.1017
 Frc consts  --      6.2478                 6.2879                 6.3029
 IR Inten    --     43.7756                31.5924                56.7216

                    109                    110                    111
                      A                      A                      A
 Frequencies --   3119.6538              3123.4997              3520.6906
 Red. masses --      1.1022                 1.1018                 1.0722
 Frc consts  --      6.3199                 6.3332                 7.8306
 IR Inten    --     46.1365                42.0651                 0.4249

 - Thermochemistry -
 -------------------
 Temperature   298.150 Kelvin.  Pressure   1.00000 Atm.
 Atom     1 has atomic number  6 and mass  12.00000

 Molecular mass:   208.19395 amu.
 Principal axes and moments of inertia in atomic units:
                           1         2         3
     Eigenvalues --  1620.100256931.367767270.39561
           X            0.99991  -0.01222  -0.00543
           Y            0.01185   0.99786  -0.06435
           Z            0.00621   0.06428   0.99791
 This molecule is an asymmetric top.
 Rotational symmetry number  1.
 Warning -- assumption of classical behavior for rotation
           may cause significant error
 Rotational temperatures (Kelvin)      0.05346     0.01250     0.01191
 Rotational constants (GHZ):           1.11397     0.26037     0.24823
 Zero-point vibrational energy     943427.1 (Joules/Mol)
                                  225.48448 (Kcal/Mol)
 Warning -- explicit consideration of  25 degrees of freedom as
           vibrations may cause significant error
 Vibrational temperatures:     18.57    52.48    93.42   125.56   147.23
          (Kelvin)            160.87   178.38   206.15   249.40   309.62
                              337.69   346.46   361.34   400.04   449.15
                              479.40   505.22   566.04   584.14   629.50
                              697.63   711.58   797.96   853.70   865.85
                              977.84  1089.65  1109.07  1135.62  1146.57
                             1190.73  1201.23  1242.24  1261.92  1314.00
                             1322.46  1384.22  1398.87  1437.30  1480.82
                             1484.51  1492.52  1501.33  1507.57  1537.21
                             1546.20  1617.27  1632.63  1649.30  1660.72
                             1665.84  1695.47  1715.18  1752.17  1830.70
                             1840.82  1872.59  1880.81  1885.08  1895.01
                             1914.10  1935.37  1958.06  1982.69  1983.17
                             1996.02  2007.20  2016.81  2026.01  2031.47
                             2049.58  2069.97  2075.31  2080.63  2175.49
                             2180.52  2183.59  2190.32  2191.50  2201.46
                             2203.63  2209.91  2211.42  2215.67  2223.53
                             2227.10  3394.44  4260.72  4345.59  4350.99
                             4361.51  4375.14  4382.15  4386.45  4389.10
                             4392.69  4392.79  4399.55  4408.55  4413.01
                             4425.25  4429.42  4437.86  4444.49  4451.82
                             4462.17  4477.84  4483.49  4488.49  4494.02
                             5065.49

 Zero-point correction=                           0.359332 (Hartree/Particle)
 Thermal correction to Energy=                    0.375930
 Thermal correction to Enthalpy=                  0.376874
 Thermal correction to Gibbs Free Energy=         0.313833
 Sum of electronic and zero-point Energies=           -619.046382
 Sum of electronic and thermal Energies=              -619.029784
 Sum of electronic and thermal Enthalpies=            -619.028840
 Sum of electronic and thermal Free Energies=         -619.091881

                     E (Thermal)             CV                S
                      KCal/Mol        Cal/Mol-Kelvin    Cal/Mol-Kelvin
 Total                  235.900             62.664            132.681
 Electronic               0.000              0.000              0.000
 Translational            0.889              2.981             41.904
 Rotational               0.889              2.981             32.768
 Vibrational            234.122             56.703             58.010
 Vibration     1          0.593              1.987              7.504
 Vibration     2          0.594              1.982              5.442
 Vibration     3          0.597              1.971              4.301
 Vibration     4          0.601              1.958              3.720
 Vibration     5          0.604              1.947              3.409
 Vibration     6          0.607              1.940              3.237
 Vibration     7          0.610              1.929              3.037
 Vibration     8          0.616              1.910              2.760
 Vibration     9          0.627              1.875              2.399
 Vibration    10          0.645              1.818              1.999
 Vibration    11          0.655              1.788              1.843
 Vibration    12          0.658              1.778              1.797
 Vibration    13          0.663              1.761              1.723
 Vibration    14          0.679              1.714              1.546
 Vibration    15          0.701              1.650              1.351
 Vibration    16          0.715              1.609              1.245
 Vibration    17          0.728              1.573              1.161
 Vibration    18          0.761              1.484              0.987
 Vibration    19          0.771              1.457              0.941
 Vibration    20          0.798              1.388              0.834
 Vibration    21          0.841              1.284              0.697
 Vibration    22          0.850              1.262              0.672
 Vibration    23          0.910              1.130              0.535
 Vibration    24          0.951              1.046              0.461
 Vibration    25          0.960              1.028              0.447

 Optimization completed.
    -- Stationary point found.
 Normal termination of Gaussian 16 at Thu Dec 10 16:46:38 2020.

 ----------------------------------------------------------------------
 # B3LYP/6-311++G(d,p) empiricaldispersion=gd3bj scf=xqc pop=npa geom=c
 heck
 ----------------------------------------------------------------------

 ---------------------------------------
 CID_116372901_JID_5487_Energie_neutraal
 ---------------------------------------
 Structure from the checkpoint file:  "JID_5487.chk"
 Charge =  0 Multiplicity = 1

 SCF Done:  E(RB3LYP) =  -619.578694781     A.U. after   14 cycles
 Normal termination of Gaussian 16 at Thu Dec 10 16:54:42 2020.

 ----------------------------------------------------------------------
 # B3LYP/6-311++G(d,p) empiricaldispersion=gd3bj scf=xqc pop=npa geom=c
 heck
 ----------------------------------------------------------------------

 -------------------------------------
 CID_116372901_JID_5487_Energie_kation
 -------------------------------------
 Structure from the checkpoint file:  "JID_5487.chk"
 Charge =  1 Multiplicity = 2

 SCF Done:  E(UB3LYP) =  -619.265195578     A.U. after   20 cycles
 Normal termination of Gaussian 16 at Thu Dec 10 17:10:08 2020.
 Gaussian 16:  ES64L-G16RevA.03 25-Dec-2016

 ----------------------------------------------------------------------
 # B3LYP/6-311++G(d,p) empiricaldispersion=gd3bj scf=xqc pop=npa geom=c
 heck
 ----------------------------------------------------------------------

 ------------------------------------
 CID_116372901_JID_5487_Energie_anion
 ------------------------------------
 Structure from the checkpoint file:  "JID_5487.chk"
 Charge = -1 Multiplicity = 2

                         Standard orientation:
 ---------------------------------------------------------------------
 Center     Atomic      Atomic             Coordinates (Angstroms)
 Number     Number       Type             X           Y           Z
 ---------------------------------------------------------------------
      1          6           0        3.988175    1.820087   -0.792380
      2          6           0        2.715944    1.191964   -0.216010
      3          6           0        2.491793   -0.277901   -0.620799
      4          6           0        3.692791   -1.189836   -0.292754
      5          6           0        4.111330   -1.232237    1.181851
      6          6           0        1.197411   -0.837042   -0.010721
      7          7           0        0.013496   -0.144612   -0.522818
      8          6           0       -1.260436   -0.728159   -0.098548
      9          6           0       -1.614607   -0.534499    1.391479
     10          6           0       -1.874766    0.939838    1.732253
     11          6           0       -2.974133    1.535165    0.840798
     12          6           0       -2.652835    1.353473   -0.647902
     13          6           0       -2.381732   -0.130275   -0.996430
     14          6           0       -3.613501   -0.917066   -0.863269
     15          7           0       -4.587067   -1.536369   -0.732017
     16          1           0        4.892627    1.353286   -0.388669
     17          1           0        4.037061    2.889443   -0.559579
     18          1           0        4.018185    1.714139   -1.883578
     19          1           0        2.728158    1.273953    0.879964
     20          1           0        1.858477    1.785917   -0.558428
     21          1           0        2.354044   -0.300872   -1.711177
     22          1           0        3.451215   -2.207845   -0.626927
     23          1           0        4.551595   -0.874769   -0.897246
     24          1           0        3.301236   -1.588338    1.827412
     25          1           0        4.962621   -1.907721    1.320340
     26          1           0        4.413986   -0.244105    1.545917
     27          1           0        1.100895   -1.894207   -0.289657
     28          1           0        1.267978   -0.808698    1.091121
     29          1           0        0.049925    0.828124   -0.230156
     30          1           0       -1.196648   -1.801354   -0.312179
     31          1           0       -0.808409   -0.936915    2.015067
     32          1           0       -2.511889   -1.123998    1.619661
     33          1           0       -0.948161    1.519799    1.607341
     34          1           0       -2.151022    1.034971    2.788510
     35          1           0       -3.112508    2.599979    1.061752
     36          1           0       -3.928140    1.038945    1.063134
     37          1           0       -1.757727    1.928172   -0.917508
     38          1           0       -3.468778    1.734028   -1.271220
     39          1           0       -2.042331   -0.206142   -2.035447
 ---------------------------------------------------------------------

 SCF Done:  E(UB3LYP) =  -619.569107805     A.U. after   30 cycles

 The electronic state is 2-A.
 Alpha  occ. eigenvalues --  -14.22486 -14.20999 -10.12637 -10.12363 -10.12335
 Alpha  occ. eigenvalues --  -10.09930 -10.09180 -10.07895 -10.07859 -10.07788
 Alpha  occ. eigenvalues --  -10.07690 -10.07493 -10.07105 -10.06693 -10.06643
 Alpha  occ. eigenvalues --   -0.83356  -0.81984  -0.74943  -0.71788  -0.67947
 Alpha  occ. eigenvalues --   -0.65684  -0.65565  -0.61256  -0.55289  -0.54556
 Alpha  occ. eigenvalues --   -0.53365  -0.52581  -0.48053  -0.45411  -0.42444
 Alpha  occ. eigenvalues --   -0.40530  -0.39355  -0.38534  -0.37122  -0.36490
 Alpha  occ. eigenvalues --   -0.34813  -0.33300  -0.32650  -0.31549  -0.31487
 Alpha  occ. eigenvalues --   -0.31232  -0.30570  -0.29854  -0.29303  -0.28358
 Alpha  occ. eigenvalues --   -0.27733  -0.27443  -0.26519  -0.25780  -0.25228
 Alpha  occ. eigenvalues --   -0.25040  -0.23663  -0.23112  -0.22776  -0.22389
 Alpha  occ. eigenvalues --   -0.22014  -0.21690  -0.14202   0.03914
 Alpha virt. eigenvalues --    0.05886   0.06515   0.06901   0.07855   0.07991
 Alpha virt. eigenvalues --    0.08320   0.09193   0.09476   0.10125   0.10410
 Alpha virt. eigenvalues --    0.10471   0.10887   0.11401   0.11623   0.11909

  Beta  occ. eigenvalues --  -14.22480 -14.20984 -10.12633 -10.12361 -10.12335
  Beta  occ. eigenvalues --  -10.09916 -10.09156 -10.07878 -10.07856 -10.07778
  Beta  occ. eigenvalues --  -10.07664 -10.07482 -10.07080 -10.06670 -10.06612
  Beta  occ. eigenvalues --   -0.83338  -0.81971  -0.74916  -0.71760  -0.67914
  Beta  occ. eigenvalues --   -0.65651  -0.65529  -0.61219  -0.55246  -0.54504
  Beta  occ. eigenvalues --   -0.53304  -0.52526  -0.48007  -0.45359  -0.42405
  Beta  occ. eigenvalues --   -0.40498  -0.39323  -0.38499  -0.37101  -0.36461
  Beta  occ. eigenvalues --   -0.34790  -0.33266  -0.32611  -0.31520  -0.31457
  Beta  occ. eigenvalues --   -0.31198  -0.30539  -0.29819  -0.29271  -0.28337
  Beta  occ. eigenvalues --   -0.27684  -0.27419  -0.26489  -0.25754  -0.25205
  Beta  occ. eigenvalues --   -0.25012  -0.23626  -0.23083  -0.22746  -0.22359
  Beta  occ. eigenvalues --   -0.21983  -0.21664  -0.14172
  Beta virt. eigenvalues --    0.05966   0.06652   0.07068   0.07318   0.08212
  Beta virt. eigenvalues --    0.08391   0.08619   0.09505   0.09855   0.10434
  Beta virt. eigenvalues --    0.10601   0.10722   0.11104   0.11611   0.11729

 Mulliken charges and spin densities:
               1          2
     1  C    0.669356  -1.322661
     2  C   -1.033848   0.723062
     3  C    1.417492  -0.492783
     4  C   -0.857155   0.424661
     5  C    0.665006  -1.257053
     6  C   -1.613746   0.507158
     7  N    0.263998  -0.071700
     8  C   -0.314849   0.020317
     9  C    0.043982  -0.538772
    10  C   -0.237755  -0.089028
    11  C    0.724474  -1.240748
    12  C   -0.303325  -0.104619
    13  C    0.806150   0.110072
    14  C   -0.148911  -0.420535
    15  N   -0.318208   0.024341
    16  H    0.117919   0.019892
    17  H   -0.232515   0.374633
    18  H   -0.073837   0.218275
    19  H   -0.212687   0.367717
    20  H   -0.216452   0.356827
    21  H    0.055880   0.147864
    22  H    0.053432   0.069499
    23  H   -0.073629   0.242822
    24  H   -0.428851   0.567354
    25  H   -0.290795   0.430582
    26  H   -0.049671   0.196231
    27  H   -0.164628   0.290598
    28  H    0.851431  -0.689126
    29  H    1.257313  -1.121654
    30  H    0.211707   0.032892
    31  H   -0.225990   0.388555
    32  H    0.092476   0.086570
    33  H   -0.399175   0.554783
    34  H   -0.305197   0.477674
    35  H   -0.325104   0.504756
    36  H    0.193316  -0.026065
    37  H   -0.610858   0.784719
    38  H   -0.103062   0.297514
    39  H    0.116314   0.155377
 Sum of Mulliken charges =  -1.00000   1.00000

 Dipole moment (field-independent basis, Debye):
    X=             -0.1798    Y=             -2.4969    Z=             -1.9787  Tot=              3.1909
 Quadrupole moment (field-independent basis, Debye-Ang):
   XX=           -190.5612   YY=           -149.8583   ZZ=           -136.1047
   XY=             -2.4592   XZ=             -6.8126   YZ=              0.4087

 Summary of Natural Population Analysis:

                                       Natural Population
                Natural  -----------------------------------------------
    Atom  No    Charge         Core      Valence    Rydberg      Total
 -----------------------------------------------------------------------
      C    1   -0.28322      0.99966     2.27927    0.00428     3.28322
      C    2   -0.19359      0.99962     2.18473    0.00924     3.19359
      C    3   -0.11045      0.99959     2.10061    0.01026     3.11045
      C    4   -0.19018      0.99962     2.18136    0.00920     3.19018
      C    5   -0.28999      0.99966     2.28496    0.00536     3.28999
      C    6   -0.08121      0.99959     2.07219    0.00942     3.08121
      N    7   -0.34749      0.99973     2.83701    0.01075     3.84749
      C    8    0.00423      0.99958     1.98330    0.01289     2.99577
      C    9   -0.20291      0.99960     2.19441    0.00890     3.20291
      C   10   -0.19369      0.99963     2.18486    0.00921     3.19369
      C   11   -0.19412      0.99962     2.18530    0.00920     3.19412
      C   12   -0.18372      0.99962     2.17432    0.00979     3.18372
      C   13   -0.16652      0.99949     2.15648    0.01055     3.16652
      C   14    0.16665      0.99965     1.81443    0.01927     2.83335
      N   15   -0.19037      0.99979     2.67927    0.01131     3.69037
      H   16    0.09544      0.00000     0.40350    0.00106     0.40456
      H   17    0.10069      0.00000     0.39832    0.00099     0.39931
      H   18    0.09494      0.00000     0.40395    0.00112     0.40506
      H   19    0.09600      0.00000     0.40244    0.00156     0.40400
      H   20    0.09747      0.00000     0.40084    0.00168     0.40253
      H   21    0.09733      0.00000     0.40087    0.00180     0.40267
      H   22    0.09488      0.00000     0.40407    0.00105     0.40512
      H   23    0.09693      0.00000     0.40205    0.00103     0.40307
      H   24    0.09763      0.00000     0.40118    0.00119     0.40237
      H   25    0.09874      0.00000     0.40029    0.00098     0.40126
      H   26    0.09797      0.00000     0.40102    0.00101     0.40203
      H   27    0.09132      0.00000     0.40728    0.00140     0.40868
      H   28    0.08215      0.00000     0.41611    0.00174     0.41785
      H   29    0.17633      0.00000     0.31834    0.00534     0.32367
      H   30    0.09796      0.00000     0.40022    0.00183     0.40204
      H   31    0.10472      0.00000     0.39424    0.00104     0.39528
      H   32    0.10127      0.00000     0.39752    0.00120     0.39873
      H   33    0.09519      0.00000     0.40253    0.00228     0.40481
      H   34    0.10300      0.00000     0.39595    0.00105     0.39700
      H   35    0.10493      0.00000     0.39378    0.00129     0.39507
      H   36    0.09621      0.00000     0.40250    0.00129     0.40379
      H   37    0.10382      0.00000     0.39445    0.00173     0.39618
      H   38    0.10404      0.00000     0.39464    0.00131     0.39596
      H   39    0.12763      0.00000     0.37064    0.00173     0.37237
 =======================================================================
   * Total *    0.00000     14.99444    42.81922    0.18634    58.00000

 Normal termination of Gaussian 16 at Thu Dec 10 17:33:25 2020.
