 Gaussian 16, Revision A.03,

 -----------------------------------------------------------
 # opt freq B3LYP/6-31G(d) empiricaldispersion=gd3bj scf=xqc
 -----------------------------------------------------------

 ------------------------------
 CID_61461244_JID_6587_neutraal
 ------------------------------
 Symbolic Z-matrix:
 Charge =  0 Multiplicity = 1

 SCF Done:  E(RB3LYP) =  -1047.24609067     A.U. after   15 cycles
 SCF Done:  E(RB3LYP) =  -1047.25371899     A.U. after   13 cycles
 SCF Done:  E(RB3LYP) =  -1047.25572034     A.U. after   14 cycles
 SCF Done:  E(RB3LYP) =  -1047.25556961     A.U. after   14 cycles
 SCF Done:  E(RB3LYP) =  -1047.25599770     A.U. after   13 cycles
 SCF Done:  E(RB3LYP) =  -1047.25698188     A.U. after   12 cycles
 SCF Done:  E(RB3LYP) =  -1047.25720543     A.U. after   12 cycles
 SCF Done:  E(RB3LYP) =  -1047.25724629     A.U. after   12 cycles
 SCF Done:  E(RB3LYP) =  -1047.25727333     A.U. after   10 cycles
 SCF Done:  E(RB3LYP) =  -1047.25728656     A.U. after   10 cycles
 SCF Done:  E(RB3LYP) =  -1047.25729020     A.U. after    9 cycles
 SCF Done:  E(RB3LYP) =  -1047.25729095     A.U. after    8 cycles
 SCF Done:  E(RB3LYP) =  -1047.25729116     A.U. after    8 cycles
 Optimization completed.
    -- Stationary point found.
 Normal termination of Gaussian 16 at Thu Dec 10 23:46:31 2020.

 --------------------------------------------------------------------
 #N Geom=AllCheck Guess=TCheck SCRF=Check GenChk RB3LYP/6-31G(d) Freq
 --------------------------------------------------------------------

 Structure from the checkpoint file:  "JID_6587.chk"
 ------------------------------
 CID_61461244_JID_6587_neutraal
 ------------------------------
 Charge =  0 Multiplicity = 1

 SCF Done:  E(RB3LYP) =  -1047.25729116     A.U. after    1 cycles

  Exact polarizability: 161.229  26.214 141.228  -2.093   5.556 141.000
 Approx polarizability: 216.191  47.218 215.216  -5.635  22.113 253.654

                      1                      2                      3
                      A                      A                      A
 Frequencies --     37.1772                48.5032                63.9943
 Red. masses --      4.4590                 5.4184                 3.8067
 Frc consts  --      0.0036                 0.0075                 0.0092
 IR Inten    --      0.1443                 1.3752                 0.5922

                      4                      5                      6
                      A                      A                      A
 Frequencies --     86.0102                96.7951               103.8624
 Red. masses --      3.0792                 3.7608                 4.0183
 Frc consts  --      0.0134                 0.0208                 0.0255
 IR Inten    --      0.6708                 0.2745                 5.1995

                      7                      8                      9
                      A                      A                      A
 Frequencies --    117.2475               132.5145               149.6620
 Red. masses --      3.9825                 2.1191                 3.7166
 Frc consts  --      0.0323                 0.0219                 0.0490
 IR Inten    --      0.2380                 0.7348                 0.8858

                     10                     11                     12
                      A                      A                      A
 Frequencies --    227.5248               229.0072               245.1349
 Red. masses --      1.1539                 1.4651                 2.2350
 Frc consts  --      0.0352                 0.0453                 0.0791
 IR Inten    --      0.3287                 0.1386                 0.5424

                     13                     14                     15
                      A                      A                      A
 Frequencies --    278.6126               295.7217               364.8624
 Red. masses --      2.8132                 4.0666                 2.7470
 Frc consts  --      0.1287                 0.2095                 0.2155
 IR Inten    --      0.8195                 5.7459                 4.2240

                     16                     17                     18
                      A                      A                      A
 Frequencies --    372.8393               385.9730               415.9280
 Red. masses --      2.8833                 2.7913                 3.4631
 Frc consts  --      0.2361                 0.2450                 0.3530
 IR Inten    --     14.9505                 4.9638                 3.0961

                     19                     20                     21
                      A                      A                      A
 Frequencies --    453.3316               465.3217               534.2006
 Red. masses --      2.1917                 2.4210                 2.6988
 Frc consts  --      0.2654                 0.3089                 0.4538
 IR Inten    --      5.9550                21.7376                86.4049

                     22                     23                     24
                      A                      A                      A
 Frequencies --    553.1957               616.9845               630.2993
 Red. masses --      2.8758                 9.9162                 3.4026
 Frc consts  --      0.5185                 2.2241                 0.7964
 IR Inten    --     42.9023                13.8498                14.1823

                     25                     26                     27
                      A                      A                      A
 Frequencies --    654.6498               672.9390               744.8879
 Red. masses --      6.5477                 6.8730                 1.2968
 Frc consts  --      1.6533                 1.8338                 0.4239
 IR Inten    --      8.4611                 0.9222                59.1858

                     28                     29                     30
                      A                      A                      A
 Frequencies --    751.4036               767.2211               775.9579
 Red. masses --      3.4619                 3.9620                 1.5742
 Frc consts  --      1.1516                 1.3741                 0.5585
 IR Inten    --      2.2976                 4.5105                 1.8232

                     31                     32                     33
                      A                      A                      A
 Frequencies --    816.5054               820.3549               853.9958
 Red. masses --      2.0701                 1.6903                 1.8337
 Frc consts  --      0.8131                 0.6702                 0.7879
 IR Inten    --      4.6556                 4.3335                 2.3993

                     34                     35                     36
                      A                      A                      A
 Frequencies --    870.0797               876.8405               928.1304
 Red. masses --      2.3408                 1.2964                 1.7331
 Frc consts  --      1.0441                 0.5872                 0.8796
 IR Inten    --      4.5240                 3.2961                 2.7103

                     37                     38                     39
                      A                      A                      A
 Frequencies --    929.8278               944.3693               950.8362
 Red. masses --      1.5274                 5.5764                 1.9580
 Frc consts  --      0.7781                 2.9301                 1.0430
 IR Inten    --      1.4965                 3.5006                 5.0147

                     40                     41                     42
                      A                      A                      A
 Frequencies --    962.7454               996.1768              1040.2521
 Red. masses --      1.7604                 2.4084                 2.9466
 Frc consts  --      0.9614                 1.4082                 1.8787
 IR Inten    --     13.8510                10.7916                54.6483

                     43                     44                     45
                      A                      A                      A
 Frequencies --   1061.7259              1068.8660              1104.8893
 Red. masses --      2.1557                 1.5290                 1.5682
 Frc consts  --      1.4318                 1.0292                 1.1280
 IR Inten    --      3.0103                 5.3007                 3.6941

                     46                     47                     48
                      A                      A                      A
 Frequencies --   1111.6078              1120.2151              1131.9757
 Red. masses --      1.7210                 1.9172                 1.8468
 Frc consts  --      1.2529                 1.4175                 1.3943
 IR Inten    --     25.2107                13.2421                 7.1867

                     49                     50                     51
                      A                      A                      A
 Frequencies --   1144.1647              1179.5412              1203.4121
 Red. masses --      2.0342                 2.2075                 1.6420
 Frc consts  --      1.5690                 1.8096                 1.4010
 IR Inten    --     16.3477                24.0097                 8.7054

                     52                     53                     54
                      A                      A                      A
 Frequencies --   1225.4960              1255.3013              1262.3394
 Red. masses --      1.8710                 1.9910                 1.8479
 Frc consts  --      1.6555                 1.8485                 1.7349
 IR Inten    --     75.4599                23.9967                40.9040

                     55                     56                     57
                      A                      A                      A
 Frequencies --   1274.4248              1309.3194              1322.6738
 Red. masses --      1.5438                 1.2301                 1.2640
 Frc consts  --      1.4773                 1.2425                 1.3029
 IR Inten    --     31.4455                 3.5866                19.5220

                     58                     59                     60
                      A                      A                      A
 Frequencies --   1334.6272              1344.4039              1360.6850
 Red. masses --      1.9064                 1.7529                 1.3201
 Frc consts  --      2.0007                 1.8667                 1.4400
 IR Inten    --      3.0715                12.5402                 2.7047

                     61                     62                     63
                      A                      A                      A
 Frequencies --   1380.2214              1396.3751              1402.6099
 Red. masses --      1.8544                 1.5246                 1.4641
 Frc consts  --      2.0814                 1.7514                 1.6971
 IR Inten    --     15.4220                 7.6350                 5.0118

                     64                     65                     66
                      A                      A                      A
 Frequencies --   1414.2289              1439.9481              1441.9721
 Red. masses --      1.4792                 1.3502                 1.2407
 Frc consts  --      1.7431                 1.6494                 1.5200
 IR Inten    --      2.4120                 0.5670                 1.8889

                     67                     68                     69
                      A                      A                      A
 Frequencies --   1445.7449              1492.2008              1500.8374
 Red. masses --      3.2446                 1.9069                 1.5406
 Frc consts  --      3.9957                 2.5016                 2.0446
 IR Inten    --     26.8772                 9.5201                15.0050

                     70                     71                     72
                      A                      A                      A
 Frequencies --   1502.8814              1517.8338              1518.5936
 Red. masses --      1.0921                 1.0721                 1.0968
 Frc consts  --      1.4533                 1.4552                 1.4902
 IR Inten    --      3.8209                 4.7600                27.9037

                     73                     74                     75
                      A                      A                      A
 Frequencies --   1527.6566              1532.2642              1535.8190
 Red. masses --      1.0579                 1.0470                 1.0607
 Frc consts  --      1.4546                 1.4484                 1.4741
 IR Inten    --      7.8875                 9.2740                 5.9310

                     76                     77                     78
                      A                      A                      A
 Frequencies --   1548.6798              1571.2737              1729.7844
 Red. masses --      1.4230                 4.0556                 9.1659
 Frc consts  --      2.0108                 5.8995                16.1588
 IR Inten    --    120.4896                18.9862               281.2021

                     79                     80                     81
                      A                      A                      A
 Frequencies --   3042.2669              3044.0207              3044.6627
 Red. masses --      1.0721                 1.0425                 1.0421
 Frc consts  --      5.8462                 5.6914                 5.6917
 IR Inten    --      5.4528                28.1032                17.6442

                     82                     83                     84
                      A                      A                      A
 Frequencies --   3053.9878              3062.0482              3086.9244
 Red. masses --      1.0679                 1.0639                 1.0997
 Frc consts  --      5.8685                 5.8771                 6.1741
 IR Inten    --     35.2975                42.6158                 0.9331

                     85                     86                     87
                      A                      A                      A
 Frequencies --   3097.8194              3108.3608              3111.5800
 Red. masses --      1.0598                 1.0950                 1.1029
 Frc consts  --      5.9921                 6.2334                 6.2913
 IR Inten    --     24.1199                16.4395                51.9077

                     88                     89                     90
                      A                      A                      A
 Frequencies --   3116.3415              3125.8471              3141.9085
 Red. masses --      1.1008                 1.0958                 1.0942
 Frc consts  --      6.2984                 6.3084                 6.3643
 IR Inten    --     40.9255                 4.4358                19.4242

                     91                     92                     93
                      A                      A                      A
 Frequencies --   3146.0251              3156.8731              3254.2744
 Red. masses --      1.0996                 1.1081                 1.0925
 Frc consts  --      6.4125                 6.5062                 6.8170
 IR Inten    --     13.1005                12.0044                 6.4976

                     94                     95                     96
                      A                      A                      A
 Frequencies --   3270.5673              3287.7904              3586.1467
 Red. masses --      1.0930                 1.1061                 1.0758
 Frc consts  --      6.8886                 7.0446                 8.1519
 IR Inten    --      3.4595                 1.2767                13.9483

 - Thermochemistry -
 -------------------
 Temperature   298.150 Kelvin.  Pressure   1.00000 Atm.
 Atom     1 has atomic number  6 and mass  12.00000

 Molecular mass:   238.12522 amu.
 Principal axes and moments of inertia in atomic units:
                           1         2         3
     Eigenvalues --  2742.240004877.615285773.78490
           X            0.99871   0.04799   0.01677
           Y           -0.04724   0.99797  -0.04260
           Z           -0.01878   0.04175   0.99895
 This molecule is an asymmetric top.
 Rotational symmetry number  1.
 Warning -- assumption of classical behavior for rotation
           may cause significant error
 Rotational temperatures (Kelvin)      0.03159     0.01776     0.01500
 Rotational constants (GHZ):           0.65813     0.37000     0.31258
 Zero-point vibrational energy     763898.9 (Joules/Mol)
                                  182.57621 (Kcal/Mol)
 Warning -- explicit consideration of  23 degrees of freedom as
           vibrations may cause significant error
 Vibrational temperatures:     53.49    69.79    92.07   123.75   139.27
          (Kelvin)            149.43   168.69   190.66   215.33   327.36
                              329.49   352.69   400.86   425.48   524.96
                              536.43   555.33   598.43   652.24   669.49
                              768.60   795.93   887.70   906.86   941.89
                              968.21  1071.73  1081.10  1103.86  1116.43
                             1174.77  1180.31  1228.71  1251.85  1261.58
                             1335.37  1337.81  1358.74  1368.04  1385.18
                             1433.28  1496.69  1527.59  1537.86  1589.69
                             1599.36  1611.74  1628.66  1646.20  1697.10
                             1731.44  1763.22  1806.10  1816.22  1833.61
                             1883.82  1903.03  1920.23  1934.30  1957.72
                             1985.83  2009.07  2018.04  2034.76  2071.76
                             2074.68  2080.10  2146.94  2159.37  2162.31
                             2183.82  2184.92  2197.96  2204.59  2209.70
                             2228.20  2260.71  2488.77  4377.14  4379.67
                             4380.59  4394.01  4405.60  4441.40  4457.07
                             4472.24  4476.87  4483.72  4497.40  4520.51
                             4526.43  4542.04  4682.18  4705.62  4730.40
                             5159.67

 Zero-point correction=                           0.290954 (Hartree/Particle)
 Thermal correction to Energy=                    0.307090
 Thermal correction to Enthalpy=                  0.308034
 Thermal correction to Gibbs Free Energy=         0.246552
 Sum of electronic and zero-point Energies=          -1046.966337
 Sum of electronic and thermal Energies=             -1046.950201
 Sum of electronic and thermal Enthalpies=           -1046.949257
 Sum of electronic and thermal Free Energies=        -1047.010739

                     E (Thermal)             CV                S
                      KCal/Mol        Cal/Mol-Kelvin    Cal/Mol-Kelvin
 Total                  192.702             60.851            129.401
 Electronic               0.000              0.000              0.000
 Translational            0.889              2.981             42.304
 Rotational               0.889              2.981             32.713
 Vibrational            190.925             54.889             54.384
 Vibration     1          0.594              1.982              5.404
 Vibration     2          0.595              1.978              4.877
 Vibration     3          0.597              1.971              4.330
 Vibration     4          0.601              1.959              3.749
 Vibration     5          0.603              1.951              3.518
 Vibration     6          0.605              1.946              3.381
 Vibration     7          0.608              1.935              3.145
 Vibration     8          0.613              1.921              2.909
 Vibration     9          0.618              1.903              2.677
 Vibration    10          0.651              1.799              1.898
 Vibration    11          0.652              1.797              1.887
 Vibration    12          0.660              1.771              1.765
 Vibration    13          0.679              1.713              1.542
 Vibration    14          0.690              1.682              1.441
 Vibration    15          0.738              1.545              1.101
 Vibration    16          0.744              1.528              1.068
 Vibration    17          0.755              1.500              1.016
 Vibration    18          0.779              1.436              0.906
 Vibration    19          0.812              1.354              0.786
 Vibration    20          0.823              1.327              0.751
 Vibration    21          0.889              1.174              0.578
 Vibration    22          0.909              1.133              0.538
 Vibration    23          0.977              0.996              0.421

                           ! Non-Optimized Parameters !
 Normal termination of Gaussian 16 at Thu Dec 10 23:59:04 2020.

 ----------------------------------------------------------------------
 # B3LYP/6-311++G(d,p) empiricaldispersion=gd3bj scf=xqc pop=npa geom=c
 heck
 ----------------------------------------------------------------------

 --------------------------------------
 CID_61461244_JID_6587_Energie_neutraal
 --------------------------------------
 Structure from the checkpoint file:  "JID_6587.chk"
 Charge =  0 Multiplicity = 1

 SCF Done:  E(RB3LYP) =  -1047.46144710     A.U. after   16 cycles
 Normal termination of Gaussian 16 at Fri Dec 11 00:05:56 2020.

 ----------------------------------------------------------------------
 # B3LYP/6-311++G(d,p) empiricaldispersion=gd3bj scf=xqc pop=npa geom=c
 heck
 ----------------------------------------------------------------------

 ------------------------------------
 CID_61461244_JID_6587_Energie_kation
 ------------------------------------
 Structure from the checkpoint file:  "JID_6587.chk"
 Charge =  1 Multiplicity = 2

 SCF Done:  E(UB3LYP) =  -1047.17416896     A.U. after   28 cycles
 Normal termination of Gaussian 16 at Fri Dec 11 00:22:51 2020.
 Gaussian 16:  ES64L-G16RevA.03 25-Dec-2016

 ----------------------------------------------------------------------
 # B3LYP/6-311++G(d,p) empiricaldispersion=gd3bj scf=xqc pop=npa geom=c
 heck
 ----------------------------------------------------------------------

 -----------------------------------
 CID_61461244_JID_6587_Energie_anion
 -----------------------------------
 Structure from the checkpoint file:  "JID_6587.chk"
 Charge = -1 Multiplicity = 2

                         Standard orientation:
 ---------------------------------------------------------------------
 Center     Atomic      Atomic             Coordinates (Angstroms)
 Number     Number       Type             X           Y           Z
 ---------------------------------------------------------------------
      1          6           0       -4.450769   -0.030095   -1.247414
      2          6           0       -3.072733    0.626970   -1.145538
      3          6           0       -2.000945   -0.271743   -0.507598
      4          6           0       -2.221210   -0.505790    1.013938
      5         16           0       -1.249544    0.809843    1.846423
      6          6           0       -0.241913    0.895053    0.340894
      7          7           0       -0.680965    0.315627   -0.703584
      8          7           0        0.929642    1.607813    0.419700
      9          6           0        1.969786    1.417502   -0.590031
     10          6           0        2.772900    2.704443   -0.769323
     11          6           0        2.899701    0.240849   -0.224584
     12          7           0        2.194868   -1.014926   -0.074331
     13          6           0        1.628819   -1.525429    1.053296
     14          6           0        0.904072   -2.636431    0.666677
     15          6           0        1.090219   -2.706608   -0.733244
     16          7           0        1.867146   -1.721831   -1.180744
     17          1           0       -4.402537   -0.957929   -1.830663
     18          1           0       -5.167426    0.635983   -1.739712
     19          1           0       -4.862022   -0.279843   -0.262132
     20          1           0       -2.714552    0.897938   -2.145093
     21          1           0       -3.133296    1.560642   -0.571115
     22          1           0       -2.019510   -1.248345   -1.007827
     23          1           0       -3.268839   -0.430436    1.311356
     24          1           0       -1.823443   -1.475526    1.322037
     25          1           0        1.263078    1.782482    1.359490
     26          1           0        1.446915    1.159531   -1.513102
     27          1           0        3.277767    2.990146    0.162928
     28          1           0        3.540534    2.580316   -1.540605
     29          1           0        2.112431    3.524892   -1.061878
     30          1           0        3.650789    0.103997   -1.006973
     31          1           0        3.420490    0.452700    0.717018
     32          1           0        1.778715   -1.065734    2.019070
     33          1           0        0.347458   -3.307959    1.304035
     34          1           0        0.703765   -3.439451   -1.429320
 ---------------------------------------------------------------------

 SCF Done:  E(UB3LYP) =  -1047.44793615     A.U. after   33 cycles
 SCF Done:  E(UB3LYP) =  -1047.44793615     a.u. after    1 cycles

 The electronic state is 2-A.
 Alpha  occ. eigenvalues --  -88.74943 -14.28400 -14.22598 -14.22320 -14.18085
 Alpha  occ. eigenvalues --  -10.15852 -10.11375 -10.10761 -10.10672 -10.10499
 Alpha  occ. eigenvalues --  -10.10035 -10.08833 -10.08809 -10.08098 -10.06541
 Alpha  occ. eigenvalues --  -10.05500  -7.83576  -5.79930  -5.79615  -5.78971
 Alpha  occ. eigenvalues --   -0.94648  -0.86981  -0.80667  -0.74049  -0.70060
 Alpha  occ. eigenvalues --   -0.68628  -0.67719  -0.66155  -0.60911  -0.58728
 Alpha  occ. eigenvalues --   -0.54929  -0.51272  -0.50356  -0.49748  -0.46398
 Alpha  occ. eigenvalues --   -0.45835  -0.42994  -0.39532  -0.38579  -0.37712
 Alpha  occ. eigenvalues --   -0.36844  -0.36219  -0.34289  -0.33989  -0.33485
 Alpha  occ. eigenvalues --   -0.31721  -0.31314  -0.30422  -0.30280  -0.28710
 Alpha  occ. eigenvalues --   -0.28226  -0.27914  -0.27053  -0.26663  -0.26291
 Alpha  occ. eigenvalues --   -0.25118  -0.24442  -0.22765  -0.19277  -0.16234
 Alpha  occ. eigenvalues --   -0.15597  -0.14824  -0.13882  -0.12313   0.05039
 Alpha virt. eigenvalues --    0.05851   0.07448   0.07944   0.08197   0.08833
 Alpha virt. eigenvalues --    0.09165   0.09881   0.09957   0.10532   0.10677
 Alpha virt. eigenvalues --    0.11448   0.11585   0.11961   0.12344   0.12629

  Beta  occ. eigenvalues --  -88.74934 -14.28397 -14.22538 -14.22308 -14.18081
  Beta  occ. eigenvalues --  -10.15842 -10.11372 -10.10760 -10.10639 -10.10455
  Beta  occ. eigenvalues --  -10.10005 -10.08830 -10.08809 -10.08097 -10.06539
  Beta  occ. eigenvalues --  -10.05445  -7.83565  -5.79907  -5.79610  -5.78963
  Beta  occ. eigenvalues --   -0.94629  -0.86936  -0.80620  -0.74014  -0.70044
  Beta  occ. eigenvalues --   -0.68591  -0.67667  -0.66118  -0.60873  -0.58659
  Beta  occ. eigenvalues --   -0.54900  -0.51189  -0.50331  -0.49702  -0.46338
  Beta  occ. eigenvalues --   -0.45758  -0.42936  -0.39514  -0.38507  -0.37675
  Beta  occ. eigenvalues --   -0.36798  -0.36177  -0.34260  -0.33965  -0.33441
  Beta  occ. eigenvalues --   -0.31702  -0.31259  -0.30391  -0.30221  -0.28664
  Beta  occ. eigenvalues --   -0.28195  -0.27872  -0.27014  -0.26642  -0.26233
  Beta  occ. eigenvalues --   -0.25065  -0.24380  -0.22709  -0.19259  -0.16195
  Beta  occ. eigenvalues --   -0.15563  -0.14776  -0.13843  -0.12276
  Beta virt. eigenvalues --    0.05797   0.07413   0.08083   0.08150   0.08977
  Beta virt. eigenvalues --    0.09042   0.09632   0.09995   0.10077   0.10748
  Beta virt. eigenvalues --    0.11436   0.11753   0.11908   0.12125   0.12688

 Mulliken charges and spin densities:
               1          2
     1  C   -0.642910  -0.001775
     2  C   -0.088348  -0.003757
     3  C   -0.099599  -0.107652
     4  C   -0.546532   0.163589
     5  S    0.132769  -0.463372
     6  C   -0.144838  -0.031798
     7  N    0.182191  -0.024734
     8  N    0.137224   0.030840
     9  C   -1.980804   1.996117
    10  C    1.759855  -2.366124
    11  C    1.378023  -1.931130
    12  N    0.325810   0.139297
    13  C   -0.092386  -0.264257
    14  C    0.433818  -0.401786
    15  C   -0.244906  -0.076431
    16  N   -0.342546   0.119134
    17  H    0.129298   0.000150
    18  H    0.135342  -0.000072
    19  H    0.113411  -0.000011
    20  H    0.153680   0.008326
    21  H    0.118785   0.014955
    22  H    0.192472  -0.000130
    23  H    0.199977  -0.001732
    24  H    0.156208   0.008224
    25  H   -0.181622   0.467647
    26  H    0.304285  -0.069697
    27  H   -0.563774   0.733464
    28  H   -0.276705   0.416763
    29  H   -0.293074   0.454130
    30  H   -0.137384   0.318855
    31  H   -0.444318   0.677518
    32  H   -1.012227   1.171094
    33  H    0.125919   0.022727
    34  H    0.112906   0.001626
 Sum of Mulliken charges =  -1.00000   1.00000

 Dipole moment (field-independent basis, Debye):
    X=            -11.7669    Y=             -5.9231    Z=             -3.7001  Tot=             13.6834
 Quadrupole moment (field-independent basis, Debye-Ang):
   XX=           -168.0088   YY=           -147.2477   ZZ=           -147.5040
   XY=            -12.4638   XZ=             -9.4277   YZ=             -7.3952

 Summary of Natural Population Analysis:

                                       Natural Population
                Natural  -----------------------------------------------
    Atom  No    Charge         Core      Valence    Rydberg      Total
 -----------------------------------------------------------------------
      C    1   -0.28639      0.99967     2.28273    0.00399     3.28639
      C    2   -0.19542      0.99961     2.18792    0.00788     3.19542
      C    3   -0.01768      0.99958     2.00370    0.01440     3.01768
      C    4   -0.24656      0.99959     2.23830    0.00867     3.24656
      S    5    0.08869      4.99956     2.89470    0.01706     7.91131
      C    6    0.17043      0.99955     1.80568    0.02433     2.82957
      N    7   -0.28752      0.99961     2.77581    0.01210     3.78752
      N    8   -0.32605      0.99964     2.81058    0.01584     3.82605
      C    9   -0.01817      0.99958     2.00586    0.01273     3.01817
      C   10   -0.28611      0.99964     2.28052    0.00595     3.28611
      C   11   -0.08623      0.99957     2.07373    0.01294     3.08623
      N   12   -0.10741      0.99966     2.59219    0.01556     3.60741
      C   13   -0.00127      0.99955     1.98845    0.01327     3.00127
      C   14   -0.17613      0.99956     2.16711    0.00946     3.17613
      C   15   -0.01656      0.99963     2.00352    0.01340     3.01656
      N   16   -0.14717      0.99973     2.63646    0.01098     3.64717
      H   17    0.09450      0.00000     0.40452    0.00098     0.40550
      H   18    0.09690      0.00000     0.40225    0.00085     0.40310
      H   19    0.09305      0.00000     0.40593    0.00102     0.40695
      H   20    0.10223      0.00000     0.39671    0.00106     0.39777
      H   21    0.09927      0.00000     0.39962    0.00111     0.40073
      H   22    0.09489      0.00000     0.40402    0.00109     0.40511
      H   23    0.10028      0.00000     0.39870    0.00101     0.39972
      H   24    0.10342      0.00000     0.39526    0.00132     0.39658
      H   25    0.20140      0.00000     0.28943    0.00917     0.29860
      H   26    0.11228      0.00000     0.38496    0.00277     0.38772
      H   27    0.10650      0.00000     0.38959    0.00392     0.39350
      H   28    0.10121      0.00000     0.39759    0.00120     0.39879
      H   29    0.10366      0.00000     0.39521    0.00113     0.39634
      H   30    0.10858      0.00000     0.38981    0.00162     0.39142
      H   31    0.10941      0.00000     0.38523    0.00536     0.39059
      H   32    0.11390      0.00000     0.38379    0.00231     0.38610
      H   33    0.10487      0.00000     0.39444    0.00069     0.39513
      H   34    0.09323      0.00000     0.40602    0.00075     0.40677
 =======================================================================
   * Total *   -0.00000     19.99375    43.77033    0.23593    64.00000

 Normal termination of Gaussian 16 at Fri Dec 11 00:42:49 2020.
