 Gaussian 16, Revision A.03,

 -----------------------------------------------------------
 # opt freq B3LYP/6-31G(d) empiricaldispersion=gd3bj scf=xqc
 -----------------------------------------------------------

 -------------------------------
 CID_135254357_JID_3342_neutraal
 -------------------------------
 Symbolic Z-matrix:
 Charge =  0 Multiplicity = 1

 SCF Done:  E(RB3LYP) =  -649.720070754     A.U. after   14 cycles
 SCF Done:  E(RB3LYP) =  -649.724200508     A.U. after   12 cycles
 SCF Done:  E(RB3LYP) =  -649.723837842     A.U. after   13 cycles
 SCF Done:  E(RB3LYP) =  -649.725007738     A.U. after   11 cycles
 SCF Done:  E(RB3LYP) =  -649.725019718     A.U. after   11 cycles
 SCF Done:  E(RB3LYP) =  -649.725077935     A.U. after   11 cycles
 SCF Done:  E(RB3LYP) =  -649.725122974     A.U. after   10 cycles
 SCF Done:  E(RB3LYP) =  -649.725140761     A.U. after   10 cycles
 SCF Done:  E(RB3LYP) =  -649.725148239     A.U. after   10 cycles
 SCF Done:  E(RB3LYP) =  -649.725159760     A.U. after    9 cycles
 SCF Done:  E(RB3LYP) =  -649.726324803     A.U. after   11 cycles
 SCF Done:  E(RB3LYP) =  -649.726335966     A.U. after   10 cycles
 SCF Done:  E(RB3LYP) =  -649.726337523     A.U. after    9 cycles
 SCF Done:  E(RB3LYP) =  -649.726337926     A.U. after    9 cycles
 SCF Done:  E(RB3LYP) =  -649.726338183     A.U. after    8 cycles
 SCF Done:  E(RB3LYP) =  -649.726338229     A.U. after    7 cycles
 Optimization completed.
    -- Stationary point found.
 Normal termination of Gaussian 16 at Wed Dec  9 23:35:10 2020.

 --------------------------------------------------------------------
 #N Geom=AllCheck Guess=TCheck SCRF=Check GenChk RB3LYP/6-31G(d) Freq
 --------------------------------------------------------------------

 Structure from the checkpoint file:  "JID_3342.chk"
 -------------------------------
 CID_135254357_JID_3342_neutraal
 -------------------------------
 Charge =  0 Multiplicity = 1

 SCF Done:  E(RB3LYP) =  -649.726338229     A.U. after    1 cycles

  Exact polarizability: 114.157  -1.711 104.783  -0.109   2.611  92.917
 Approx polarizability: 144.295  -7.065 150.657  -4.351   6.226 148.178

                      1                      2                      3
                      A                      A                      A
 Frequencies --     34.1942                42.6849                50.7682
 Red. masses --      4.9052                 9.0923                 4.7353
 Frc consts  --      0.0034                 0.0098                 0.0072
 IR Inten    --      1.0229                 0.9430                 0.6255

                      4                      5                      6
                      A                      A                      A
 Frequencies --     51.6909                92.6405               108.7658
 Red. masses --      7.2210                 2.4082                 2.5322
 Frc consts  --      0.0114                 0.0122                 0.0176
 IR Inten    --      0.9278                 0.6966                 1.5626

                      7                      8                      9
                      A                      A                      A
 Frequencies --    122.6351               156.4577               192.6491
 Red. masses --      3.7012                 3.9728                 1.9355
 Frc consts  --      0.0328                 0.0573                 0.0423
 IR Inten    --      0.1743                 0.5700                 1.6704

                     10                     11                     12
                      A                      A                      A
 Frequencies --    205.0021               232.9504               281.1336
 Red. masses --      2.5585                 1.4166                 1.4464
 Frc consts  --      0.0634                 0.0453                 0.0674
 IR Inten    --      1.7174                 2.4622                 3.8055

                     13                     14                     15
                      A                      A                      A
 Frequencies --    297.7140               338.0158               372.1617
 Red. masses --      1.9301                 2.7588                 3.1015
 Frc consts  --      0.1008                 0.1857                 0.2531
 IR Inten    --      2.9739                 5.0044                 2.9811

                     16                     17                     18
                      A                      A                      A
 Frequencies --    411.5751               424.7052               479.2675
 Red. masses --      2.9785                 3.0125                 2.9987
 Frc consts  --      0.2973                 0.3202                 0.4058
 IR Inten    --      1.5269                 6.2851                 2.8782

                     19                     20                     21
                      A                      A                      A
 Frequencies --    537.4506               552.8598               585.0770
 Red. masses --      2.9802                 3.7794                 2.2739
 Frc consts  --      0.5072                 0.6806                 0.4586
 IR Inten    --     14.7538                37.1927                37.3914

                     22                     23                     24
                      A                      A                      A
 Frequencies --    606.1869               626.6324               704.7487
 Red. masses --      1.4964                 1.8754                 1.6346
 Frc consts  --      0.3240                 0.4339                 0.4783
 IR Inten    --     94.1857                19.0315                83.2199

                     25                     26                     27
                      A                      A                      A
 Frequencies --    735.6378               769.8820               808.7345
 Red. masses --      2.1396                 3.7207                 1.7155
 Frc consts  --      0.6822                 1.2993                 0.6611
 IR Inten    --      9.9737                21.7269                83.9554

                     28                     29                     30
                      A                      A                      A
 Frequencies --    813.3315               874.6671               911.0909
 Red. masses --      2.0692                 1.8942                 2.1222
 Frc consts  --      0.8065                 0.8538                 1.0379
 IR Inten    --      9.0211                68.5280                 8.3511

                     31                     32                     33
                      A                      A                      A
 Frequencies --    941.2451               982.5652              1002.0816
 Red. masses --      1.7799                 2.1312                 2.0466
 Frc consts  --      0.9291                 1.2122                 1.2109
 IR Inten    --      0.9530                18.6934                 5.0895

                     34                     35                     36
                      A                      A                      A
 Frequencies --   1042.5170              1060.6526              1108.1210
 Red. masses --      2.2079                 1.8379                 1.9416
 Frc consts  --      1.4138                 1.2182                 1.4047
 IR Inten    --     34.7057                 2.8496                15.7879

                     37                     38                     39
                      A                      A                      A
 Frequencies --   1123.1501              1134.5735              1155.3286
 Red. masses --      1.7665                 2.4143                 3.0676
 Frc consts  --      1.3129                 1.8311                 2.4125
 IR Inten    --      8.0818                23.3244                16.5920

                     40                     41                     42
                      A                      A                      A
 Frequencies --   1179.5844              1195.7141              1232.3579
 Red. masses --      1.4945                 2.3469                 2.0414
 Frc consts  --      1.2252                 1.9770                 1.8266
 IR Inten    --     12.1059               115.3465                12.2114

                     43                     44                     45
                      A                      A                      A
 Frequencies --   1247.4403              1278.4060              1295.0810
 Red. masses --      1.3852                 1.5173                 1.3222
 Frc consts  --      1.2700                 1.4610                 1.3066
 IR Inten    --    104.0135                50.3628                 6.4455

                     46                     47                     48
                      A                      A                      A
 Frequencies --   1318.4108              1337.8046              1358.2899
 Red. masses --      1.3703                 1.3128                 1.6293
 Frc consts  --      1.4033                 1.3843                 1.7711
 IR Inten    --     61.0869                 9.4568                15.2747

                     49                     50                     51
                      A                      A                      A
 Frequencies --   1388.4068              1396.9627              1414.7281
 Red. masses --      1.5399                 1.4400                 1.6654
 Frc consts  --      1.7489                 1.6557                 1.9639
 IR Inten    --     18.3797                 1.2344                27.0735

                     52                     53                     54
                      A                      A                      A
 Frequencies --   1439.3447              1443.1727              1481.6535
 Red. masses --      1.4950                 1.2716                 1.1688
 Frc consts  --      1.8248                 1.5604                 1.5117
 IR Inten    --     24.5238                 5.1945                 1.9101

                     55                     56                     57
                      A                      A                      A
 Frequencies --   1491.1225              1495.8218              1516.4972
 Red. masses --      1.1526                 1.6038                 1.1029
 Frc consts  --      1.5099                 2.1142                 1.4944
 IR Inten    --      8.2523                48.8302                 7.7799

                     58                     59                     60
                      A                      A                      A
 Frequencies --   1520.4232              1522.6579              1526.9734
 Red. masses --      1.1754                 1.0777                 1.1102
 Frc consts  --      1.6009                 1.4722                 1.5252
 IR Inten    --      8.6466                 6.1889                17.3724

                     61                     62                     63
                      A                      A                      A
 Frequencies --   1534.3271              1537.4678              1548.4024
 Red. masses --      1.0515                 1.0554                 1.0556
 Frc consts  --      1.4585                 1.4699                 1.4911
 IR Inten    --     12.4588                13.0531                14.7297

                     64                     65                     66
                      A                      A                      A
 Frequencies --   1772.0060              1858.7012              2975.5830
 Red. masses --      7.7472                 9.6687                 1.0566
 Frc consts  --     14.3327                19.6806                 5.5117
 IR Inten    --    277.3844               262.2009                64.9988

                     67                     68                     69
                      A                      A                      A
 Frequencies --   3047.2636              3059.7328              3061.6323
 Red. masses --      1.0398                 1.0699                 1.0680
 Frc consts  --      5.6890                 5.9013                 5.8985
 IR Inten    --     19.3238                14.1311                 3.5533

                     70                     71                     72
                      A                      A                      A
 Frequencies --   3067.2317              3070.8113              3095.8301
 Red. masses --      1.0744                 1.0790                 1.0633
 Frc consts  --      5.9556                 5.9949                 6.0044
 IR Inten    --     35.5879                43.2726                31.6370

                     73                     74                     75
                      A                      A                      A
 Frequencies --   3099.6572              3116.8323              3121.7505
 Red. masses --      1.0976                 1.1018                 1.1002
 Frc consts  --      6.2134                 6.3063                 6.3168
 IR Inten    --      1.9824                47.1347                38.7383

                     76                     77                     78
                      A                      A                      A
 Frequencies --   3128.3207              3135.9337              3160.4051
 Red. masses --      1.1023                 1.1050                 1.0944
 Frc consts  --      6.3559                 6.4023                 6.4406
 IR Inten    --     34.1857                10.7991                 6.9977

                     79                     80                     81
                      A                      A                      A
 Frequencies --   3481.4755              3586.5262              3684.7015
 Red. masses --      1.0732                 1.0758                 1.0641
 Frc consts  --      7.6639                 8.1530                 8.5120
 IR Inten    --      1.2931                19.4321                57.9725

 - Thermochemistry -
 -------------------
 Temperature   298.150 Kelvin.  Pressure   1.00000 Atm.
 Atom     1 has atomic number  6 and mass  12.00000

 Molecular mass:   188.11609 amu.
 Principal axes and moments of inertia in atomic units:
                           1         2         3
     Eigenvalues --  1522.603653711.816364272.52141
           X            0.99998   0.00025   0.00600
           Y           -0.00035   0.99986   0.01653
           Z           -0.00600  -0.01653   0.99985
 This molecule is an asymmetric top.
 Rotational symmetry number  1.
 Warning -- assumption of classical behavior for rotation
           may cause significant error
 Rotational temperatures (Kelvin)      0.05689     0.02333     0.02027
 Rotational constants (GHZ):           1.18530     0.48622     0.42241
 Zero-point vibrational energy     659124.4 (Joules/Mol)
                                  157.53451 (Kcal/Mol)
 Warning -- explicit consideration of  22 degrees of freedom as
           vibrations may cause significant error
 Vibrational temperatures:     49.20    61.41    73.04    74.37   133.29
          (Kelvin)            156.49   176.44   225.11   277.18   294.95
                              335.16   404.49   428.34   486.33   535.46
                              592.16   611.06   689.56   773.27   795.44
                              841.80   872.17   901.58  1013.98  1058.42
                             1107.69  1163.59  1170.20  1258.45  1310.86
                             1354.24  1413.69  1441.77  1499.95  1526.04
                             1594.34  1615.96  1632.40  1662.26  1697.16
                             1720.37  1773.09  1794.79  1839.34  1863.33
                             1896.90  1924.80  1954.28  1997.61  2009.92
                             2035.48  2070.90  2076.40  2131.77  2145.39
                             2152.15  2181.90  2187.55  2190.77  2196.97
                             2207.55  2212.07  2227.81  2549.52  2674.26
                             4281.20  4384.33  4402.27  4405.01  4413.06
                             4418.21  4454.21  4459.72  4484.43  4491.50
                             4500.96  4511.91  4547.12  5009.07  5160.21
                             5301.46

 Zero-point correction=                           0.251047 (Hartree/Particle)
 Thermal correction to Energy=                    0.265981
 Thermal correction to Enthalpy=                  0.266925
 Thermal correction to Gibbs Free Energy=         0.207565
 Sum of electronic and zero-point Energies=           -649.475291
 Sum of electronic and thermal Energies=              -649.460358
 Sum of electronic and thermal Enthalpies=            -649.459413
 Sum of electronic and thermal Free Energies=         -649.518773

                     E (Thermal)             CV                S
                      KCal/Mol        Cal/Mol-Kelvin    Cal/Mol-Kelvin
 Total                  166.905             53.310            124.932
 Electronic               0.000              0.000              0.000
 Translational            0.889              2.981             41.602
 Rotational               0.889              2.981             31.557
 Vibrational            165.128             47.348             51.773
 Vibration     1          0.594              1.983              5.570
 Vibration     2          0.595              1.980              5.130
 Vibration     3          0.595              1.977              4.787
 Vibration     4          0.596              1.977              4.752
 Vibration     5          0.602              1.954              3.604
 Vibration     6          0.606              1.942              3.291
 Vibration     7          0.610              1.930              3.058
 Vibration     8          0.620              1.895              2.592
 Vibration     9          0.635              1.850              2.202
 Vibration    10          0.640              1.833              2.088
 Vibration    11          0.654              1.791              1.856
 Vibration    12          0.681              1.709              1.527
 Vibration    13          0.691              1.678              1.430
 Vibration    14          0.718              1.600              1.222
 Vibration    15          0.744              1.529              1.071
 Vibration    16          0.776              1.445              0.921
 Vibration    17          0.787              1.416              0.876
 Vibration    18          0.836              1.296              0.712
 Vibration    19          0.892              1.167              0.571
 Vibration    20          0.908              1.133              0.538
 Vibration    21          0.942              1.064              0.476
 Vibration    22          0.965              1.019              0.439

                           ! Non-Optimized Parameters !
 Normal termination of Gaussian 16 at Wed Dec  9 23:42:25 2020.

 ----------------------------------------------------------------------
 # B3LYP/6-311++G(d,p) empiricaldispersion=gd3bj scf=xqc pop=npa geom=c
 heck
 ----------------------------------------------------------------------

 ---------------------------------------
 CID_135254357_JID_3342_Energie_neutraal
 ---------------------------------------
 Structure from the checkpoint file:  "JID_3342.chk"
 Charge =  0 Multiplicity = 1

 SCF Done:  E(RB3LYP) =  -649.934194829     A.U. after   14 cycles
 Normal termination of Gaussian 16 at Wed Dec  9 23:45:32 2020.

 ----------------------------------------------------------------------
 # B3LYP/6-311++G(d,p) empiricaldispersion=gd3bj scf=xqc pop=npa geom=c
 heck
 ----------------------------------------------------------------------

 -------------------------------------
 CID_135254357_JID_3342_Energie_kation
 -------------------------------------
 Structure from the checkpoint file:  "JID_3342.chk"
 Charge =  1 Multiplicity = 2

 SCF Done:  E(UB3LYP) =  -649.624478432     A.U. after   23 cycles
 Normal termination of Gaussian 16 at Wed Dec  9 23:52:41 2020.
 Gaussian 16:  ES64L-G16RevA.03 25-Dec-2016

 ----------------------------------------------------------------------
 # B3LYP/6-311++G(d,p) empiricaldispersion=gd3bj scf=xqc pop=npa geom=c
 heck
 ----------------------------------------------------------------------

 ------------------------------------
 CID_135254357_JID_3342_Energie_anion
 ------------------------------------
 Structure from the checkpoint file:  "JID_3342.chk"
 Charge = -1 Multiplicity = 2

                         Standard orientation:
 ---------------------------------------------------------------------
 Center     Atomic      Atomic             Coordinates (Angstroms)
 Number     Number       Type             X           Y           Z
 ---------------------------------------------------------------------
      1          6           0       -0.311310    2.555389   -0.280950
      2          6           0       -1.677345    1.886792   -0.115717
      3          6           0       -1.658543    0.363943   -0.309418
      4          6           0       -0.863668   -0.281815    0.840993
      5          8           0       -1.227766   -0.107290    2.000611
      6          7           0        0.206554   -1.088045    0.562924
      7          6           0        0.813379   -1.415965   -0.717447
      8          6           0        1.805399   -0.353902   -1.218157
      9          6           0        2.811993    0.056414   -0.166233
     10          8           0        3.176255    1.186474    0.059307
     11          8           0        3.290309   -1.015301    0.522272
     12          7           0       -3.032633   -0.143879   -0.317750
     13          6           0       -3.130028   -1.570720   -0.616881
     14          1           0        0.438892    2.141290    0.401283
     15          1           0       -0.379134    3.629368   -0.078877
     16          1           0        0.068504    2.441174   -1.303851
     17          1           0       -2.067541    2.085663    0.889202
     18          1           0       -2.395423    2.296002   -0.834329
     19          1           0       -1.219054    0.130108   -1.285839
     20          1           0        0.673044   -1.433933    1.393368
     21          1           0        1.331240   -2.369592   -0.591183
     22          1           0        0.035786   -1.572475   -1.469412
     23          1           0        2.353982   -0.747871   -2.084191
     24          1           0        1.289982    0.553953   -1.535028
     25          1           0        3.928824   -0.656413    1.167186
     26          1           0       -3.413428    0.024159    0.613557
     27          1           0       -2.553725   -2.226963    0.058686
     28          1           0       -4.180276   -1.874753   -0.570661
     29          1           0       -2.778765   -1.748129   -1.640780
 ---------------------------------------------------------------------

 SCF Done:  E(UB3LYP) =  -649.926924656     A.U. after   29 cycles

 The electronic state is 2-A.
 Alpha  occ. eigenvalues --  -19.06653 -19.01365 -18.99151 -14.24179 -14.21066
 Alpha  occ. eigenvalues --  -10.20290 -10.17340 -10.11647 -10.11249 -10.09441
 Alpha  occ. eigenvalues --  -10.08506 -10.07628 -10.06813  -1.00727  -0.94366
 Alpha  occ. eigenvalues --   -0.91939  -0.82902  -0.81788  -0.69116  -0.68509
 Alpha  occ. eigenvalues --   -0.61229  -0.58167  -0.55684  -0.52661  -0.50395
 Alpha  occ. eigenvalues --   -0.46596  -0.42764  -0.41264  -0.38777  -0.38411
 Alpha  occ. eigenvalues --   -0.37117  -0.36767  -0.36148  -0.34541  -0.33794
 Alpha  occ. eigenvalues --   -0.33222  -0.31675  -0.30983  -0.30151  -0.28840
 Alpha  occ. eigenvalues --   -0.28399  -0.28128  -0.26846  -0.25989  -0.24801
 Alpha  occ. eigenvalues --   -0.24321  -0.22663  -0.18345  -0.17363  -0.16187
 Alpha  occ. eigenvalues --   -0.13784   0.04266
 Alpha virt. eigenvalues --    0.06664   0.07466   0.07762   0.08914   0.09156
 Alpha virt. eigenvalues --    0.09954   0.10185   0.10313   0.10968   0.11289
 Alpha virt. eigenvalues --    0.12614   0.12680   0.13590   0.13725   0.14420

  Beta  occ. eigenvalues --  -19.06592 -19.01326 -18.99142 -14.24173 -14.21064
  Beta  occ. eigenvalues --  -10.20240 -10.17334 -10.11602 -10.11238 -10.09414
  Beta  occ. eigenvalues --  -10.08469 -10.07625 -10.06807  -1.00619  -0.94348
  Beta  occ. eigenvalues --   -0.91846  -0.82879  -0.81778  -0.69101  -0.68417
  Beta  occ. eigenvalues --   -0.61201  -0.58055  -0.55627  -0.52621  -0.50277
  Beta  occ. eigenvalues --   -0.46561  -0.42729  -0.41197  -0.38699  -0.38366
  Beta  occ. eigenvalues --   -0.37018  -0.36698  -0.36092  -0.34516  -0.33750
  Beta  occ. eigenvalues --   -0.33184  -0.31648  -0.30907  -0.30110  -0.28774
  Beta  occ. eigenvalues --   -0.28349  -0.28083  -0.26793  -0.25971  -0.24790
  Beta  occ. eigenvalues --   -0.24301  -0.22520  -0.18271  -0.17350  -0.16151
  Beta  occ. eigenvalues --   -0.13772
  Beta virt. eigenvalues --    0.06883   0.07674   0.07817   0.08427   0.09361
  Beta virt. eigenvalues --    0.09621   0.10282   0.10439   0.10730   0.11395
  Beta virt. eigenvalues --    0.11640   0.12826   0.12904   0.13762   0.14039

 Mulliken charges and spin densities:
               1          2
     1  C   -0.348791  -0.250964
     2  C   -0.416637   0.092845
     3  C   -0.015337  -0.294358
     4  C   -0.139212   0.045909
     5  O   -0.303943   0.005033
     6  N   -0.282196   0.161459
     7  C    1.577253  -1.925100
     8  C    0.634646  -0.795569
     9  C   -0.371903   0.222776
    10  O   -0.243273   0.016702
    11  O   -0.164027   0.028241
    12  N   -0.087856   0.093849
    13  C    0.298222  -0.622500
    14  H    0.152379   0.044186
    15  H    0.153818  -0.011702
    16  H    0.012385   0.120626
    17  H    0.137318   0.007004
    18  H    0.164775   0.010027
    19  H    0.011898   0.171562
    20  H    0.197930   0.117176
    21  H   -0.495318   0.718633
    22  H   -0.050979   0.244252
    23  H   -0.962944   1.180016
    24  H    0.043794   0.125700
    25  H   -0.427362   0.722092
    26  H    0.254183   0.001314
    27  H    0.021855   0.137564
    28  H   -0.056318   0.193717
    29  H   -0.294358   0.439509
 Sum of Mulliken charges =  -1.00000   1.00000

 Dipole moment (field-independent basis, Debye):
    X=             -5.5721    Y=              4.0636    Z=              2.1369  Tot=              7.2199
 Quadrupole moment (field-independent basis, Debye-Ang):
   XX=           -143.7268   YY=           -115.7693   ZZ=           -122.9456
   XY=              3.5270   XZ=              0.0705   YZ=             -7.9233

 Summary of Natural Population Analysis:

                                       Natural Population
                Natural  -----------------------------------------------
    Atom  No    Charge         Core      Valence    Rydberg      Total
 -----------------------------------------------------------------------
      C    1   -0.28788      0.99966     2.28369    0.00452     3.28788
      C    2   -0.19012      0.99962     2.18281    0.00768     3.19012
      C    3   -0.05009      0.99955     2.03648    0.01406     3.05009
      C    4    0.33918      0.99964     1.63576    0.02542     2.66082
      O    5   -0.33463      0.99988     3.32881    0.00594     4.33463
      N    6   -0.31741      0.99967     2.80683    0.01091     3.81741
      C    7   -0.09164      0.99961     2.07887    0.01316     3.09164
      C    8   -0.24506      0.99957     2.23545    0.01005     3.24506
      C    9    0.41423      0.99972     1.56055    0.02550     2.58577
      O   10   -0.30381      0.99987     3.29774    0.00620     4.30381
      O   11   -0.35058      0.99988     3.34323    0.00747     4.35058
      N   12   -0.33400      0.99975     2.82293    0.01132     3.83400
      C   13   -0.18199      0.99966     2.17432    0.00800     3.18199
      H   14    0.10584      0.00000     0.39318    0.00098     0.39416
      H   15    0.09748      0.00000     0.40181    0.00071     0.40252
      H   16    0.09589      0.00000     0.40306    0.00104     0.40411
      H   17    0.10136      0.00000     0.39733    0.00132     0.39864
      H   18    0.09960      0.00000     0.39913    0.00127     0.40040
      H   19    0.09760      0.00000     0.39981    0.00259     0.40240
      H   20    0.19794      0.00000     0.29964    0.00242     0.30206
      H   21    0.10960      0.00000     0.38737    0.00303     0.39040
      H   22    0.10422      0.00000     0.39254    0.00324     0.39578
      H   23    0.12406      0.00000     0.37007    0.00587     0.37594
      H   24    0.10899      0.00000     0.38948    0.00153     0.39101
      H   25    0.24467      0.00000     0.24230    0.01303     0.25533
      H   26    0.17550      0.00000     0.32215    0.00236     0.32450
      H   27    0.08339      0.00000     0.41532    0.00129     0.41661
      H   28    0.09291      0.00000     0.40631    0.00078     0.40709
      H   29    0.09475      0.00000     0.40386    0.00139     0.40525
 =======================================================================
   * Total *   -0.00000     12.99606    37.81084    0.19309    51.00000

 Normal termination of Gaussian 16 at Thu Dec 10 00:01:40 2020.
