 Gaussian 16, Revision A.03,

 -----------------------------------------------------------
 # opt freq B3LYP/6-31G(d) empiricaldispersion=gd3bj scf=xqc
 -----------------------------------------------------------

 -------------------------------
 CID_107744320_JID_9574_neutraal
 -------------------------------
 Symbolic Z-matrix:
 Charge =  0 Multiplicity = 1

 SCF Done:  E(RB3LYP) =  -931.407925898     A.U. after   16 cycles
 SCF Done:  E(RB3LYP) =  -931.404670418     A.U. after   15 cycles
 SCF Done:  E(RB3LYP) =  -931.416670591     A.U. after   14 cycles
 SCF Done:  E(RB3LYP) =  -931.412579795     A.U. after   14 cycles
 SCF Done:  E(RB3LYP) =  -931.418411112     A.U. after   14 cycles
 SCF Done:  E(RB3LYP) =  -931.417559234     A.U. after   15 cycles
 SCF Done:  E(RB3LYP) =  -931.418331421     A.U. after   15 cycles
 SCF Done:  E(RB3LYP) =  -931.419173381     A.U. after   11 cycles
 SCF Done:  E(RB3LYP) =  -931.419851476     A.U. after   14 cycles
 SCF Done:  E(RB3LYP) =  -931.419977355     A.U. after   12 cycles
 SCF Done:  E(RB3LYP) =  -931.420219341     A.U. after    9 cycles
 SCF Done:  E(RB3LYP) =  -931.420220132     A.U. after    9 cycles
 SCF Done:  E(RB3LYP) =  -931.420221425     A.U. after    9 cycles
 SCF Done:  E(RB3LYP) =  -931.420223292     A.U. after   11 cycles
 SCF Done:  E(RB3LYP) =  -931.420223567     A.U. after    8 cycles
 SCF Done:  E(RB3LYP) =  -931.420223839     A.U. after    8 cycles
 Optimization completed.
    -- Stationary point found.
 Normal termination of Gaussian 16 at Sun Dec 13 12:57:27 2020.

 --------------------------------------------------------------------
 #N Geom=AllCheck Guess=TCheck SCRF=Check GenChk RB3LYP/6-31G(d) Freq
 --------------------------------------------------------------------

 Structure from the checkpoint file:  "JID_9574.chk"
 -------------------------------
 CID_107744320_JID_9574_neutraal
 -------------------------------
 Charge =  0 Multiplicity = 1

 SCF Done:  E(RB3LYP) =  -931.420223839     A.U. after    1 cycles

  Exact polarizability: 199.724   9.810 144.621 -16.256  15.873 118.593
 Approx polarizability: 292.240  22.011 256.648 -40.116  48.551 195.002

                      1                      2                      3
                      A                      A                      A
 Frequencies --     31.7600                38.0742                46.0794
 Red. masses --      7.5841                 4.6569                 9.7607
 Frc consts  --      0.0045                 0.0040                 0.0122
 IR Inten    --      1.7705                 0.5212                 1.0222

                      4                      5                      6
                      A                      A                      A
 Frequencies --     55.7200                79.7912               106.6991
 Red. masses --      5.8935                 3.4212                 3.9171
 Frc consts  --      0.0108                 0.0128                 0.0263
 IR Inten    --      1.1019                 5.5658                 4.2652

                      7                      8                      9
                      A                      A                      A
 Frequencies --    137.5337               153.9654               186.3322
 Red. masses --      4.1832                 3.1504                 2.8438
 Frc consts  --      0.0466                 0.0440                 0.0582
 IR Inten    --      1.2653                 1.9382                 1.1183

                     10                     11                     12
                      A                      A                      A
 Frequencies --    213.7784               223.2168               229.3414
 Red. masses --      4.3749                 3.7444                 3.3036
 Frc consts  --      0.1178                 0.1099                 0.1024
 IR Inten    --      1.4903                 0.1913                 0.0191

                     13                     14                     15
                      A                      A                      A
 Frequencies --    241.6344               288.6071               309.0407
 Red. masses --      1.4739                 6.8025                 2.7513
 Frc consts  --      0.0507                 0.3338                 0.1548
 IR Inten    --      0.5921                 7.4907                 2.5539

                     16                     17                     18
                      A                      A                      A
 Frequencies --    335.5099               351.8384               420.9792
 Red. masses --      6.7047                 4.3693                 4.5203
 Frc consts  --      0.4447                 0.3187                 0.4720
 IR Inten    --      7.7735                 1.6126                 5.3898

                     19                     20                     21
                      A                      A                      A
 Frequencies --    441.3684               445.4794               482.4036
 Red. masses --      4.6712                 4.2275                 2.3952
 Frc consts  --      0.5361                 0.4943                 0.3284
 IR Inten    --      5.3377                 0.9529                55.9437

                     22                     23                     24
                      A                      A                      A
 Frequencies --    519.5200               526.9721               548.4908
 Red. masses --      7.0546                 1.6841                 2.4649
 Frc consts  --      1.1218                 0.2755                 0.4369
 IR Inten    --      1.8770                32.5565                57.0769

                     25                     26                     27
                      A                      A                      A
 Frequencies --    566.5139               581.6644               596.1684
 Red. masses --      5.5703                 5.6559                 3.7916
 Frc consts  --      1.0533                 1.1274                 0.7940
 IR Inten    --      1.0531                 5.8761                14.2072

                     28                     29                     30
                      A                      A                      A
 Frequencies --    622.0862               667.5065               696.6931
 Red. masses --      3.0269                 1.2202                 4.8272
 Frc consts  --      0.6902                 0.3203                 1.3805
 IR Inten    --     10.5272                84.3731                 6.2499

                     31                     32                     33
                      A                      A                      A
 Frequencies --    713.7081               744.7286               750.1565
 Red. masses --      4.4447                 3.6734                 3.7437
 Frc consts  --      1.3339                 1.2004                 1.2412
 IR Inten    --     22.5740                14.6058                23.8821

                     34                     35                     36
                      A                      A                      A
 Frequencies --    782.2533               811.7476               827.7956
 Red. masses --      2.8461                 2.7515                10.3642
 Frc consts  --      1.0261                 1.0682                 4.1844
 IR Inten    --     15.3284                14.1962                61.6017

                     37                     38                     39
                      A                      A                      A
 Frequencies --    842.3875               870.6461               901.0879
 Red. masses --      1.6564                 2.7899                 2.3419
 Frc consts  --      0.6925                 1.2460                 1.1204
 IR Inten    --      6.8829                 3.9318                 2.4818

                     40                     41                     42
                      A                      A                      A
 Frequencies --    909.3267               932.1719               950.2276
 Red. masses --      1.9748                 2.3012                 1.4425
 Frc consts  --      0.9621                 1.1781                 0.7674
 IR Inten    --     23.3184                 0.8872                 4.3947

                     43                     44                     45
                      A                      A                      A
 Frequencies --    955.6501               968.7561               977.9963
 Red. masses --      1.4091                 2.5407                 2.8174
 Frc consts  --      0.7582                 1.4048                 1.5877
 IR Inten    --      2.0565                12.0631                 5.3798

                     46                     47                     48
                      A                      A                      A
 Frequencies --   1039.0331              1059.9314              1096.2891
 Red. masses --      1.8773                 1.9766                 2.0764
 Frc consts  --      1.1941                 1.3083                 1.4703
 IR Inten    --      4.4028                 3.0156                 5.8988

                     49                     50                     51
                      A                      A                      A
 Frequencies --   1102.4943              1120.6364              1144.7518
 Red. masses --      1.9593                 2.4438                 1.5880
 Frc consts  --      1.4032                 1.8082                 1.2261
 IR Inten    --     46.3152                 6.6864                 9.1739

                     52                     53                     54
                      A                      A                      A
 Frequencies --   1172.2091              1183.3866              1202.6530
 Red. masses --      2.6138                 2.0637                 1.5341
 Frc consts  --      2.1161                 1.7027                 1.3074
 IR Inten    --     46.5547                 4.3764                39.4516

                     55                     56                     57
                      A                      A                      A
 Frequencies --   1237.8924              1245.0030              1265.4037
 Red. masses --      1.2572                 1.3939                 2.6745
 Frc consts  --      1.1350                 1.2730                 2.5232
 IR Inten    --     35.9125                10.4465                94.9885

                     58                     59                     60
                      A                      A                      A
 Frequencies --   1281.1172              1304.4594              1313.1748
 Red. masses --      1.3172                 1.6445                 2.6842
 Frc consts  --      1.2738                 1.6487                 2.7271
 IR Inten    --      2.4692                97.0252                10.7046

                     61                     62                     63
                      A                      A                      A
 Frequencies --   1329.6525              1342.1307              1375.2547
 Red. masses --      2.1964                 1.2623                 1.2839
 Frc consts  --      2.2879                 1.3397                 1.4307
 IR Inten    --    158.4031                11.8276                19.4994

                     64                     65                     66
                      A                      A                      A
 Frequencies --   1387.9688              1391.7930              1401.8423
 Red. masses --      1.6662                 1.2973                 7.9049
 Frc consts  --      1.8912                 1.4806                 9.1526
 IR Inten    --    206.4073                 1.3249               231.3690

                     67                     68                     69
                      A                      A                      A
 Frequencies --   1406.6477              1426.3850              1447.1879
 Red. masses --      3.6654                 1.5298                 1.2475
 Frc consts  --      4.2731                 1.8338                 1.5394
 IR Inten    --      4.0072                 6.7307                 5.0766

                     70                     71                     72
                      A                      A                      A
 Frequencies --   1457.7934              1462.5818              1492.6997
 Red. masses --      1.4493                 1.4639                 3.9568
 Frc consts  --      1.8147                 1.8451                 5.1945
 IR Inten    --     22.9683                15.4401                27.8287

                     73                     74                     75
                      A                      A                      A
 Frequencies --   1530.1522              1537.8233              1539.1409
 Red. masses --      1.0470                 1.0516                 2.6645
 Frc consts  --      1.4443                 1.4653                 3.7189
 IR Inten    --      8.0908                 1.2718               104.1299

                     76                     77                     78
                      A                      A                      A
 Frequencies --   1554.8180              1562.4943              1624.9319
 Red. masses --      1.1552                 1.0911                10.5318
 Frc consts  --      1.6454                 1.5694                16.3841
 IR Inten    --     13.9938                 3.4185               247.4460

                     79                     80                     81
                      A                      A                      A
 Frequencies --   1666.9964              1677.0427              1775.2560
 Red. masses --      6.7664                 8.7549                 7.6712
 Frc consts  --     11.0785                14.5073                14.2441
 IR Inten    --     17.7669                 6.8428               340.6723

                     82                     83                     84
                      A                      A                      A
 Frequencies --   3011.3392              3029.6861              3039.4737
 Red. masses --      1.0643                 1.0852                 1.0978
 Frc consts  --      5.6863                 5.8689                 5.9756
 IR Inten    --     75.2479                15.2804                53.2880

                     85                     86                     87
                      A                      A                      A
 Frequencies --   3048.2536              3062.0799              3078.4779
 Red. masses --      1.0608                 1.0395                 1.1063
 Frc consts  --      5.8075                 5.7425                 6.1770
 IR Inten    --     28.1763                25.8483                49.6523

                     88                     89                     90
                      A                      A                      A
 Frequencies --   3119.1486              3120.6054              3154.7581
 Red. masses --      1.1024                 1.0862                 1.0970
 Frc consts  --      6.3191                 6.2320                 6.4324
 IR Inten    --     18.8107                11.5096                20.0278

                     91                     92                     93
                      A                      A                      A
 Frequencies --   3248.1863              3267.1454              3267.9999
 Red. masses --      1.0903                 1.0917                 1.0937
 Frc consts  --      6.7778                 6.8655                 6.8820
 IR Inten    --      3.6859                 6.9389                 3.1031

                     94                     95                     96
                      A                      A                      A
 Frequencies --   3520.3613              3562.9206              3650.9733
 Red. masses --      1.0741                 1.0762                 1.0643
 Frc consts  --      7.8424                 8.0493                 8.3582
 IR Inten    --     27.7318                 3.3404                83.8281

 - Thermochemistry -
 -------------------
 Temperature   298.150 Kelvin.  Pressure   1.00000 Atm.
 Atom     1 has atomic number  6 and mass  12.00000

 Molecular mass:   265.10626 amu.
 Principal axes and moments of inertia in atomic units:
                           1         2         3
     Eigenvalues --  2645.254387243.467897900.80106
           X            0.99986  -0.01088   0.01270
           Y            0.01054   0.99960   0.02608
           Z           -0.01298  -0.02594   0.99958
 This molecule is an asymmetric top.
 Rotational symmetry number  1.
 Warning -- assumption of classical behavior for rotation
           may cause significant error
 Rotational temperatures (Kelvin)      0.03274     0.01196     0.01096
 Rotational constants (GHZ):           0.68226     0.24915     0.22843
 Zero-point vibrational energy     720294.6 (Joules/Mol)
                                  172.15453 (Kcal/Mol)
 Warning -- explicit consideration of  27 degrees of freedom as
           vibrations may cause significant error
 Vibrational temperatures:     45.70    54.78    66.30    80.17   114.80
          (Kelvin)            153.52   197.88   221.52   268.09   307.58
                              321.16   329.97   347.66   415.24   444.64
                              482.72   506.22   605.70   635.03   640.95
                              694.07   747.47   758.20   789.16   815.09
                              836.89   857.75   895.04   960.39  1002.39
                             1026.87  1071.50  1079.31  1125.49  1167.92
                             1191.01  1212.01  1252.67  1296.46  1308.32
                             1341.19  1367.17  1374.97  1393.82  1407.12
                             1494.94  1525.00  1577.32  1586.24  1612.35
                             1647.04  1686.55  1702.63  1730.35  1781.05
                             1791.28  1820.63  1843.24  1876.83  1889.37
                             1913.07  1931.03  1978.68  1996.98  2002.48
                             2016.94  2023.85  2052.25  2082.18  2097.44
                             2104.33  2147.66  2201.55  2212.58  2214.48
                             2237.04  2248.08  2337.91  2398.44  2412.89
                             2554.20  4332.65  4359.04  4373.12  4385.76
                             4405.65  4429.24  4487.76  4489.86  4538.99
                             4673.42  4700.69  4701.92  5065.01  5126.25
                             5252.94

 Zero-point correction=                           0.274346 (Hartree/Particle)
 Thermal correction to Energy=                    0.291567
 Thermal correction to Enthalpy=                  0.292511
 Thermal correction to Gibbs Free Energy=         0.228122
 Sum of electronic and zero-point Energies=           -931.145878
 Sum of electronic and thermal Energies=              -931.128657
 Sum of electronic and thermal Enthalpies=            -931.127713
 Sum of electronic and thermal Free Energies=         -931.192102

                     E (Thermal)             CV                S
                      KCal/Mol        Cal/Mol-Kelvin    Cal/Mol-Kelvin
 Total                  182.961             65.621            135.518
 Electronic               0.000              0.000              0.000
 Translational            0.889              2.981             42.624
 Rotational               0.889              2.981             33.381
 Vibrational            181.184             59.660             59.512
 Vibration     1          0.594              1.983              5.716
 Vibration     2          0.594              1.982              5.357
 Vibration     3          0.595              1.979              4.979
 Vibration     4          0.596              1.975              4.603
 Vibration     5          0.600              1.963              3.896
 Vibration     6          0.606              1.944              3.328
 Vibration     7          0.614              1.916              2.838
 Vibration     8          0.619              1.898              2.623
 Vibration     9          0.632              1.859              2.264
 Vibration    10          0.644              1.820              2.011
 Vibration    11          0.649              1.806              1.933
 Vibration    12          0.652              1.796              1.884
 Vibration    13          0.658              1.777              1.791
 Vibration    14          0.685              1.695              1.482
 Vibration    15          0.698              1.657              1.367
 Vibration    16          0.717              1.605              1.233
 Vibration    17          0.728              1.571              1.158
 Vibration    18          0.783              1.425              0.889
 Vibration    19          0.801              1.380              0.822
 Vibration    20          0.805              1.371              0.810
 Vibration    21          0.839              1.289              0.704
 Vibration    22          0.875              1.207              0.611
 Vibration    23          0.882              1.190              0.594
 Vibration    24          0.904              1.143              0.547
 Vibration    25          0.922              1.104              0.511
 Vibration    26          0.938              1.071              0.482
 Vibration    27          0.954              1.040              0.456

                           ! Non-Optimized Parameters !
 Normal termination of Gaussian 16 at Sun Dec 13 13:17:50 2020.

 ----------------------------------------------------------------------
 # B3LYP/6-311++G(d,p) empiricaldispersion=gd3bj scf=xqc pop=npa geom=c
 heck
 ----------------------------------------------------------------------

 ---------------------------------------
 CID_107744320_JID_9574_Energie_neutraal
 ---------------------------------------
 Structure from the checkpoint file:  "JID_9574.chk"
 Charge =  0 Multiplicity = 1

 SCF Done:  E(RB3LYP) =  -931.696019603     A.U. after   16 cycles
 Normal termination of Gaussian 16 at Sun Dec 13 13:26:44 2020.

 ----------------------------------------------------------------------
 # B3LYP/6-311++G(d,p) empiricaldispersion=gd3bj scf=xqc pop=npa geom=c
 heck
 ----------------------------------------------------------------------

 -------------------------------------
 CID_107744320_JID_9574_Energie_kation
 -------------------------------------
 Structure from the checkpoint file:  "JID_9574.chk"
 Charge =  1 Multiplicity = 2

 SCF Done:  E(UB3LYP) =  -931.391427850     A.U. after   28 cycles
 Normal termination of Gaussian 16 at Sun Dec 13 13:49:07 2020.
 Gaussian 16:  ES64L-G16RevA.03 25-Dec-2016

 ----------------------------------------------------------------------
 # B3LYP/6-311++G(d,p) empiricaldispersion=gd3bj scf=xqc pop=npa geom=c
 heck
 ----------------------------------------------------------------------

 ------------------------------------
 CID_107744320_JID_9574_Energie_anion
 ------------------------------------
 Structure from the checkpoint file:  "JID_9574.chk"
 Charge = -1 Multiplicity = 2

                         Standard orientation:
 ---------------------------------------------------------------------
 Center     Atomic      Atomic             Coordinates (Angstroms)
 Number     Number       Type             X           Y           Z
 ---------------------------------------------------------------------
      1          6           0        2.309037    0.728814    2.158237
      2          6           0        2.370177   -0.629958    1.466125
      3          6           0        1.041693   -1.408754    1.429073
      4          7           0        1.095660   -2.261947    0.231642
      5          6           0        2.316775   -1.986544   -0.536318
      6          6           0        2.873580   -0.644793   -0.003489
      7          6           0        2.638465    0.570529   -0.905233
      8          8           0        3.595455    1.100770   -1.450860
      9          7           0        1.381632    1.130906   -1.135669
     10          6           0        0.058765    0.694207   -0.834245
     11          6           0       -0.710958    1.539081   -0.006100
     12          6           0       -2.027247    1.210463    0.304371
     13          6           0       -2.549247    0.037328   -0.231146
     14          6           0       -1.822932   -0.805958   -1.066437
     15          6           0       -0.510825   -0.458923   -1.372362
     16          7           0       -3.937921   -0.322207    0.102460
     17          8           0       -4.565633    0.440284    0.835971
     18          8           0       -4.386758   -1.365296   -0.371349
     19          8           0       -0.184149    2.680662    0.504603
     20          1           0        1.524547    1.363773    1.739219
     21          1           0        3.263876    1.259375    2.073819
     22          1           0        2.087857    0.607380    3.224196
     23          1           0        3.096704   -1.250659    2.007273
     24          1           0        0.901945   -2.001543    2.340781
     25          1           0        0.191139   -0.718673    1.362725
     26          1           0        1.012453   -3.245870    0.457741
     27          1           0        2.110845   -1.944922   -1.614605
     28          1           0        3.083760   -2.761469   -0.392771
     29          1           0        3.963981   -0.686664   -0.005562
     30          1           0        1.463479    1.863777   -1.836688
     31          1           0       -2.622491    1.844447    0.947219
     32          1           0       -2.281407   -1.703041   -1.458837
     33          1           0        0.078677   -1.081871   -2.031838
     34          1           0        0.754021    2.704375    0.236523
 ---------------------------------------------------------------------

 SCF Done:  E(UB3LYP) =  -931.738653269     A.U. after   24 cycles

 The electronic state is 2-A.
 Alpha  occ. eigenvalues --  -19.04603 -19.00254 -18.94483 -18.94449 -14.32274
 Alpha  occ. eigenvalues --  -14.24745 -14.20593 -10.18767 -10.11752 -10.11286
 Alpha  occ. eigenvalues --  -10.10278 -10.10016 -10.09833 -10.08058 -10.08012
 Alpha  occ. eigenvalues --  -10.06434 -10.05330 -10.03488 -10.03401  -1.02561
 Alpha  occ. eigenvalues --   -0.96184  -0.95476  -0.85443  -0.83274  -0.82373
 Alpha  occ. eigenvalues --   -0.72902  -0.71023  -0.66347  -0.64017  -0.62135
 Alpha  occ. eigenvalues --   -0.59502  -0.55822  -0.53564  -0.50417  -0.48868
 Alpha  occ. eigenvalues --   -0.48269  -0.46168  -0.43561  -0.43028  -0.39383
 Alpha  occ. eigenvalues --   -0.38511  -0.37272  -0.37007  -0.35227  -0.34924
 Alpha  occ. eigenvalues --   -0.34871  -0.34403  -0.32656  -0.32158  -0.31891
 Alpha  occ. eigenvalues --   -0.31049  -0.30563  -0.30038  -0.29417  -0.28571
 Alpha  occ. eigenvalues --   -0.28287  -0.26503  -0.26384  -0.24593  -0.24314
 Alpha  occ. eigenvalues --   -0.23483  -0.21903  -0.18070  -0.17083  -0.14342
 Alpha  occ. eigenvalues --   -0.13622  -0.12759  -0.12294  -0.10603  -0.10218
 Alpha  occ. eigenvalues --    0.02275
 Alpha virt. eigenvalues --    0.05423   0.07300   0.07930   0.08694   0.08926
 Alpha virt. eigenvalues --    0.09787   0.10330   0.10710   0.11428   0.11958
 Alpha virt. eigenvalues --    0.12200   0.12671   0.13678   0.13723   0.14153

  Beta  occ. eigenvalues --  -19.04609 -19.00235 -18.94016 -18.93956 -14.31697
  Beta  occ. eigenvalues --  -14.24772 -14.20592 -10.18735 -10.11751 -10.11339
  Beta  occ. eigenvalues --  -10.10279 -10.10015 -10.09834 -10.08058 -10.07748
  Beta  occ. eigenvalues --  -10.06283 -10.05350 -10.03399 -10.03242  -1.01549
  Beta  occ. eigenvalues --   -0.96180  -0.95447  -0.84539  -0.83234  -0.82277
  Beta  occ. eigenvalues --   -0.72624  -0.71011  -0.66329  -0.63485  -0.61878
  Beta  occ. eigenvalues --   -0.59497  -0.55300  -0.53326  -0.50358  -0.48770
  Beta  occ. eigenvalues --   -0.47917  -0.46070  -0.43473  -0.42843  -0.39274
  Beta  occ. eigenvalues --   -0.38368  -0.37017  -0.36651  -0.35183  -0.34697
  Beta  occ. eigenvalues --   -0.34360  -0.32716  -0.32114  -0.31920  -0.31525
  Beta  occ. eigenvalues --   -0.30703  -0.30434  -0.30009  -0.29308  -0.28449
  Beta  occ. eigenvalues --   -0.28201  -0.26468  -0.26249  -0.24577  -0.24300
  Beta  occ. eigenvalues --   -0.23377  -0.21270  -0.17889  -0.17065  -0.13910
  Beta  occ. eigenvalues --   -0.11805  -0.11709  -0.10658  -0.09743  -0.09600
  Beta virt. eigenvalues --    0.05374   0.07266   0.07816   0.08631   0.08892
  Beta virt. eigenvalues --    0.09142   0.09802   0.10500   0.10727   0.11406
  Beta virt. eigenvalues --    0.12174   0.12338   0.12692   0.13670   0.13771

 Mulliken charges and spin densities:
               1          2
     1  C   -0.607597   0.003077
     2  C    0.158554  -0.039622
     3  C   -0.472518   0.015110
     4  N   -0.132920   0.002727
     5  C   -0.390453  -0.012870
     6  C    0.252942   0.011666
     7  C   -0.310624  -0.005909
     8  O   -0.299242   0.005360
     9  N   -0.415184  -0.017985
    10  C    0.056931   0.154832
    11  C   -0.572942  -0.027384
    12  C   -0.091568   0.143447
    13  C   -0.091341   0.011505
    14  C   -0.101777   0.126547
    15  C    0.048800   0.013350
    16  N   -0.287227   0.188028
    17  O   -0.172856   0.182219
    18  O   -0.178613   0.188590
    19  O   -0.165684  -0.000897
    20  H    0.033646   0.001644
    21  H    0.138685   0.000758
    22  H    0.139199   0.000604
    23  H    0.166332   0.006743
    24  H    0.146249   0.003470
    25  H    0.193806   0.009724
    26  H    0.260055  -0.000244
    27  H    0.187099  -0.002111
    28  H    0.098827   0.010781
    29  H    0.256786   0.001586
    30  H    0.304085   0.030511
    31  H    0.249616  -0.009582
    32  H    0.222365  -0.005553
    33  H    0.103644   0.008407
    34  H    0.272924   0.001471
 Sum of Mulliken charges =  -1.00000   1.00000

 Dipole moment (field-independent basis, Debye):
    X=             12.9465    Y=             -1.7037    Z=              1.1891  Tot=             13.1121
 Quadrupole moment (field-independent basis, Debye-Ang):
   XX=           -208.2912   YY=           -122.4547   ZZ=           -121.2992
   XY=            -13.5992   XZ=             12.7144   YZ=             -2.6577

 Summary of Natural Population Analysis:

                                       Natural Population
                Natural  -----------------------------------------------
    Atom  No    Charge         Core      Valence    Rydberg      Total
 -----------------------------------------------------------------------
      C    1   -0.28872      0.99965     2.28385    0.00522     3.28872
      C    2   -0.10818      0.99960     2.10077    0.00781     3.10818
      C    3   -0.08776      0.99961     2.07848    0.00967     3.08776
      N    4   -0.33881      0.99975     2.82737    0.01168     3.83881
      C    5   -0.08040      0.99963     2.07171    0.00906     3.08040
      C    6   -0.15124      0.99953     2.14107    0.01064     3.15124
      C    7    0.35383      0.99964     1.62198    0.02455     2.64617
      O    8   -0.32563      0.99988     3.31920    0.00655     4.32563
      N    9   -0.33568      0.99966     2.82348    0.01255     3.83568
      C   10    0.05077      0.99942     1.93656    0.01326     2.94923
      C   11    0.14020      0.99936     1.84655    0.01389     2.85980
      C   12   -0.09745      0.99949     2.08847    0.00950     3.09745
      C   13    0.07598      0.99941     1.90869    0.01592     2.92402
      C   14   -0.09434      0.99952     2.08529    0.00953     3.09434
      C   15   -0.09481      0.99954     2.08638    0.00889     3.09481
      N   16    0.30047      0.99972     2.17352    0.02629     3.19953
      O   17   -0.19342      0.99990     3.18581    0.00772     4.19342
      O   18   -0.19006      0.99990     3.18251    0.00765     4.19006
      O   19   -0.34528      0.99988     3.33882    0.00659     4.34528
      H   20    0.10500      0.00000     0.39326    0.00174     0.39500
      H   21    0.09826      0.00000     0.40091    0.00083     0.40174
      H   22    0.09929      0.00000     0.39989    0.00082     0.40071
      H   23    0.09111      0.00000     0.40708    0.00181     0.40889
      H   24    0.08814      0.00000     0.41070    0.00116     0.41186
      H   25    0.10251      0.00000     0.39587    0.00162     0.39749
      H   26    0.17561      0.00000     0.32300    0.00139     0.32439
      H   27    0.09190      0.00000     0.40691    0.00119     0.40810
      H   28    0.08344      0.00000     0.41510    0.00147     0.41656
      H   29    0.11419      0.00000     0.38486    0.00095     0.38581
      H   30    0.19605      0.00000     0.30217    0.00177     0.30395
      H   31    0.11882      0.00000     0.38002    0.00116     0.38118
      H   32    0.11456      0.00000     0.38431    0.00114     0.38544
      H   33    0.09746      0.00000     0.40129    0.00125     0.40254
      H   34    0.23420      0.00000     0.26341    0.00239     0.26580
 =======================================================================
   * Total *    0.00000     18.99305    50.76928    0.23766    70.00000

 Normal termination of Gaussian 16 at Sun Dec 13 14:07:50 2020.
