 Gaussian 16, Revision A.03,

 -----------------------------------------------------------
 # opt freq B3LYP/6-31G(d) empiricaldispersion=gd3bj scf=xqc
 -----------------------------------------------------------

 ------------------------------
 CID_57944833_JID_3933_neutraal
 ------------------------------
 Symbolic Z-matrix:
 Charge =  0 Multiplicity = 1

 SCF Done:  E(RB3LYP) =  -581.717090693     A.U. after   15 cycles
 SCF Done:  E(RB3LYP) =  -581.719619239     A.U. after   12 cycles
 SCF Done:  E(RB3LYP) =  -581.719158316     A.U. after   13 cycles
 SCF Done:  E(RB3LYP) =  -581.720000912     A.U. after   11 cycles
 SCF Done:  E(RB3LYP) =  -581.720073656     A.U. after   12 cycles
 SCF Done:  E(RB3LYP) =  -581.720129742     A.U. after   10 cycles
 SCF Done:  E(RB3LYP) =  -581.720147008     A.U. after   10 cycles
 SCF Done:  E(RB3LYP) =  -581.720150959     A.U. after    9 cycles
 SCF Done:  E(RB3LYP) =  -581.720152403     A.U. after    8 cycles
 SCF Done:  E(RB3LYP) =  -581.720152724     A.U. after    7 cycles
 SCF Done:  E(RB3LYP) =  -581.720152644     A.U. after    6 cycles
 Optimization completed.
    -- Stationary point found.
 Normal termination of Gaussian 16 at Mon Dec 14 16:31:55 2020.

 --------------------------------------------------------------------
 #N Geom=AllCheck Guess=TCheck SCRF=Check GenChk RB3LYP/6-31G(d) Freq
 --------------------------------------------------------------------

 Structure from the checkpoint file:  "JID_3933.chk"
 ------------------------------
 CID_57944833_JID_3933_neutraal
 ------------------------------
 Charge =  0 Multiplicity = 1

 SCF Done:  E(RB3LYP) =  -581.720152644     A.U. after    1 cycles

  Exact polarizability: 121.232   5.480 121.619  -1.688  12.148 113.234
 Approx polarizability: 161.642   4.710 163.717 -15.132  27.717 180.759

                      1                      2                      3
                      A                      A                      A
 Frequencies --     49.2642                52.9181                71.4671
 Red. masses --      3.9033                 3.0812                 3.0295
 Frc consts  --      0.0056                 0.0051                 0.0091
 IR Inten    --      2.2092                 0.1255                 0.0907

                      4                      5                      6
                      A                      A                      A
 Frequencies --     86.2227               109.9475               135.2520
 Red. masses --      3.4067                 2.5991                 2.6750
 Frc consts  --      0.0149                 0.0185                 0.0288
 IR Inten    --      0.1892                 0.4495                 1.1181

                      7                      8                      9
                      A                      A                      A
 Frequencies --    157.6019               181.1278               207.7152
 Red. masses --      2.9751                 2.0828                 2.5343
 Frc consts  --      0.0435                 0.0403                 0.0644
 IR Inten    --      1.6704                 0.8227                 0.7096

                     10                     11                     12
                      A                      A                      A
 Frequencies --    235.4150               249.4608               263.8644
 Red. masses --      3.0045                 1.4177                 1.0716
 Frc consts  --      0.0981                 0.0520                 0.0440
 IR Inten    --      1.6777                 0.4004                 0.2129

                     13                     14                     15
                      A                      A                      A
 Frequencies --    283.0487               305.1722               317.0254
 Red. masses --      1.4372                 2.5188                 1.9312
 Frc consts  --      0.0678                 0.1382                 0.1144
 IR Inten    --      0.7950                 4.3102                 2.2089

                     16                     17                     18
                      A                      A                      A
 Frequencies --    344.9336               369.7393               391.2509
 Red. masses --      2.5526                 2.2285                 2.3774
 Frc consts  --      0.1789                 0.1795                 0.2144
 IR Inten    --      1.2275                 1.6818                 0.8548

                     19                     20                     21
                      A                      A                      A
 Frequencies --    425.3476               488.2669               509.2221
 Red. masses --      2.1379                 2.3561                 1.7288
 Frc consts  --      0.2279                 0.3309                 0.2641
 IR Inten    --      2.7861                 2.2242                 1.0010

                     22                     23                     24
                      A                      A                      A
 Frequencies --    538.2903               569.1226               610.5528
 Red. masses --      3.5357                 2.5427                 3.2210
 Frc consts  --      0.6036                 0.4852                 0.7074
 IR Inten    --      3.5461                 2.4219                 1.2116

                     25                     26                     27
                      A                      A                      A
 Frequencies --    721.1608               788.4231               810.7050
 Red. masses --      1.9709                 1.4397                 1.7868
 Frc consts  --      0.6039                 0.5273                 0.6919
 IR Inten    --      1.6596                 6.9278                 4.7826

                     28                     29                     30
                      A                      A                      A
 Frequencies --    822.2785               834.8276               860.0800
 Red. masses --      3.8699                 2.3678                 1.7154
 Frc consts  --      1.5417                 0.9723                 0.7476
 IR Inten    --     22.7758                 4.4393                 5.1281

                     31                     32                     33
                      A                      A                      A
 Frequencies --    884.0341               911.8359               934.7403
 Red. masses --      2.5396                 1.6199                 2.0872
 Frc consts  --      1.1694                 0.7935                 1.0745
 IR Inten    --      7.4253                 2.4107                 6.9649

                     34                     35                     36
                      A                      A                      A
 Frequencies --    945.1384               971.5811               989.3652
 Red. masses --      1.8543                 1.9138                 1.3683
 Frc consts  --      0.9759                 1.0644                 0.7891
 IR Inten    --      5.8826                 1.3672                25.4343

                     37                     38                     39
                      A                      A                      A
 Frequencies --   1024.6336              1035.8514              1073.0564
 Red. masses --      1.6931                 1.0782                 1.7268
 Frc consts  --      1.0473                 0.6816                 1.1715
 IR Inten    --      3.0364                18.3621                86.7877

                     40                     41                     42
                      A                      A                      A
 Frequencies --   1075.0539              1083.1997              1098.6423
 Red. masses --      1.6784                 1.6003                 1.6817
 Frc consts  --      1.1429                 1.1063                 1.1960
 IR Inten    --      9.1309                29.2350                 6.4691

                     43                     44                     45
                      A                      A                      A
 Frequencies --   1110.8520              1120.6276              1183.5570
 Red. masses --      1.9143                 1.9015                 2.2440
 Frc consts  --      1.3918                 1.4069                 1.8520
 IR Inten    --      3.6114                 0.2763                88.9163

                     46                     47                     48
                      A                      A                      A
 Frequencies --   1215.3944              1244.0027              1296.6569
 Red. masses --      2.4620                 2.0363                 1.3126
 Frc consts  --      2.1427                 1.8567                 1.3003
 IR Inten    --     14.9896                13.2611                14.0081

                     49                     50                     51
                      A                      A                      A
 Frequencies --   1306.5636              1321.3154              1322.7584
 Red. masses --      2.0410                 1.3279                 1.7421
 Frc consts  --      2.0528                 1.3659                 1.7959
 IR Inten    --    226.5655                 1.9186                64.7487

                     52                     53                     54
                      A                      A                      A
 Frequencies --   1324.1853              1348.0343              1401.5338
 Red. masses --      1.2043                 1.5407                 1.3610
 Frc consts  --      1.2442                 1.6496                 1.5751
 IR Inten    --      1.9110                20.0034                 4.7639

                     55                     56                     57
                      A                      A                      A
 Frequencies --   1404.4741              1412.8502              1418.8244
 Red. masses --      1.3500                 1.4559                 1.4973
 Frc consts  --      1.5690                 1.7122                 1.7759
 IR Inten    --      1.4870                 1.8957                 4.5720

                     58                     59                     60
                      A                      A                      A
 Frequencies --   1437.1144              1444.9931              1446.0733
 Red. masses --      1.2530                 1.2570                 1.2654
 Frc consts  --      1.5247                 1.5464                 1.5591
 IR Inten    --     17.0872                 1.8152                 4.4331

                     61                     62                     63
                      A                      A                      A
 Frequencies --   1458.2825              1500.7568              1511.7063
 Red. masses --      1.2590                 1.0855                 1.0672
 Frc consts  --      1.5775                 1.4405                 1.4370
 IR Inten    --     39.9145                 1.5910                 0.5403

                     64                     65                     66
                      A                      A                      A
 Frequencies --   1516.1524              1522.6711              1526.2305
 Red. masses --      1.0725                 1.0571                 1.0625
 Frc consts  --      1.4526                 1.4440                 1.4583
 IR Inten    --      8.2082                10.4000                 1.1992

                     67                     68                     69
                      A                      A                      A
 Frequencies --   1529.5919              1532.7453              1538.1787
 Red. masses --      1.0439                 1.0456                 1.0633
 Frc consts  --      1.4391                 1.4473                 1.4822
 IR Inten    --      5.3260                15.0069                 9.5259

                     70                     71                     72
                      A                      A                      A
 Frequencies --   1544.7933              1549.4163              1704.7045
 Red. masses --      1.0661                 1.0631                 4.6390
 Frc consts  --      1.4990                 1.5036                 7.9429
 IR Inten    --     10.3453                 3.6145                18.0543

                     73                     74                     75
                      A                      A                      A
 Frequencies --   1791.8441              3036.3624              3036.9245
 Red. masses --     10.0205                 1.0660                 1.0635
 Frc consts  --     18.9557                 5.7905                 5.7789
 IR Inten    --    203.0426                24.5788                18.7450

                     76                     77                     78
                      A                      A                      A
 Frequencies --   3045.7682              3048.9620              3050.9538
 Red. masses --      1.0592                 1.0449                 1.0513
 Frc consts  --      5.7894                 5.7232                 5.7655
 IR Inten    --      8.3936                36.4139                49.5238

                     79                     80                     81
                      A                      A                      A
 Frequencies --   3052.6598              3067.6384              3068.8982
 Red. masses --      1.0517                 1.0486                 1.0992
 Frc consts  --      5.7745                 5.8137                 6.0996
 IR Inten    --     22.6741                20.9546                30.1891

                     82                     83                     84
                      A                      A                      A
 Frequencies --   3072.3078              3092.3081              3107.8891
 Red. masses --      1.0913                 1.0994                 1.1012
 Frc consts  --      6.0693                 6.1941                 6.2667
 IR Inten    --     12.1280                30.4147                63.6302

                     85                     86                     87
                      A                      A                      A
 Frequencies --   3110.8731              3124.1355              3133.4503
 Red. masses --      1.1019                 1.0931                 1.1000
 Frc consts  --      6.2831                 6.2859                 6.3636
 IR Inten    --     41.9682                12.9950                24.7494

                     88                     89                     90
                      A                      A                      A
 Frequencies --   3141.4684              3144.2993              3175.7685
 Red. masses --      1.0995                 1.0988                 1.0999
 Frc consts  --      6.3931                 6.4004                 6.5358
 IR Inten    --     32.8817                36.1985                 7.1795

                     91                     92                     93
                      A                      A                      A
 Frequencies --   3179.5127              3211.3616              3270.5883
 Red. masses --      1.0592                 1.0940                 1.1153
 Frc consts  --      6.3090                 6.6473                 7.0290
 IR Inten    --      6.6472                 5.7143                 6.8082

 - Thermochemistry -
 -------------------
 Temperature   298.150 Kelvin.  Pressure   1.00000 Atm.
 Atom     1 has atomic number  6 and mass  12.00000

 Molecular mass:   184.14633 amu.
 Principal axes and moments of inertia in atomic units:
                           1         2         3
     Eigenvalues --  2280.689342536.013873292.52731
           X            0.99296  -0.11353   0.03390
           Y            0.11330   0.99352   0.00838
           Z           -0.03463  -0.00448   0.99939
 This molecule is an asymmetric top.
 Rotational symmetry number  1.
 Warning -- assumption of classical behavior for rotation
           may cause significant error
 Rotational temperatures (Kelvin)      0.03798     0.03415     0.02631
 Rotational constants (GHZ):           0.79131     0.71164     0.54813
 Zero-point vibrational energy     777428.2 (Joules/Mol)
                                  185.80981 (Kcal/Mol)
 Warning -- explicit consideration of  24 degrees of freedom as
           vibrations may cause significant error
 Vibrational temperatures:     70.88    76.14   102.83   124.06   158.19
          (Kelvin)            194.60   226.75   260.60   298.86   338.71
                              358.92   379.64   407.24   439.07   456.13
                              496.28   531.97   562.92   611.98   702.51
                              732.66   774.48   818.84   878.45  1037.59
                             1134.36  1166.42  1183.08  1201.13  1237.46
                             1271.93  1311.93  1344.88  1359.84  1397.89
                             1423.48  1474.22  1490.36  1543.89  1546.76
                             1558.48  1580.70  1598.27  1612.33  1702.87
                             1748.68  1789.84  1865.60  1879.85  1901.08
                             1903.15  1905.21  1939.52  2016.49  2020.73
                             2032.78  2041.37  2067.69  2079.02  2080.58
                             2098.14  2159.25  2175.01  2181.41  2190.78
                             2195.91  2200.74  2205.28  2213.10  2222.61
                             2229.26  2452.69  2578.06  4368.65  4369.46
                             4382.18  4386.78  4389.64  4392.10  4413.65
                             4415.46  4420.37  4449.14  4471.56  4475.85
                             4494.93  4508.34  4519.87  4523.95  4569.22
                             4574.61  4620.43  4705.65

 Zero-point correction=                           0.296107 (Hartree/Particle)
 Thermal correction to Energy=                    0.311495
 Thermal correction to Enthalpy=                  0.312439
 Thermal correction to Gibbs Free Energy=         0.254098
 Sum of electronic and zero-point Energies=           -581.424046
 Sum of electronic and thermal Energies=              -581.408658
 Sum of electronic and thermal Enthalpies=            -581.407714
 Sum of electronic and thermal Free Energies=         -581.466055

                     E (Thermal)             CV                S
                      KCal/Mol        Cal/Mol-Kelvin    Cal/Mol-Kelvin
 Total                  195.466             57.296            122.788
 Electronic               0.000              0.000              0.000
 Translational            0.889              2.981             41.538
 Rotational               0.889              2.981             31.321
 Vibrational            193.688             51.334             49.929
 Vibration     1          0.595              1.978              4.847
 Vibration     2          0.596              1.976              4.705
 Vibration     3          0.598              1.968              4.113
 Vibration     4          0.601              1.959              3.744
 Vibration     5          0.606              1.941              3.270
 Vibration     6          0.613              1.918              2.870
 Vibration     7          0.621              1.894              2.578
 Vibration     8          0.630              1.865              2.317
 Vibration     9          0.641              1.829              2.064
 Vibration    10          0.655              1.787              1.837
 Vibration    11          0.662              1.764              1.734
 Vibration    12          0.670              1.739              1.636
 Vibration    13          0.682              1.705              1.515
 Vibration    14          0.696              1.664              1.388
 Vibration    15          0.704              1.641              1.325
 Vibration    16          0.723              1.586              1.189
 Vibration    17          0.742              1.534              1.081
 Vibration    18          0.759              1.489              0.995
 Vibration    19          0.787              1.415              0.874
 Vibration    20          0.844              1.276              0.688
 Vibration    21          0.864              1.230              0.635
 Vibration    22          0.893              1.165              0.569
 Vibration    23          0.925              1.098              0.506
 Vibration    24          0.970              1.009              0.432

 Optimization completed.
    -- Stationary point found.
 Normal termination of Gaussian 16 at Mon Dec 14 16:41:46 2020.

 ----------------------------------------------------------------------
 # B3LYP/6-311++G(d,p) empiricaldispersion=gd3bj scf=xqc pop=npa geom=c
 heck
 ----------------------------------------------------------------------

 --------------------------------------
 CID_57944833_JID_3933_Energie_neutraal
 --------------------------------------
 Structure from the checkpoint file:  "JID_3933.chk"
 Charge =  0 Multiplicity = 1

 SCF Done:  E(RB3LYP) =  -581.886975425     A.U. after   14 cycles
 Normal termination of Gaussian 16 at Mon Dec 14 16:46:11 2020.

 ----------------------------------------------------------------------
 # B3LYP/6-311++G(d,p) empiricaldispersion=gd3bj scf=xqc pop=npa geom=c
 heck
 ----------------------------------------------------------------------

 ------------------------------------
 CID_57944833_JID_3933_Energie_kation
 ------------------------------------
 Structure from the checkpoint file:  "JID_3933.chk"
 Charge =  1 Multiplicity = 2

 SCF Done:  E(UB3LYP) =  -581.543371878     A.U. after   28 cycles
 Normal termination of Gaussian 16 at Mon Dec 14 16:58:20 2020.
 Gaussian 16:  ES64L-G16RevA.03 25-Dec-2016

 ----------------------------------------------------------------------
 # B3LYP/6-311++G(d,p) empiricaldispersion=gd3bj scf=xqc pop=npa geom=c
 heck
 ----------------------------------------------------------------------

 -----------------------------------
 CID_57944833_JID_3933_Energie_anion
 -----------------------------------
 Structure from the checkpoint file:  "JID_3933.chk"
 Charge = -1 Multiplicity = 2

                         Standard orientation:
 ---------------------------------------------------------------------
 Center     Atomic      Atomic             Coordinates (Angstroms)
 Number     Number       Type             X           Y           Z
 ---------------------------------------------------------------------
      1          6           0        2.210367   -1.992194   -0.711063
      2          6           0        2.806766   -0.614702   -0.404938
      3          6           0        1.830772    0.568498   -0.505183
      4          6           0        0.677668    0.641922    0.511787
      5          6           0        1.157121    0.362006    1.939354
      6          6           0       -0.023583    2.015500    0.449449
      7          6           0       -0.475281    2.534534   -0.925169
      8          6           0       -1.589379    1.726470   -1.600198
      9          8           0       -0.236755   -0.427821    0.078578
     10          6           0       -1.378734   -0.702222    0.734832
     11          8           0       -1.781363   -0.131151    1.732161
     12          6           0       -2.137130   -1.808816    0.096642
     13          6           0       -1.754318   -2.457995   -1.005192
     14          1           0        1.453785   -2.282777    0.021832
     15          1           0        2.993521   -2.758915   -0.717417
     16          1           0        1.729072   -1.997438   -1.696753
     17          1           0        3.275765   -0.628065    0.586540
     18          1           0        3.621758   -0.419833   -1.114527
     19          1           0        2.404425    1.498246   -0.396695
     20          1           0        1.396896    0.587668   -1.511722
     21          1           0        2.004355    1.015289    2.175268
     22          1           0        0.358762    0.542674    2.659566
     23          1           0        1.487989   -0.675202    2.042519
     24          1           0       -0.879643    1.988217    1.128829
     25          1           0        0.687946    2.736251    0.874163
     26          1           0       -0.830068    3.562671   -0.775080
     27          1           0        0.384045    2.614997   -1.602609
     28          1           0       -2.442195    1.595712   -0.923428
     29          1           0       -1.950370    2.241326   -2.497749
     30          1           0       -1.249426    0.730539   -1.895643
     31          1           0       -3.060702   -2.050771    0.614239
     32          1           0       -2.357493   -3.257587   -1.425529
     33          1           0       -0.829098   -2.209227   -1.513638
 ---------------------------------------------------------------------

 SCF Done:  E(UB3LYP) =  -581.881198575     A.U. after   33 cycles
 SCF Done:  E(UB3LYP) =  -581.881198575     a.u. after    2 cycles

 The electronic state is 2-A.
 Alpha  occ. eigenvalues --  -19.01513 -18.94808 -10.13677 -10.12103 -10.05986
 Alpha  occ. eigenvalues --  -10.05463 -10.05333 -10.04788 -10.04771 -10.04595
 Alpha  occ. eigenvalues --  -10.03840 -10.02478 -10.02034  -0.95403  -0.86790
 Alpha  occ. eigenvalues --   -0.71044  -0.66843  -0.64586  -0.62748  -0.57838
 Alpha  occ. eigenvalues --   -0.56671  -0.52709  -0.48518  -0.47740  -0.45011
 Alpha  occ. eigenvalues --   -0.38766  -0.36760  -0.35635  -0.34393  -0.33733
 Alpha  occ. eigenvalues --   -0.32448  -0.32218  -0.31269  -0.30249  -0.29575
 Alpha  occ. eigenvalues --   -0.28920  -0.27814  -0.27239  -0.26699  -0.24977
 Alpha  occ. eigenvalues --   -0.23842  -0.23320  -0.22884  -0.22772  -0.22464
 Alpha  occ. eigenvalues --   -0.21551  -0.20662  -0.19497  -0.16063  -0.14167
 Alpha  occ. eigenvalues --   -0.12514   0.05080
 Alpha virt. eigenvalues --    0.06677   0.07872   0.08527   0.09168   0.09855
 Alpha virt. eigenvalues --    0.10223   0.10810   0.11407   0.11676   0.12268
 Alpha virt. eigenvalues --    0.13185   0.13508   0.13953   0.14158   0.15121

  Beta  occ. eigenvalues --  -19.01467 -18.94550 -10.13489 -10.12106 -10.05974
  Beta  occ. eigenvalues --  -10.05444 -10.05320 -10.04786 -10.04760 -10.04588
  Beta  occ. eigenvalues --  -10.03830 -10.02376 -10.01698  -0.95185  -0.86417
  Beta  occ. eigenvalues --   -0.70991  -0.66821  -0.64393  -0.62360  -0.57811
  Beta  occ. eigenvalues --   -0.56648  -0.52469  -0.48134  -0.47691  -0.44615
  Beta  occ. eigenvalues --   -0.38691  -0.36700  -0.35527  -0.34202  -0.33598
  Beta  occ. eigenvalues --   -0.32308  -0.32045  -0.31083  -0.30148  -0.29519
  Beta  occ. eigenvalues --   -0.28646  -0.27564  -0.27089  -0.26598  -0.24937
  Beta  occ. eigenvalues --   -0.23681  -0.23242  -0.22840  -0.22728  -0.22356
  Beta  occ. eigenvalues --   -0.21386  -0.20470  -0.19410  -0.15458  -0.12414
  Beta  occ. eigenvalues --   -0.12266
  Beta virt. eigenvalues --    0.07236   0.08113   0.08774   0.09350   0.09937
  Beta virt. eigenvalues --    0.10204   0.10475   0.10959   0.11506   0.11792
  Beta virt. eigenvalues --    0.12340   0.13287   0.13689   0.13927   0.14283

 Mulliken charges and spin densities:
               1          2
     1  C   -0.430286  -0.115785
     2  C    0.635223  -0.939918
     3  C   -0.664317   0.356400
     4  C    0.134700  -0.027566
     5  C   -0.022343  -0.517811
     6  C    0.039287  -0.194041
     7  C   -0.352672  -0.010079
     8  C    0.040428  -0.542304
     9  O    0.173784   0.007441
    10  C   -0.133235   0.165441
    11  O   -0.275533   0.081149
    12  C    0.016792  -0.041137
    13  C   -0.555952   0.268641
    14  H    0.139538   0.031364
    15  H    0.100834   0.014826
    16  H    0.120733   0.010190
    17  H    0.034432   0.091978
    18  H   -0.369940   0.538075
    19  H   -0.238445   0.406003
    20  H    0.207539  -0.035043
    21  H   -0.049062   0.208360
    22  H    0.213334  -0.030649
    23  H    0.188523  -0.049662
    24  H    0.163782   0.058950
    25  H   -0.155264   0.302772
    26  H   -0.213915   0.366352
    27  H   -0.133280   0.265984
    28  H    0.118009  -0.002427
    29  H    0.006411   0.130773
    30  H   -0.040694   0.211468
    31  H    0.134052   0.010104
    32  H    0.097893  -0.004209
    33  H    0.069642  -0.015642
 Sum of Mulliken charges =  -1.00000   1.00000

 Dipole moment (field-independent basis, Debye):
    X=              1.0387    Y=             -1.0062    Z=              0.7237  Tot=              1.6172
 Quadrupole moment (field-independent basis, Debye-Ang):
   XX=           -124.5481   YY=           -118.0871   ZZ=           -110.1796
   XY=             -7.2031   XZ=              5.3814   YZ=              0.9734

 Summary of Natural Population Analysis:

                                       Natural Population
                Natural  -----------------------------------------------
    Atom  No    Charge         Core      Valence    Rydberg      Total
 -----------------------------------------------------------------------
      C    1   -0.28643      0.99966     2.28126    0.00551     3.28643
      C    2   -0.18972      0.99964     2.18157    0.00851     3.18972
      C    3   -0.19749      0.99956     2.18640    0.01153     3.19749
      C    4    0.14463      0.99949     1.84052    0.01536     2.85537
      C    5   -0.30208      0.99960     2.29607    0.00640     3.30208
      C    6   -0.20522      0.99956     2.19521    0.01045     3.20522
      C    7   -0.19003      0.99964     2.18244    0.00795     3.19003
      C    8   -0.29020      0.99966     2.28463    0.00592     3.29020
      O    9   -0.30514      0.99985     3.29158    0.01372     4.30514
      C   10    0.41106      0.99964     1.56501    0.02428     2.58894
      O   11   -0.30384      0.99987     3.29917    0.00480     4.30384
      C   12   -0.13862      0.99952     2.12949    0.00961     3.13862
      C   13   -0.10218      0.99959     2.09432    0.00827     3.10218
      H   14    0.10628      0.00000     0.39276    0.00096     0.39372
      H   15    0.09007      0.00000     0.40923    0.00070     0.40993
      H   16    0.09691      0.00000     0.40224    0.00086     0.40309
      H   17    0.09178      0.00000     0.40724    0.00098     0.40822
      H   18    0.09473      0.00000     0.40416    0.00112     0.40527
      H   19    0.10054      0.00000     0.39799    0.00147     0.39946
      H   20    0.10286      0.00000     0.39570    0.00145     0.39714
      H   21    0.09710      0.00000     0.40211    0.00080     0.40290
      H   22    0.11588      0.00000     0.38323    0.00089     0.38412
      H   23    0.10112      0.00000     0.39812    0.00076     0.39888
      H   24    0.11404      0.00000     0.38487    0.00109     0.38596
      H   25    0.09835      0.00000     0.40047    0.00118     0.40165
      H   26    0.09275      0.00000     0.40633    0.00092     0.40725
      H   27    0.09268      0.00000     0.40606    0.00126     0.40732
      H   28    0.09932      0.00000     0.39982    0.00086     0.40068
      H   29    0.09151      0.00000     0.40775    0.00074     0.40849
      H   30    0.10715      0.00000     0.39167    0.00118     0.39285
      H   31    0.09109      0.00000     0.40741    0.00150     0.40891
      H   32    0.08049      0.00000     0.41855    0.00095     0.41951
      H   33    0.09063      0.00000     0.40819    0.00118     0.40937
 =======================================================================
   * Total *    0.00000     12.99529    37.85153    0.15317    51.00000

 Normal termination of Gaussian 16 at Mon Dec 14 17:28:50 2020.
