 Gaussian 16, Revision A.03,

 -----------------------------------------------------------
 # opt freq B3LYP/6-31G(d) empiricaldispersion=gd3bj scf=xqc
 -----------------------------------------------------------

 -------------------------------
 CID_113444313_JID_8292_neutraal
 -------------------------------
 Symbolic Z-matrix:
 Charge =  0 Multiplicity = 1

 SCF Done:  E(RB3LYP) =  -775.806855141     A.U. after   15 cycles
 SCF Done:  E(RB3LYP) =  -775.812652339     A.U. after   13 cycles
 SCF Done:  E(RB3LYP) =  -775.813617665     A.U. after   12 cycles
 SCF Done:  E(RB3LYP) =  -775.813870437     A.U. after   12 cycles
 SCF Done:  E(RB3LYP) =  -775.813937532     A.U. after   11 cycles
 SCF Done:  E(RB3LYP) =  -775.813975669     A.U. after   10 cycles
 SCF Done:  E(RB3LYP) =  -775.813993230     A.U. after   10 cycles
 SCF Done:  E(RB3LYP) =  -775.814000281     A.U. after    9 cycles
 SCF Done:  E(RB3LYP) =  -775.814006468     A.U. after    9 cycles
 SCF Done:  E(RB3LYP) =  -775.814012230     A.U. after    9 cycles
 SCF Done:  E(RB3LYP) =  -775.814017118     A.U. after    8 cycles
 SCF Done:  E(RB3LYP) =  -775.814017363     A.U. after    7 cycles
 SCF Done:  E(RB3LYP) =  -775.814017449     A.U. after    7 cycles
 SCF Done:  E(RB3LYP) =  -775.814017492     A.U. after    6 cycles
 SCF Done:  E(RB3LYP) =  -775.814017529     A.U. after    6 cycles
 SCF Done:  E(RB3LYP) =  -775.814017556     A.U. after    7 cycles
 Optimization completed.
    -- Stationary point found.
 Normal termination of Gaussian 16 at Fri Dec 11 19:58:50 2020.

 --------------------------------------------------------------------
 #N Geom=AllCheck Guess=TCheck SCRF=Check GenChk RB3LYP/6-31G(d) Freq
 --------------------------------------------------------------------

 Structure from the checkpoint file:  "JID_8292.chk"
 -------------------------------
 CID_113444313_JID_8292_neutraal
 -------------------------------
 Charge =  0 Multiplicity = 1

 SCF Done:  E(RB3LYP) =  -775.814017556     A.U. after    1 cycles

  Exact polarizability: 306.213  -6.744 160.945  -4.005   0.599  71.467
 Approx polarizability: 459.841  -2.340 282.750  -7.529  -1.366 113.877

                      1                      2                      3
                      A                      A                      A
 Frequencies --     40.1449                49.3422                90.3319
 Red. masses --      4.9463                 4.4844                 6.6921
 Frc consts  --      0.0047                 0.0064                 0.0322
 IR Inten    --      0.1490                 2.9267                 3.1707

                      4                      5                      6
                      A                      A                      A
 Frequencies --    105.6982               117.1626               134.6582
 Red. masses --      1.1619                 4.0129                 3.4416
 Frc consts  --      0.0076                 0.0325                 0.0368
 IR Inten    --      0.2120                 3.5389                 0.4532

                      7                      8                      9
                      A                      A                      A
 Frequencies --    143.9445               172.0378               212.8248
 Red. masses --      4.1212                 1.4268                 3.5306
 Frc consts  --      0.0503                 0.0249                 0.0942
 IR Inten    --      3.4212                 3.5927                 6.4301

                     10                     11                     12
                      A                      A                      A
 Frequencies --    231.5355               275.9338               284.7894
 Red. masses --      4.4046                 5.0851                 6.1584
 Frc consts  --      0.1391                 0.2281                 0.2943
 IR Inten    --      0.9371                 1.1053                 0.8143

                     13                     14                     15
                      A                      A                      A
 Frequencies --    299.7924               312.9032               366.4765
 Red. masses --      2.5608                 5.4091                 5.8304
 Frc consts  --      0.1356                 0.3120                 0.4614
 IR Inten    --      3.5148                 1.0126                 1.3452

                     16                     17                     18
                      A                      A                      A
 Frequencies --    432.5591               457.4377               467.4294
 Red. masses --      3.3821                 3.8391                 8.5791
 Frc consts  --      0.3728                 0.4733                 1.1044
 IR Inten    --      4.9189                 2.6380                 0.0889

                     19                     20                     21
                      A                      A                      A
 Frequencies --    501.6676               530.2368               604.2869
 Red. masses --      7.0893                 7.3960                 5.4592
 Frc consts  --      1.0512                 1.2252                 1.1745
 IR Inten    --      4.6552                 1.2759                 3.6010

                     22                     23                     24
                      A                      A                      A
 Frequencies --    615.0490               645.3198               659.5547
 Red. masses --      5.0577                 4.2286                 6.1350
 Frc consts  --      1.1273                 1.0375                 1.5724
 IR Inten    --      2.1574                 7.1734                 7.0837

                     25                     26                     27
                      A                      A                      A
 Frequencies --    668.0986               691.7848               733.3276
 Red. masses --      5.8521                 5.9791                 5.5723
 Frc consts  --      1.5390                 1.6859                 1.7656
 IR Inten    --      1.5472                 7.9696                 7.2903

                     28                     29                     30
                      A                      A                      A
 Frequencies --    742.8535               767.8019               793.6293
 Red. masses --      6.0268                 4.3886                 1.2872
 Frc consts  --      1.9595                 1.5243                 0.4777
 IR Inten    --     10.8310                 0.1274                29.0744

                     31                     32                     33
                      A                      A                      A
 Frequencies --    806.2334               842.0062               854.2665
 Red. masses --      7.0994                 1.5571                 5.0885
 Frc consts  --      2.7189                 0.6504                 2.1879
 IR Inten    --      4.6356                26.8198                 7.1378

                     34                     35                     36
                      A                      A                      A
 Frequencies --    872.1681               877.1601               953.3516
 Red. masses --      1.4444                 1.3016                 5.3711
 Frc consts  --      0.6474                 0.5900                 2.8762
 IR Inten    --     15.4387                 2.1291                 6.8323

                     37                     38                     39
                      A                      A                      A
 Frequencies --    963.8838               967.5743              1028.8692
 Red. masses --      1.2930                 3.8281                 2.3888
 Frc consts  --      0.7078                 2.1116                 1.4899
 IR Inten    --      0.0485                 1.4217                59.7099

                     40                     41                     42
                      A                      A                      A
 Frequencies --   1073.2725              1110.2934              1113.1888
 Red. masses --      1.6422                 1.8831                 2.1897
 Frc consts  --      1.1145                 1.3678                 1.5988
 IR Inten    --      5.8435                 9.5931                11.2861

                     43                     44                     45
                      A                      A                      A
 Frequencies --   1158.8087              1161.4482              1161.8805
 Red. masses --      1.3483                 1.2995                 1.3167
 Frc consts  --      1.0668                 1.0328                 1.0473
 IR Inten    --      2.1726                 0.6631                 5.2400

                     46                     47                     48
                      A                      A                      A
 Frequencies --   1213.0753              1218.9543              1244.6162
 Red. masses --      2.2006                 2.1777                 2.2771
 Frc consts  --      1.9080                 1.9065                 2.0783
 IR Inten    --      1.9962                15.3193                 1.4608

                     49                     50                     51
                      A                      A                      A
 Frequencies --   1281.8404              1321.5828              1329.2861
 Red. masses --      2.7900                 2.2620                 4.1062
 Frc consts  --      2.7010                 2.3277                 4.2749
 IR Inten    --     23.0611                 5.6715                79.3647

                     52                     53                     54
                      A                      A                      A
 Frequencies --   1356.5059              1362.2004              1378.5028
 Red. masses --      4.3462                 5.0180                 6.6177
 Frc consts  --      4.7119                 5.4861                 7.4093
 IR Inten    --     35.0822                 1.8323                16.5469

                     55                     56                     57
                      A                      A                      A
 Frequencies --   1413.2205              1435.2711              1465.5055
 Red. masses --      6.2786                 3.4973                 1.9339
 Frc consts  --      7.3881                 4.2447                 2.4472
 IR Inten    --     81.3255                27.1879                47.3018

                     58                     59                     60
                      A                      A                      A
 Frequencies --   1481.6105              1495.3168              1502.9229
 Red. masses --      1.3781                 2.6321                 2.2617
 Frc consts  --      1.7824                 3.4675                 3.0099
 IR Inten    --      4.9012                78.4716                 2.0525

                     61                     62                     63
                      A                      A                      A
 Frequencies --   1506.8301              1516.4975              1524.1792
 Red. masses --      1.1380                 2.2464                 1.1460
 Frc consts  --      1.5223                 3.0438                 1.5686
 IR Inten    --      9.8822                 8.1083                27.0764

                     64                     65                     66
                      A                      A                      A
 Frequencies --   1525.1670              1528.7587              1543.3893
 Red. masses --      2.5411                 1.2101                 1.2843
 Frc consts  --      3.4826                 1.6663                 1.8024
 IR Inten    --      7.2848                18.6552                 4.5053

                     67                     68                     69
                      A                      A                      A
 Frequencies --   1607.7940              1641.0202              1675.8623
 Red. masses --      6.9623                 8.0740                 7.1675
 Frc consts  --     10.6039                12.8106                11.8603
 IR Inten    --     26.3730                40.6653                 9.6705

                     70                     71                     72
                      A                      A                      A
 Frequencies --   2345.8257              3062.9742              3093.5434
 Red. masses --     12.6788                 1.0388                 1.0315
 Frc consts  --     41.1073                 5.7418                 5.8163
 IR Inten    --     77.6996                32.2879                18.4150

                     73                     74                     75
                      A                      A                      A
 Frequencies --   3134.1135              3166.4222              3174.3615
 Red. masses --      1.1001                 1.1054                 1.1034
 Frc consts  --      6.3665                 6.5301                 6.5506
 IR Inten    --     13.5441                 8.0496                 2.2836

                     76                     77                     78
                      A                      A                      A
 Frequencies --   3196.9263              3216.6749              3222.9656
 Red. masses --      1.1067                 1.0883                 1.0919
 Frc consts  --      6.6641                 6.6346                 6.6828
 IR Inten    --      5.7010                 1.4818                 2.3184

                     79                     80                     81
                      A                      A                      A
 Frequencies --   3231.0052              3266.2198              3292.2495
 Red. masses --      1.0957                 1.0937                 1.1001
 Frc consts  --      6.7394                 6.8743                 7.0254
 IR Inten    --      6.1487                 9.2157                 2.0622

 - Thermochemistry -
 -------------------
 Temperature   298.150 Kelvin.  Pressure   1.00000 Atm.
 Atom     1 has atomic number  6 and mass  12.00000

 Molecular mass:   237.10145 amu.
 Principal axes and moments of inertia in atomic units:
                           1         2         3
     Eigenvalues --  1388.380488386.150679614.66435
           X            1.00000  -0.00193   0.00154
           Y            0.00192   0.99999   0.00439
           Z           -0.00155  -0.00439   0.99999
 This molecule is an asymmetric top.
 Rotational symmetry number  1.
 Warning -- assumption of classical behavior for rotation
           may cause significant error
 Rotational temperatures (Kelvin)      0.06238     0.01033     0.00901
 Rotational constants (GHZ):           1.29989     0.21520     0.18771
 Zero-point vibrational energy     592547.5 (Joules/Mol)
                                  141.62226 (Kcal/Mol)
 Warning -- explicit consideration of  22 degrees of freedom as
           vibrations may cause significant error
 Vibrational temperatures:     57.76    70.99   129.97   152.08   168.57
          (Kelvin)            193.74   207.10   247.52   306.21   333.13
                              397.01   409.75   431.33   450.20   527.28
                              622.36   658.15   672.53   721.79   762.89
                              869.43   884.92   928.47   948.95   961.24
                              995.32  1055.09  1068.80  1104.70  1141.86
                             1159.99  1211.46  1229.10  1254.86  1262.04
                             1371.66  1386.81  1392.12  1480.31  1544.20
                             1597.46  1601.63  1667.27  1671.06  1671.69
                             1745.34  1753.80  1790.73  1844.28  1901.46
                             1912.55  1951.71  1959.90  1983.36  2033.31
                             2065.04  2108.54  2131.71  2151.43  2162.37
                             2167.99  2181.90  2192.95  2194.38  2199.54
                             2220.59  2313.26  2361.06  2411.19  3375.12
                             4406.94  4450.92  4509.29  4555.78  4567.20
                             4599.66  4628.08  4637.13  4648.70  4699.36
                             4736.81

 Zero-point correction=                           0.225689 (Hartree/Particle)
 Thermal correction to Energy=                    0.240625
 Thermal correction to Enthalpy=                  0.241570
 Thermal correction to Gibbs Free Energy=         0.182970
 Sum of electronic and zero-point Energies=           -775.588328
 Sum of electronic and thermal Energies=              -775.573392
 Sum of electronic and thermal Enthalpies=            -775.572448
 Sum of electronic and thermal Free Energies=         -775.631048

                     E (Thermal)             CV                S
                      KCal/Mol        Cal/Mol-Kelvin    Cal/Mol-Kelvin
 Total                  150.995             56.770            123.334
 Electronic               0.000              0.000              0.000
 Translational            0.889              2.981             42.291
 Rotational               0.889              2.981             33.081
 Vibrational            149.217             50.809             47.961
 Vibration     1          0.594              1.981              5.252
 Vibration     2          0.595              1.978              4.844
 Vibration     3          0.602              1.956              3.653
 Vibration     4          0.605              1.945              3.346
 Vibration     5          0.608              1.935              3.147
 Vibration     6          0.613              1.919              2.878
 Vibration     7          0.616              1.909              2.751
 Vibration     8          0.626              1.877              2.413
 Vibration     9          0.644              1.821              2.019
 Vibration    10          0.653              1.793              1.867
 Vibration    11          0.678              1.718              1.559
 Vibration    12          0.683              1.702              1.505
 Vibration    13          0.692              1.674              1.418
 Vibration    14          0.701              1.649              1.347
 Vibration    15          0.739              1.541              1.095
 Vibration    16          0.793              1.399              0.850
 Vibration    17          0.816              1.344              0.774
 Vibration    18          0.825              1.322              0.745
 Vibration    19          0.857              1.246              0.654
 Vibration    20          0.885              1.183              0.587
 Vibration    21          0.963              1.023              0.442
 Vibration    22          0.975              1.000              0.424

                           ! Non-Optimized Parameters !
 Normal termination of Gaussian 16 at Fri Dec 11 20:09:22 2020.

 ----------------------------------------------------------------------
 # B3LYP/6-311++G(d,p) empiricaldispersion=gd3bj scf=xqc pop=npa geom=c
 heck
 ----------------------------------------------------------------------

 ---------------------------------------
 CID_113444313_JID_8292_Energie_neutraal
 ---------------------------------------
 Structure from the checkpoint file:  "JID_8292.chk"
 Charge =  0 Multiplicity = 1

 SCF Done:  E(RB3LYP) =  -776.009109428     A.U. after   15 cycles
 Normal termination of Gaussian 16 at Fri Dec 11 20:13:23 2020.

 ----------------------------------------------------------------------
 # B3LYP/6-311++G(d,p) empiricaldispersion=gd3bj scf=xqc pop=npa geom=c
 heck
 ----------------------------------------------------------------------

 -------------------------------------
 CID_113444313_JID_8292_Energie_kation
 -------------------------------------
 Structure from the checkpoint file:  "JID_8292.chk"
 Charge =  1 Multiplicity = 2

 SCF Done:  E(UB3LYP) =  -775.711583090     A.U. after   27 cycles
 Normal termination of Gaussian 16 at Fri Dec 11 20:23:12 2020.
 Gaussian 16:  ES64L-G16RevA.03 25-Dec-2016

 ----------------------------------------------------------------------
 # B3LYP/6-311++G(d,p) empiricaldispersion=gd3bj scf=xqc pop=npa geom=c
 heck
 ----------------------------------------------------------------------

 ------------------------------------
 CID_113444313_JID_8292_Energie_anion
 ------------------------------------
 Structure from the checkpoint file:  "JID_8292.chk"
 Charge = -1 Multiplicity = 2

                         Standard orientation:
 ---------------------------------------------------------------------
 Center     Atomic      Atomic             Coordinates (Angstroms)
 Number     Number       Type             X           Y           Z
 ---------------------------------------------------------------------
      1          6           0        3.096766    2.066015    0.632904
      2          7           0        3.312358    0.692654    0.199957
      3          6           0        2.384427   -0.262959   -0.124018
      4          6           0        3.111652   -1.399665   -0.481134
      5          6           0        4.457107   -1.024375   -0.339205
      6          7           0        4.573247    0.239511    0.076304
      7          6           0        0.958761    0.000560   -0.104100
      8          7           0        0.418930    1.199093   -0.269966
      9          6           0       -0.943002    1.001975   -0.206695
     10          6           0       -1.226988   -0.372461    0.002574
     11          7           0        0.007505   -0.995540    0.076955
     12          6           0        0.212231   -2.399304    0.388460
     13          6           0       -2.523099   -0.862884    0.103128
     14          6           0       -3.559081    0.076262   -0.008797
     15          6           0       -3.292533    1.453258   -0.218381
     16          6           0       -1.992403    1.923716   -0.318776
     17          6           0       -4.915984   -0.368206    0.086819
     18          7           0       -6.018868   -0.731055    0.165795
     19          1           0        4.069135    2.445597    0.944910
     20          1           0        2.688722    2.665173   -0.182589
     21          1           0        2.390595    2.092508    1.465111
     22          1           0        2.721586   -2.340912   -0.836298
     23          1           0        5.345941   -1.613053   -0.520272
     24          1           0       -0.597467   -2.737723    1.039502
     25          1           0        0.220903   -3.015047   -0.517728
     26          1           0        1.159757   -2.519826    0.914495
     27          1           0       -2.746101   -1.913198    0.253764
     28          1           0       -4.130324    2.136775   -0.300790
     29          1           0       -1.782077    2.975474   -0.480089
 ---------------------------------------------------------------------

 SCF Done:  E(UB3LYP) =  -776.035148596     A.U. after   21 cycles

 The electronic state is 2-A.
 Alpha  occ. eigenvalues --  -14.26801 -14.24417 -14.20980 -14.17157 -14.16736
 Alpha  occ. eigenvalues --  -10.11346 -10.10586 -10.09641 -10.09624 -10.08633
 Alpha  occ. eigenvalues --  -10.07790 -10.07450 -10.06840 -10.06630 -10.05853
 Alpha  occ. eigenvalues --  -10.05146 -10.04944 -10.04436  -0.93603  -0.89672
 Alpha  occ. eigenvalues --   -0.77481  -0.77351  -0.73256  -0.72332  -0.68483
 Alpha  occ. eigenvalues --   -0.63793  -0.62778  -0.60554  -0.58975  -0.53731
 Alpha  occ. eigenvalues --   -0.50399  -0.48710  -0.47036  -0.44644  -0.42155
 Alpha  occ. eigenvalues --   -0.41190  -0.38638  -0.37229  -0.36077  -0.35335
 Alpha  occ. eigenvalues --   -0.34680  -0.32850  -0.32625  -0.32000  -0.30553
 Alpha  occ. eigenvalues --   -0.29861  -0.28944  -0.28697  -0.28367  -0.26891
 Alpha  occ. eigenvalues --   -0.25654  -0.24632  -0.23466  -0.20628  -0.20287
 Alpha  occ. eigenvalues --   -0.18565  -0.18207  -0.15565  -0.15285  -0.14507
 Alpha  occ. eigenvalues --   -0.11646  -0.10087   0.02665
 Alpha virt. eigenvalues --    0.07251   0.08561   0.08674   0.09634   0.09886
 Alpha virt. eigenvalues --    0.10371   0.10909   0.11585   0.11894   0.12134
 Alpha virt. eigenvalues --    0.12842   0.12948   0.13482   0.14123   0.14402

  Beta  occ. eigenvalues --  -14.26568 -14.24285 -14.20786 -14.16971 -14.16722
  Beta  occ. eigenvalues --  -10.11350 -10.10225 -10.09652 -10.09637 -10.08708
  Beta  occ. eigenvalues --  -10.07857 -10.07462 -10.06762 -10.06422 -10.05937
  Beta  occ. eigenvalues --  -10.05011 -10.04663 -10.04259  -0.93267  -0.89390
  Beta  occ. eigenvalues --   -0.77221  -0.77106  -0.72942  -0.72065  -0.68184
  Beta  occ. eigenvalues --   -0.63574  -0.62405  -0.60327  -0.58899  -0.53082
  Beta  occ. eigenvalues --   -0.50315  -0.48534  -0.46800  -0.44519  -0.41913
  Beta  occ. eigenvalues --   -0.41017  -0.38456  -0.36792  -0.35644  -0.35165
  Beta  occ. eigenvalues --   -0.34586  -0.32737  -0.32494  -0.31897  -0.30418
  Beta  occ. eigenvalues --   -0.29390  -0.28837  -0.28566  -0.28021  -0.26751
  Beta  occ. eigenvalues --   -0.24692  -0.24504  -0.23182  -0.20173  -0.19703
  Beta  occ. eigenvalues --   -0.18092  -0.17645  -0.15471  -0.14381  -0.13717
  Beta  occ. eigenvalues --   -0.10560  -0.08909
  Beta virt. eigenvalues --    0.07199   0.07661   0.08532   0.08652   0.09610
  Beta virt. eigenvalues --    0.10299   0.10837   0.11009   0.11835   0.12009
  Beta virt. eigenvalues --    0.12393   0.12896   0.13050   0.13520   0.14150

 Mulliken charges and spin densities:
               1          2
     1  C   -0.323995  -0.009203
     2  N    0.191360   0.058024
     3  C   -0.307156  -0.002851
     4  C    0.052496   0.124702
     5  C   -0.310904  -0.050448
     6  N   -0.207474   0.105304
     7  C   -0.160851   0.223156
     8  N   -0.097643  -0.003994
     9  C    0.089303   0.016104
    10  C    0.054900  -0.011588
    11  N    0.059222   0.035553
    12  C   -0.380816  -0.023121
    13  C   -0.229420   0.247408
    14  C    1.622911   0.136276
    15  C   -0.615113  -0.073361
    16  C   -0.319278   0.163678
    17  C   -1.355145  -0.059119
    18  N   -0.304191   0.099722
    19  H    0.130662   0.000194
    20  H    0.182078   0.005754
    21  H    0.163099   0.010435
    22  H    0.113655  -0.007557
    23  H    0.123592   0.003003
    24  H    0.115724   0.019839
    25  H    0.164842   0.015520
    26  H    0.158375  -0.000000
    27  H    0.133979  -0.018541
    28  H    0.133617   0.005026
    29  H    0.122173  -0.009912
 Sum of Mulliken charges =  -1.00000   1.00000

 Dipole moment (field-independent basis, Debye):
    X=              6.3223    Y=             -1.2032    Z=              0.5988  Tot=              6.4636
 Quadrupole moment (field-independent basis, Debye-Ang):
   XX=           -219.1289   YY=           -107.2619   ZZ=           -113.5814
   XY=            -10.5938   XZ=              2.3304   YZ=              1.4710

 Summary of Natural Population Analysis:

                                       Natural Population
                Natural  -----------------------------------------------
    Atom  No    Charge         Core      Valence    Rydberg      Total
 -----------------------------------------------------------------------
      C    1   -0.17777      0.99967     2.17081    0.00730     3.17777
      N    2   -0.09491      0.99966     2.56178    0.03348     3.59491
      C    3    0.08057      0.99955     1.90766    0.01223     2.91943
      C    4   -0.13312      0.99956     2.12500    0.00857     3.13312
      C    5    0.00133      0.99956     1.98986    0.00925     2.99867
      N    6   -0.15067      0.99976     2.62735    0.02356     3.65067
      C    7    0.24420      0.99961     1.73796    0.01822     2.75580
      N    8   -0.26722      0.99969     2.75774    0.00979     3.76722
      C    9    0.07634      0.99947     1.91218    0.01201     2.92366
      C   10    0.05824      0.99947     1.93050    0.01178     2.94176
      N   11   -0.20134      0.99959     2.68840    0.01335     3.70134
      C   12   -0.17296      0.99966     2.16762    0.00568     3.17296
      C   13   -0.05196      0.99951     2.04368    0.00877     3.05196
      C   14   -0.07161      0.99944     2.06046    0.01171     3.07161
      C   15   -0.10905      0.99956     2.10199    0.00751     3.10905
      C   16   -0.07629      0.99953     2.06805    0.00871     3.07629
      C   17    0.15243      0.99964     1.82961    0.01832     2.84757
      N   18   -0.18536      0.99979     2.67421    0.01137     3.68536
      H   19    0.09915      0.00000     0.39969    0.00115     0.40085
      H   20    0.10771      0.00000     0.39092    0.00137     0.39229
      H   21    0.10191      0.00000     0.39690    0.00119     0.39809
      H   22    0.09873      0.00000     0.39994    0.00134     0.40127
      H   23    0.08910      0.00000     0.40940    0.00150     0.41090
      H   24    0.09792      0.00000     0.40082    0.00126     0.40208
      H   25    0.09022      0.00000     0.40804    0.00174     0.40978
      H   26    0.10330      0.00000     0.39464    0.00207     0.39670
      H   27    0.09818      0.00000     0.40097    0.00085     0.40182
      H   28    0.09836      0.00000     0.40076    0.00089     0.40164
      H   29    0.09688      0.00000     0.40154    0.00157     0.40312
 =======================================================================
   * Total *    0.00229     17.99271    43.75846    0.24654    61.99771

 Normal termination of Gaussian 16 at Fri Dec 11 20:30:41 2020.
