 Gaussian 16, Revision A.03,

 -----------------------------------------------------------
 # opt freq B3LYP/6-31G(d) empiricaldispersion=gd3bj scf=xqc
 -----------------------------------------------------------

 -----------------------------
 CID_84650014_JID_502_neutraal
 -----------------------------
 Symbolic Z-matrix:
 Charge =  0 Multiplicity = 1

 SCF Done:  E(RB3LYP) =  -780.476540407     A.U. after   14 cycles
 SCF Done:  E(RB3LYP) =  -780.479272030     A.U. after   12 cycles
 SCF Done:  E(RB3LYP) =  -780.479703520     A.U. after   12 cycles
 SCF Done:  E(RB3LYP) =  -780.480057652     A.U. after   12 cycles
 SCF Done:  E(RB3LYP) =  -780.480298319     A.U. after   11 cycles
 SCF Done:  E(RB3LYP) =  -780.480063742     A.U. after   12 cycles
 SCF Done:  E(RB3LYP) =  -780.480470773     A.U. after   12 cycles
 SCF Done:  E(RB3LYP) =  -780.480595629     A.U. after   11 cycles
 SCF Done:  E(RB3LYP) =  -780.480557428     A.U. after   12 cycles
 SCF Done:  E(RB3LYP) =  -780.480639180     A.U. after   11 cycles
 SCF Done:  E(RB3LYP) =  -780.480663358     A.U. after   11 cycles
 SCF Done:  E(RB3LYP) =  -780.480681166     A.U. after   10 cycles
 SCF Done:  E(RB3LYP) =  -780.480688577     A.U. after   11 cycles
 SCF Done:  E(RB3LYP) =  -780.480690576     A.U. after   10 cycles
 SCF Done:  E(RB3LYP) =  -780.480690780     A.U. after    8 cycles
 Optimization completed.
    -- Stationary point found.
 Normal termination of Gaussian 16 at Tue Dec  8 12:13:41 2020.

 --------------------------------------------------------------------
 #N Geom=AllCheck Guess=TCheck SCRF=Check GenChk RB3LYP/6-31G(d) Freq
 --------------------------------------------------------------------

 Structure from the checkpoint file:  "JID_502.chk"
 -----------------------------
 CID_84650014_JID_502_neutraal
 -----------------------------
 Charge =  0 Multiplicity = 1

 SCF Done:  E(RB3LYP) =  -780.480690780     A.U. after    1 cycles

  Exact polarizability: 154.079  -1.655  98.436   3.346   1.717  56.006
 Approx polarizability: 213.772  -7.838 174.716   6.801   3.180  84.555

                      1                      2                      3
                      A                      A                      A
 Frequencies --     29.4105                44.5409               148.0405
 Red. masses --      3.3519                 3.0199                 3.6771
 Frc consts  --      0.0017                 0.0035                 0.0475
 IR Inten    --      2.5866                 4.0044                 1.0961

                      4                      5                      6
                      A                      A                      A
 Frequencies --    174.2251               182.3633               247.8991
 Red. masses --      3.0696                 2.3372                 1.2936
 Frc consts  --      0.0549                 0.0458                 0.0468
 IR Inten    --      0.0774                 9.0902                 0.6684

                      7                      8                      9
                      A                      A                      A
 Frequencies --    251.3023               288.1372               305.9197
 Red. masses --      2.3949                 2.0260                 2.0460
 Frc consts  --      0.0891                 0.0991                 0.1128
 IR Inten    --      6.4787                13.5043                39.0547

                     10                     11                     12
                      A                      A                      A
 Frequencies --    424.5382               440.4481               469.4764
 Red. masses --      7.4134                 3.4661                 4.8846
 Frc consts  --      0.7872                 0.3962                 0.6343
 IR Inten    --      0.4926                 8.8813                 2.3824

                     13                     14                     15
                      A                      A                      A
 Frequencies --    514.8894               610.5872               687.9414
 Red. masses --      4.2216                 4.5437                 7.4380
 Frc consts  --      0.6594                 0.9981                 2.0740
 IR Inten    --      2.2077                13.8987                 9.7408

                     16                     17                     18
                      A                      A                      A
 Frequencies --    722.3904               727.8975               860.2323
 Red. masses --      5.0145                 2.8913                 1.2598
 Frc consts  --      1.5418                 0.9026                 0.5492
 IR Inten    --      3.9413                 9.0939                99.8857

                     19                     20                     21
                      A                      A                      A
 Frequencies --    879.2863               895.4257               932.1781
 Red. masses --      3.5926                 1.7543                 1.3661
 Frc consts  --      1.6365                 0.8287                 0.6994
 IR Inten    --      7.2900                39.5108                 6.9304

                     22                     23                     24
                      A                      A                      A
 Frequencies --    962.2494               992.3578              1004.4284
 Red. masses --      1.3877                 1.1844                 1.3597
 Frc consts  --      0.7571                 0.6872                 0.8082
 IR Inten    --      2.3587                 5.4391                17.6014

                     25                     26                     27
                      A                      A                      A
 Frequencies --   1009.7820              1043.9723              1080.5653
 Red. masses --      1.6776                 4.5359                 2.9571
 Frc consts  --      1.0078                 2.9127                 2.0343
 IR Inten    --     14.7161                 4.8587                 4.4524

                     28                     29                     30
                      A                      A                      A
 Frequencies --   1137.4080              1188.7647              1206.7820
 Red. masses --      2.2577                 1.2776                 2.0327
 Frc consts  --      1.7208                 1.0637                 1.7441
 IR Inten    --     28.3415                 5.5593                 5.1237

                     31                     32                     33
                      A                      A                      A
 Frequencies --   1256.8239              1286.4071              1332.5577
 Red. masses --      2.0609                 3.7016                 1.5219
 Frc consts  --      1.9181                 3.6091                 1.5922
 IR Inten    --      8.5190                 2.0339                 5.5803

                     34                     35                     36
                      A                      A                      A
 Frequencies --   1367.6579              1393.1102              1436.9210
 Red. masses --      1.2401                 1.1798                 1.4983
 Frc consts  --      1.3666                 1.3490                 1.8227
 IR Inten    --      2.6353                 1.7317                33.4290

                     37                     38                     39
                      A                      A                      A
 Frequencies --   1470.0823              1489.5456              1499.4401
 Red. masses --      3.0268                 1.9643                 1.0516
 Frc consts  --      3.8541                 2.5679                 1.3930
 IR Inten    --      7.0366                66.2690                 9.2240

                     40                     41                     42
                      A                      A                      A
 Frequencies --   1518.2379              1534.6450              1609.7120
 Red. masses --      1.0676                 1.0867                 4.8795
 Frc consts  --      1.4499                 1.5079                 7.4494
 IR Inten    --     15.8577                 0.1665                 9.1846

                     43                     44                     45
                      A                      A                      A
 Frequencies --   1645.3278              1694.2289              2959.6686
 Red. masses --      5.3475                 1.0975                 1.0735
 Frc consts  --      8.5292                 1.8561                 5.5405
 IR Inten    --     13.6265                30.3470                71.4161

                     46                     47                     48
                      A                      A                      A
 Frequencies --   3046.6188              3067.9756              3152.8615
 Red. masses --      1.0875                 1.0299                 1.1083
 Frc consts  --      5.9474                 5.7117                 6.4913
 IR Inten    --     27.8208                18.5168                 8.0333

                     49                     50                     51
                      A                      A                      A
 Frequencies --   3162.7926              3174.7376              3202.7701
 Red. masses --      1.1042                 1.0904                 1.0877
 Frc consts  --      6.5079                 6.4752                 6.5740
 IR Inten    --      4.8172                 7.2431                20.3786

                     52                     53                     54
                      A                      A                      A
 Frequencies --   3207.7450              3472.1890              3561.0685
 Red. masses --      1.0918                 1.0496                 1.0931
 Frc consts  --      6.6189                 7.4558                 8.1673
 IR Inten    --      3.8380                 1.6620                 0.4093

 - Thermochemistry -
 -------------------
 Temperature   298.150 Kelvin.  Pressure   1.00000 Atm.
 Atom     1 has atomic number  6 and mass  12.00000

 Molecular mass:   154.05647 amu.
 Principal axes and moments of inertia in atomic units:
                           1         2         3
     Eigenvalues --   626.082863041.014693584.01393
           X            0.99966   0.02603   0.00022
           Y           -0.02603   0.99965   0.00530
           Z           -0.00008  -0.00530   0.99999
 This molecule is an asymmetric top.
 Rotational symmetry number  1.
 Warning -- assumption of classical behavior for rotation
           may cause significant error
 Rotational temperatures (Kelvin)      0.13834     0.02848     0.02417
 Rotational constants (GHZ):           2.88259     0.59347     0.50355
 Zero-point vibrational energy     430694.9 (Joules/Mol)
                                  102.93855 (Kcal/Mol)
 Warning -- explicit consideration of  14 degrees of freedom as
           vibrations may cause significant error
 Vibrational temperatures:     42.32    64.08   213.00   250.67   262.38
          (Kelvin)            356.67   361.57   414.57   440.15   610.82
                              633.71   675.47   740.81   878.50   989.79
                             1039.36  1047.28  1237.68  1265.10  1288.32
                             1341.20  1384.46  1427.78  1445.15  1452.85
                             1502.04  1554.69  1636.48  1710.37  1736.29
                             1808.29  1850.85  1917.25  1967.75  2004.37
                             2067.41  2115.12  2143.12  2157.36  2184.41
                             2208.01  2316.02  2367.26  2437.62  4258.30
                             4383.40  4414.13  4536.26  4550.55  4567.74
                             4608.07  4615.23  4995.71  5123.58

 Zero-point correction=                           0.164043 (Hartree/Particle)
 Thermal correction to Energy=                    0.174337
 Thermal correction to Enthalpy=                  0.175281
 Thermal correction to Gibbs Free Energy=         0.126919
 Sum of electronic and zero-point Energies=           -780.316648
 Sum of electronic and thermal Energies=              -780.306354
 Sum of electronic and thermal Enthalpies=            -780.305410
 Sum of electronic and thermal Free Energies=         -780.353772

                     E (Thermal)             CV                S
                      KCal/Mol        Cal/Mol-Kelvin    Cal/Mol-Kelvin
 Total                  109.398             37.382            101.788
 Electronic               0.000              0.000              0.000
 Translational            0.889              2.981             41.006
 Rotational               0.889              2.981             30.302
 Vibrational            107.621             31.420             30.480
 Vibration     1          0.593              1.984              5.869
 Vibration     2          0.595              1.980              5.046
 Vibration     3          0.617              1.905              2.697
 Vibration     4          0.627              1.874              2.389
 Vibration     5          0.630              1.864              2.304
 Vibration     6          0.662              1.766              1.745
 Vibration     7          0.663              1.761              1.721
 Vibration     8          0.685              1.696              1.485
 Vibration     9          0.696              1.662              1.384
 Vibration    10          0.787              1.417              0.877
 Vibration    11          0.800              1.382              0.825
 Vibration    12          0.827              1.318              0.739
 Vibration    13          0.870              1.217              0.622
 Vibration    14          0.970              1.009              0.432

                           ! Non-Optimized Parameters !
 Normal termination of Gaussian 16 at Tue Dec  8 12:17:53 2020.

 ----------------------------------------------------------------------
 # B3LYP/6-311++G(d,p) empiricaldispersion=gd3bj scf=xqc pop=npa geom=c
 heck
 ----------------------------------------------------------------------

 -------------------------------------
 CID_84650014_JID_502_Energie_neutraal
 -------------------------------------
 Structure from the checkpoint file:  "JID_502.chk"
 Charge =  0 Multiplicity = 1

 SCF Done:  E(RB3LYP) =  -780.617266865     A.U. after   15 cycles
 Normal termination of Gaussian 16 at Tue Dec  8 12:21:40 2020.

 ----------------------------------------------------------------------
 # B3LYP/6-311++G(d,p) empiricaldispersion=gd3bj scf=xqc pop=npa geom=c
 heck
 ----------------------------------------------------------------------

 -----------------------------------
 CID_84650014_JID_502_Energie_kation
 -----------------------------------
 Structure from the checkpoint file:  "JID_502.chk"
 Charge =  1 Multiplicity = 2

 SCF Done:  E(UB3LYP) =  -780.325118155     A.U. after   24 cycles
 Normal termination of Gaussian 16 at Tue Dec  8 12:27:59 2020.
 Gaussian 16:  ES64L-G16RevA.03 25-Dec-2016

 ----------------------------------------------------------------------
 # B3LYP/6-311++G(d,p) empiricaldispersion=gd3bj scf=xqc pop=npa geom=c
 heck
 ----------------------------------------------------------------------

 ----------------------------------
 CID_84650014_JID_502_Energie_anion
 ----------------------------------
 Structure from the checkpoint file:  "JID_502.chk"
 Charge = -1 Multiplicity = 2

                         Standard orientation:
 ---------------------------------------------------------------------
 Center     Atomic      Atomic             Coordinates (Angstroms)
 Number     Number       Type             X           Y           Z
 ---------------------------------------------------------------------
      1          6           0        3.665331    0.286665    0.160687
      2         16           0        2.401450   -1.019065    0.028924
      3          6           0        0.882276   -0.098285   -0.044471
      4          6           0        0.788966    1.298843   -0.021019
      5          7           0       -0.375192    1.958217   -0.068359
      6          6           0       -1.502175    1.247317   -0.148441
      7          6           0       -1.529952   -0.154835   -0.186673
      8          6           0       -0.313179   -0.825861   -0.125516
      9          6           0       -2.835973   -0.908985   -0.309266
     10          7           0       -3.891428   -0.270856    0.482228
     11          1           0        4.623712   -0.234531    0.218598
     12          1           0        3.529864    0.884020    1.065919
     13          1           0        3.665702    0.934032   -0.719914
     14          1           0        1.677903    1.919098    0.041431
     15          1           0       -2.435277    1.802891   -0.173124
     16          1           0       -0.289651   -1.913646   -0.138110
     17          1           0       -3.163336   -0.891195   -1.357824
     18          1           0       -2.654714   -1.970193   -0.061881
     19          1           0       -4.773262   -0.758981    0.339638
     20          1           0       -3.669574   -0.347137    1.473597
 ---------------------------------------------------------------------

 SCF Done:  E(UB3LYP) =  -780.606239581     A.U. after   33 cycles
 SCF Done:  E(UB3LYP) =  -780.606239828     a.u. after    2 cycles

 The electronic state is 2-A.
 Alpha  occ. eigenvalues --  -88.75346 -14.19689 -14.18757 -10.10607 -10.09943
 Alpha  occ. eigenvalues --  -10.09448 -10.09196 -10.08723 -10.07569 -10.07476
 Alpha  occ. eigenvalues --   -7.83942  -5.80344  -5.79949  -5.79332  -0.83270
 Alpha  occ. eigenvalues --   -0.78048  -0.72405  -0.68574  -0.64373  -0.57379
 Alpha  occ. eigenvalues --   -0.55307  -0.51724  -0.47288  -0.41263  -0.39385
 Alpha  occ. eigenvalues --   -0.38619  -0.34738  -0.33678  -0.32980  -0.31716
 Alpha  occ. eigenvalues --   -0.30172  -0.29674  -0.29266  -0.27940  -0.24898
 Alpha  occ. eigenvalues --   -0.23501  -0.20401  -0.16533  -0.15192  -0.13613
 Alpha  occ. eigenvalues --   -0.11427   0.04435
 Alpha virt. eigenvalues --    0.05751   0.06956   0.08672   0.08886   0.09026
 Alpha virt. eigenvalues --    0.09467   0.10363   0.10676   0.11809   0.12168
 Alpha virt. eigenvalues --    0.12967   0.13273   0.14108   0.15302   0.15752

  Beta  occ. eigenvalues --  -88.75340 -14.19596 -14.18692 -10.10636 -10.09880
  Beta  occ. eigenvalues --  -10.09429 -10.09118 -10.08737 -10.07475 -10.07417
  Beta  occ. eigenvalues --   -7.83937  -5.80332  -5.79937  -5.79331  -0.83123
  Beta  occ. eigenvalues --   -0.77931  -0.72317  -0.68424  -0.64272  -0.57265
  Beta  occ. eigenvalues --   -0.55188  -0.51564  -0.47222  -0.41191  -0.39308
  Beta  occ. eigenvalues --   -0.38515  -0.34682  -0.33610  -0.32877  -0.31640
  Beta  occ. eigenvalues --   -0.30050  -0.29593  -0.29143  -0.27762  -0.24818
  Beta  occ. eigenvalues --   -0.23436  -0.20176  -0.16127  -0.15063  -0.13510
  Beta  occ. eigenvalues --   -0.11270
  Beta virt. eigenvalues --    0.06882   0.07291   0.07672   0.08869   0.09318
  Beta virt. eigenvalues --    0.09574   0.09993   0.10609   0.11132   0.12360
  Beta virt. eigenvalues --    0.12376   0.13209   0.13486   0.14266   0.15416

 Mulliken charges and spin densities:
               1          2
     1  C    0.468453  -0.895484
     2  S   -0.449626  -0.361636
     3  C    0.683937   0.003894
     4  C    0.040830   0.078131
     5  N   -0.019049   0.046869
     6  C   -0.219490  -0.379152
     7  C   -0.436144   1.138254
     8  C   -0.840780   0.300538
     9  C    1.631093  -2.336675
    10  N   -0.447943   0.100993
    11  H   -0.736624   0.904576
    12  H   -0.184554   0.368235
    13  H   -0.063730   0.238983
    14  H    0.113382   0.091670
    15  H    0.256260  -0.035038
    16  H    0.136654   0.025089
    17  H   -0.267940   0.436135
    18  H   -0.311165   0.472304
    19  H   -0.318897   0.565282
    20  H   -0.034665   0.237033
 Sum of Mulliken charges =  -1.00000   1.00000

 Dipole moment (field-independent basis, Debye):
    X=              2.1410    Y=              0.0445    Z=             -0.5622  Tot=              2.2140
 Quadrupole moment (field-independent basis, Debye-Ang):
   XX=           -165.1286   YY=            -97.4521   ZZ=            -88.5335
   XY=             -6.6354   XZ=             -1.6041   YZ=             -1.3857

 Summary of Natural Population Analysis:

                                       Natural Population
                Natural  -----------------------------------------------
    Atom  No    Charge         Core      Valence    Rydberg      Total
 -----------------------------------------------------------------------
      C    1   -0.35286      0.99962     2.34644    0.00680     3.35286
      S    2    0.12559      4.99954     2.85218    0.02268     7.87441
      C    3   -0.10939      0.99941     2.09984    0.01014     3.10939
      C    4    0.01427      0.99951     1.97192    0.01430     2.98573
      N    5   -0.21792      0.99971     2.70694    0.01127     3.71792
      C    6    0.01855      0.99953     1.96833    0.01359     2.98145
      C    7   -0.02713      0.99950     2.01754    0.01009     3.02713
      C    8   -0.07604      0.99946     2.06748    0.00910     3.07604
      C    9   -0.09485      0.99960     2.08217    0.01308     3.09485
      N   10   -0.42059      0.99978     2.90971    0.01110     3.92059
      H   11    0.11271      0.00000     0.38499    0.00230     0.38729
      H   12    0.10556      0.00000     0.39230    0.00213     0.39444
      H   13    0.10275      0.00000     0.39538    0.00187     0.39725
      H   14    0.08919      0.00000     0.40861    0.00221     0.41081
      H   15    0.09806      0.00000     0.40019    0.00175     0.40194
      H   16    0.09928      0.00000     0.39928    0.00143     0.40072
      H   17    0.09790      0.00000     0.40032    0.00178     0.40210
      H   18    0.08116      0.00000     0.41690    0.00193     0.41884
      H   19    0.18069      0.00000     0.31161    0.00770     0.31931
      H   20    0.17307      0.00000     0.32488    0.00204     0.32693
 =======================================================================
   * Total *    0.00000     13.99568    26.85702    0.14730    41.00000

 Normal termination of Gaussian 16 at Tue Dec  8 12:41:03 2020.
