 Gaussian 16, Revision A.03,

 -----------------------------------------------------------
 # opt freq B3LYP/6-31G(d) empiricaldispersion=gd3bj scf=xqc
 -----------------------------------------------------------

 ------------------------------
 CID_65214290_JID_7332_neutraal
 ------------------------------
 Symbolic Z-matrix:
 Charge =  0 Multiplicity = 1

 SCF Done:  E(RB3LYP) =  -1549.53416393     A.U. after   16 cycles
 SCF Done:  E(RB3LYP) =  -1549.54292581     A.U. after   13 cycles
 SCF Done:  E(RB3LYP) =  -1549.54478973     A.U. after   13 cycles
 SCF Done:  E(RB3LYP) =  -1549.54534027     A.U. after   13 cycles
 SCF Done:  E(RB3LYP) =  -1549.54576561     A.U. after   13 cycles
 SCF Done:  E(RB3LYP) =  -1549.54604051     A.U. after   12 cycles
 SCF Done:  E(RB3LYP) =  -1549.54609076     A.U. after   12 cycles
 SCF Done:  E(RB3LYP) =  -1549.54612866     A.U. after   11 cycles
 SCF Done:  E(RB3LYP) =  -1549.54615703     A.U. after   11 cycles
 SCF Done:  E(RB3LYP) =  -1549.54616418     A.U. after   11 cycles
 SCF Done:  E(RB3LYP) =  -1549.54616908     A.U. after   11 cycles
 SCF Done:  E(RB3LYP) =  -1549.54617349     A.U. after   10 cycles
 SCF Done:  E(RB3LYP) =  -1549.54617827     A.U. after   11 cycles
 SCF Done:  E(RB3LYP) =  -1549.54618067     A.U. after    9 cycles
 SCF Done:  E(RB3LYP) =  -1549.54618236     A.U. after    9 cycles
 SCF Done:  E(RB3LYP) =  -1549.54618271     A.U. after    8 cycles
 Optimization completed.
    -- Stationary point found.
 Normal termination of Gaussian 16 at Fri Dec 11 12:02:45 2020.

 --------------------------------------------------------------------
 #N Geom=AllCheck Guess=TCheck SCRF=Check GenChk RB3LYP/6-31G(d) Freq
 --------------------------------------------------------------------

 Structure from the checkpoint file:  "JID_7332.chk"
 ------------------------------
 CID_65214290_JID_7332_neutraal
 ------------------------------
 Charge =  0 Multiplicity = 1

 SCF Done:  E(RB3LYP) =  -1549.54618271     A.U. after    1 cycles

  Exact polarizability: 210.279   4.356 152.826   5.633  -5.955  90.491
 Approx polarizability: 307.118  14.153 300.651  18.371 -25.272 180.309

                      1                      2                      3
                      A                      A                      A
 Frequencies --     22.6925                41.3117                61.1414
 Red. masses --     11.4342                 9.8509                 7.4216
 Frc consts  --      0.0035                 0.0099                 0.0163
 IR Inten    --      0.4465                 1.6797                 2.5259

                      4                      5                      6
                      A                      A                      A
 Frequencies --     76.1891                84.4807               130.7287
 Red. masses --     10.9596                 7.7504                 9.5879
 Frc consts  --      0.0375                 0.0326                 0.0965
 IR Inten    --      0.6266                 0.3348                 2.9669

                      7                      8                      9
                      A                      A                      A
 Frequencies --    147.9132               193.9958               201.1005
 Red. masses --      9.3712                 1.1361                 6.7112
 Frc consts  --      0.1208                 0.0252                 0.1599
 IR Inten    --      0.8267                 0.1219                 2.6348

                     10                     11                     12
                      A                      A                      A
 Frequencies --    219.6286               239.0027               261.6901
 Red. masses --      7.7629                 4.1880                 5.6816
 Frc consts  --      0.2206                 0.1410                 0.2292
 IR Inten    --      2.2843                 3.0371                 1.4125

                     13                     14                     15
                      A                      A                      A
 Frequencies --    310.4639               334.3209               355.1689
 Red. masses --      7.1470                 5.1884                 7.9596
 Frc consts  --      0.4059                 0.3417                 0.5916
 IR Inten    --      2.8282                 5.2285                 5.2041

                     16                     17                     18
                      A                      A                      A
 Frequencies --    393.9937               422.6210               449.6036
 Red. masses --     12.5230                16.5891                 8.7940
 Frc consts  --      1.1453                 1.7457                 1.0474
 IR Inten    --      6.6044                26.0536                10.4475

                     19                     20                     21
                      A                      A                      A
 Frequencies --    516.4334               537.7552               561.7590
 Red. masses --      8.7340                 6.4101                 6.5994
 Frc consts  --      1.3724                 1.0922                 1.2270
 IR Inten    --      4.4725                 4.4746                 2.9581

                     22                     23                     24
                      A                      A                      A
 Frequencies --    587.7659               592.2275               602.6114
 Red. masses --      8.1319                 1.4754                 9.5842
 Frc consts  --      1.6552                 0.3049                 2.0506
 IR Inten    --     16.7959                72.2928                 6.2901

                     25                     26                     27
                      A                      A                      A
 Frequencies --    672.2640               677.2196               681.0347
 Red. masses --      3.2295                 6.4497                 4.2425
 Frc consts  --      0.8599                 1.7428                 1.1593
 IR Inten    --     24.4856                13.2385                90.3983

                     28                     29                     30
                      A                      A                      A
 Frequencies --    731.6318               765.2296               774.9455
 Red. masses --      5.7496                 5.2179                 7.5968
 Frc consts  --      1.8133                 1.8002                 2.6880
 IR Inten    --      8.5327                28.4589                17.5636

                     31                     32                     33
                      A                      A                      A
 Frequencies --    780.9549               791.0402               831.7684
 Red. masses --      7.1969                 5.8315                 1.4726
 Frc consts  --      2.5861                 2.1499                 0.6003
 IR Inten    --      9.5052                 8.5110                19.9183

                     34                     35                     36
                      A                      A                      A
 Frequencies --    857.6646               886.5965               897.5076
 Red. masses --      1.2804                 7.5834                 4.2831
 Frc consts  --      0.5549                 3.5121                 2.0328
 IR Inten    --    126.7612                31.3011                10.3489

                     37                     38                     39
                      A                      A                      A
 Frequencies --    977.7446              1044.1339              1073.2463
 Red. masses --      8.4239                 1.6968                 1.5211
 Frc consts  --      4.7448                 1.0899                 1.0323
 IR Inten    --     30.0592                11.1627                 1.8854

                     40                     41                     42
                      A                      A                      A
 Frequencies --   1100.2888              1126.2237              1196.4812
 Red. masses --      2.9568                 2.5559                 2.5486
 Frc consts  --      2.1091                 1.9100                 2.1497
 IR Inten    --     51.7519                22.6590               501.6600

                     43                     44                     45
                      A                      A                      A
 Frequencies --   1254.9882              1321.4070              1331.3606
 Red. masses --      2.9873                 3.5230                 7.9212
 Frc consts  --      2.7721                 3.6244                 8.2725
 IR Inten    --    135.5403                16.0122               225.8803

                     46                     47                     48
                      A                      A                      A
 Frequencies --   1364.3123              1425.4351              1437.0206
 Red. masses --      2.4845                 2.4136                 2.9948
 Frc consts  --      2.7247                 2.8894                 3.6437
 IR Inten    --      0.7757                28.4152                86.7944

                     49                     50                     51
                      A                      A                      A
 Frequencies --   1447.1272              1456.7907              1494.6933
 Red. masses --      3.4767                 3.2982                 1.4069
 Frc consts  --      4.2898                 4.1240                 1.8519
 IR Inten    --     54.1095                70.7265                88.1225

                     52                     53                     54
                      A                      A                      A
 Frequencies --   1507.9078              1512.0844              1552.2725
 Red. masses --      1.0444                 8.4322                 2.7943
 Frc consts  --      1.3992                11.3590                 3.9670
 IR Inten    --      8.3089               104.9533                77.1744

                     55                     56                     57
                      A                      A                      A
 Frequencies --   1600.9991              1766.5095              1805.7930
 Red. masses --      3.4277                 8.0837                 9.3199
 Frc consts  --      5.1765                14.8625                17.9060
 IR Inten    --    389.8335               408.4091               303.0950

                     58                     59                     60
                      A                      A                      A
 Frequencies --   3073.0925              3134.3651              3168.4634
 Red. masses --      1.0356                 1.1007                 1.1039
 Frc consts  --      5.7625                 6.3712                 6.5293
 IR Inten    --      9.8873                 7.6642                 6.9484

                     61                     62                     63
                      A                      A                      A
 Frequencies --   3285.8478              3383.8943              3687.9824
 Red. masses --      1.0949                 1.0774                 1.0640
 Frc consts  --      6.9648                 7.2686                 8.5266
 IR Inten    --      5.4832               245.2810               100.5694

 - Thermochemistry -
 -------------------
 Temperature   298.150 Kelvin.  Pressure   1.00000 Atm.
 Atom     1 has atomic number  6 and mass  12.00000

 Molecular mass:   269.98813 amu.
 Principal axes and moments of inertia in atomic units:
                           1         2         3
     Eigenvalues --  2340.161357370.961759139.60250
           X            0.99993  -0.01180  -0.00140
           Y            0.01181   0.99993   0.00285
           Z            0.00137  -0.00287   0.99999
 This molecule is an asymmetric top.
 Rotational symmetry number  1.
 Warning -- assumption of classical behavior for rotation
           may cause significant error
 Rotational temperatures (Kelvin)      0.03701     0.01175     0.00948
 Rotational constants (GHZ):           0.77120     0.24484     0.19746
 Zero-point vibrational energy     390119.7 (Joules/Mol)
                                   93.24085 (Kcal/Mol)
 Warning -- explicit consideration of  24 degrees of freedom as
           vibrations may cause significant error
 Vibrational temperatures:     32.65    59.44    87.97   109.62   121.55
          (Kelvin)            188.09   212.81   279.12   289.34   316.00
                              343.87   376.51   446.69   481.01   511.01
                              566.87   608.06   646.88   743.03   773.71
                              808.25   845.66   852.08   867.02   967.24
                              974.37   979.86  1052.66  1100.99  1114.97
                             1123.62  1138.13  1196.73  1233.99  1275.61
                             1291.31  1406.76  1502.28  1544.16  1583.07
                             1620.38  1721.47  1805.65  1901.21  1915.53
                             1962.94  2050.88  2067.55  2082.09  2096.00
                             2150.53  2169.54  2175.55  2233.37  2303.48
                             2541.61  2598.13  4421.49  4509.65  4558.71
                             4727.60  4868.67  5306.18

 Zero-point correction=                           0.148589 (Hartree/Particle)
 Thermal correction to Energy=                    0.163880
 Thermal correction to Enthalpy=                  0.164825
 Thermal correction to Gibbs Free Energy=         0.103921
 Sum of electronic and zero-point Energies=          -1549.397594
 Sum of electronic and thermal Energies=             -1549.382302
 Sum of electronic and thermal Enthalpies=           -1549.381358
 Sum of electronic and thermal Free Energies=        -1549.442262

                     E (Thermal)             CV                S
                      KCal/Mol        Cal/Mol-Kelvin    Cal/Mol-Kelvin
 Total                  102.836             55.820            128.182
 Electronic               0.000              0.000              0.000
 Translational            0.889              2.981             42.679
 Rotational               0.889              2.981             33.422
 Vibrational            101.059             49.858             52.082
 Vibration     1          0.593              1.985              6.383
 Vibration     2          0.594              1.981              5.195
 Vibration     3          0.597              1.973              4.420
 Vibration     4          0.599              1.965              3.987
 Vibration     5          0.601              1.960              3.784
 Vibration     6          0.612              1.923              2.935
 Vibration     7          0.617              1.905              2.699
 Vibration     8          0.635              1.848              2.189
 Vibration     9          0.638              1.838              2.123
 Vibration    10          0.647              1.811              1.962
 Vibration    11          0.657              1.781              1.810
 Vibration    12          0.669              1.743              1.650
 Vibration    13          0.699              1.654              1.360
 Vibration    14          0.716              1.607              1.239
 Vibration    15          0.731              1.565              1.143
 Vibration    16          0.761              1.483              0.985
 Vibration    17          0.785              1.421              0.883
 Vibration    18          0.808              1.362              0.797
 Vibration    19          0.871              1.214              0.618
 Vibration    20          0.893              1.167              0.570
 Vibration    21          0.917              1.114              0.520
 Vibration    22          0.945              1.058              0.471
 Vibration    23          0.950              1.048              0.463
 Vibration    24          0.961              1.026              0.445

                           ! Non-Optimized Parameters !
 Normal termination of Gaussian 16 at Fri Dec 11 12:11:06 2020.

 ----------------------------------------------------------------------
 # B3LYP/6-311++G(d,p) empiricaldispersion=gd3bj scf=xqc pop=npa geom=c
 heck
 ----------------------------------------------------------------------

 --------------------------------------
 CID_65214290_JID_7332_Energie_neutraal
 --------------------------------------
 Structure from the checkpoint file:  "JID_7332.chk"
 Charge =  0 Multiplicity = 1

 SCF Done:  E(RB3LYP) =  -1549.81536188     A.U. after   17 cycles
 Normal termination of Gaussian 16 at Fri Dec 11 12:15:16 2020.

 ----------------------------------------------------------------------
 # B3LYP/6-311++G(d,p) empiricaldispersion=gd3bj scf=xqc pop=npa geom=c
 heck
 ----------------------------------------------------------------------

 ------------------------------------
 CID_65214290_JID_7332_Energie_kation
 ------------------------------------
 Structure from the checkpoint file:  "JID_7332.chk"
 Charge =  1 Multiplicity = 2

 SCF Done:  E(UB3LYP) =  -1549.48625853     A.U. after   31 cycles
 Normal termination of Gaussian 16 at Fri Dec 11 12:26:06 2020.
 Gaussian 16:  ES64L-G16RevA.03 25-Dec-2016

 ----------------------------------------------------------------------
 # B3LYP/6-311++G(d,p) empiricaldispersion=gd3bj scf=xqc pop=npa geom=c
 heck
 ----------------------------------------------------------------------

 -----------------------------------
 CID_65214290_JID_7332_Energie_anion
 -----------------------------------
 Structure from the checkpoint file:  "JID_7332.chk"
 Charge = -1 Multiplicity = 2

                         Standard orientation:
 ---------------------------------------------------------------------
 Center     Atomic      Atomic             Coordinates (Angstroms)
 Number     Number       Type             X           Y           Z
 ---------------------------------------------------------------------
      1          6           0        3.891659   -1.995088   -0.129343
      2          6           0        2.504689   -1.422079   -0.162668
      3          7           0        1.504772   -2.242605   -0.386839
      4         16           0        0.033091   -1.405160   -0.381109
      5          6           0        0.767713    0.141126   -0.066262
      6          6           0        2.151386   -0.033543    0.029118
      7          6           0        3.037976    1.103718    0.254295
      8          8           0        2.667716    2.270058    0.352686
      9          8           0        4.346704    0.781087    0.349059
     10          7           0        0.141438    1.357705    0.034627
     11          6           0       -1.181431    1.719818   -0.207646
     12          8           0       -1.470874    2.870399   -0.465053
     13          6           0       -2.221495    0.659302   -0.059265
     14          6           0       -2.430830   -0.131414    1.046443
     15         16           0       -3.828050   -1.070708    0.817722
     16          7           0       -4.078417   -0.354188   -0.789132
     17          7           0       -3.177971    0.497838   -1.038260
     18          1           0        4.370526   -1.807769    0.836435
     19          1           0        3.832812   -3.070654   -0.305677
     20          1           0        4.523951   -1.533817   -0.894003
     21          1           0        4.816145    1.625386    0.487423
     22          1           0        0.803226    2.140623    0.086666
     23          1           0       -1.822436   -0.174531    1.939012
 ---------------------------------------------------------------------

 SCF Done:  E(UB3LYP) =  -1549.85932645     A.U. after   26 cycles

 The electronic state is 2-A.
 Alpha  occ. eigenvalues --  -88.77735 -88.76550 -19.07314 -19.00462 -18.96799
 Alpha  occ. eigenvalues --  -14.24664 -14.23956 -14.23889 -14.20837 -10.19733
 Alpha  occ. eigenvalues --  -10.15075 -10.12977 -10.11587 -10.09065 -10.08403
 Alpha  occ. eigenvalues --  -10.07435 -10.07272  -7.86148  -7.85133  -5.82559
 Alpha  occ. eigenvalues --   -5.82069  -5.81631  -5.81449  -5.81044  -5.80753
 Alpha  occ. eigenvalues --   -1.01219  -0.93235  -0.92056  -0.91503  -0.85527
 Alpha  occ. eigenvalues --   -0.82118  -0.70187  -0.67926  -0.67515  -0.66874
 Alpha  occ. eigenvalues --   -0.59727  -0.55886  -0.52771  -0.50456  -0.48689
 Alpha  occ. eigenvalues --   -0.46058  -0.43008  -0.40877  -0.40150  -0.37846
 Alpha  occ. eigenvalues --   -0.37293  -0.36243  -0.33944  -0.32971  -0.32682
 Alpha  occ. eigenvalues --   -0.32069  -0.31890  -0.30614  -0.29654  -0.28379
 Alpha  occ. eigenvalues --   -0.27429  -0.26653  -0.24543  -0.23234  -0.23040
 Alpha  occ. eigenvalues --   -0.21459  -0.19245  -0.19035  -0.17742  -0.15739
 Alpha  occ. eigenvalues --   -0.14951  -0.14069  -0.13715  -0.12172   0.01206
 Alpha virt. eigenvalues --    0.05464   0.06645   0.08492   0.08812   0.09268
 Alpha virt. eigenvalues --    0.10289   0.10738   0.11111   0.11616   0.11854
 Alpha virt. eigenvalues --    0.12286   0.13166   0.13851   0.14342   0.14922

  Beta  occ. eigenvalues --  -88.77729 -88.76485 -19.07274 -19.00374 -18.96465
  Beta  occ. eigenvalues --  -14.24467 -14.24052 -14.23901 -14.20799 -10.19600
  Beta  occ. eigenvalues --  -10.14863 -10.12550 -10.11592 -10.09095 -10.08018
  Beta  occ. eigenvalues --  -10.07436 -10.07292  -7.86143  -7.85074  -5.82563
  Beta  occ. eigenvalues --   -5.82076  -5.81594  -5.81412  -5.81017  -5.80542
  Beta  occ. eigenvalues --   -1.01084  -0.92902  -0.91762  -0.91289  -0.85348
  Beta  occ. eigenvalues --   -0.81985  -0.69695  -0.67671  -0.67352  -0.66641
  Beta  occ. eigenvalues --   -0.59596  -0.55543  -0.52468  -0.49869  -0.48487
  Beta  occ. eigenvalues --   -0.45913  -0.42821  -0.40721  -0.39966  -0.37723
  Beta  occ. eigenvalues --   -0.37229  -0.35747  -0.33587  -0.32776  -0.32507
  Beta  occ. eigenvalues --   -0.31503  -0.31436  -0.30077  -0.29442  -0.28330
  Beta  occ. eigenvalues --   -0.26767  -0.26258  -0.24320  -0.22993  -0.22619
  Beta  occ. eigenvalues --   -0.20377  -0.19136  -0.17933  -0.17513  -0.15173
  Beta  occ. eigenvalues --   -0.14630  -0.13855  -0.12994  -0.11581
  Beta virt. eigenvalues --    0.06587   0.06667   0.07515   0.08496   0.09315
  Beta virt. eigenvalues --    0.09527   0.10473   0.10978   0.11464   0.11690
  Beta virt. eigenvalues --    0.11883   0.12914   0.13275   0.13939   0.14376

 Mulliken charges and spin densities:
               1          2
     1  C   -0.858103   0.001176
     2  C   -1.134879  -0.017083
     3  N   -0.009281   0.017351
     4  S    0.609987   0.045134
     5  C    0.431531   0.202505
     6  C    0.301172   0.003708
     7  C   -0.112461   0.076376
     8  O   -0.378958   0.032844
     9  O   -0.231905   0.006600
    10  N   -0.055801  -0.052118
    11  C   -0.109919   0.166309
    12  O   -0.348891   0.119906
    13  C   -0.814043  -0.019082
    14  C    0.330595   0.252739
    15  S   -0.049040   0.128798
    16  N   -0.045245   0.072226
    17  N    0.064300  -0.019016
    18  H    0.161156  -0.000333
    19  H    0.156203  -0.000132
    20  H    0.162092  -0.000667
    21  H    0.285974  -0.000572
    22  H    0.404836   0.002862
    23  H    0.240678  -0.019531
 Sum of Mulliken charges =  -1.00000   1.00000

 Dipole moment (field-independent basis, Debye):
    X=              6.5733    Y=             -2.5291    Z=              3.0931  Tot=              7.6924
 Quadrupole moment (field-independent basis, Debye-Ang):
   XX=           -152.3575   YY=           -146.2788   ZZ=           -118.9304
   XY=              7.3542   XZ=             -7.7217   YZ=              1.3498

 Summary of Natural Population Analysis:

                                       Natural Population
                Natural  -----------------------------------------------
    Atom  No    Charge         Core      Valence    Rydberg      Total
 -----------------------------------------------------------------------
      C    1   -0.29826      0.99963     2.29377    0.00486     3.29826
      C    2    0.11945      0.99958     1.86747    0.01350     2.88055
      N    3   -0.33016      0.99969     2.81434    0.01613     3.83016
      S    4    0.29126      4.99946     2.68344    0.02584     7.70874
      C    5    0.11937      0.99948     1.86781    0.01334     2.88063
      C    6   -0.16729      0.99935     2.15847    0.00946     3.16729
      C    7    0.41150      0.99964     1.56564    0.02322     2.58850
      O    8   -0.33411      0.99987     3.32634    0.00790     4.33411
      O    9   -0.34613      0.99988     3.34028    0.00597     4.34613
      N   10   -0.32658      0.99961     2.81594    0.01103     3.82658
      C   11    0.36094      0.99963     1.61731    0.02212     2.63906
      O   12   -0.25776      0.99988     3.25156    0.00632     4.25776
      C   13   -0.02415      0.99944     2.00932    0.01539     3.02415
      C   14   -0.12162      0.99951     2.11188    0.01023     3.12162
      S   15    0.25205      4.99949     2.72229    0.02617     7.74795
      N   16   -0.14409      0.99982     2.62683    0.01744     3.64409
      N   17   -0.09349      0.99969     2.57590    0.01789     3.59349
      H   18    0.10570      0.00000     0.39328    0.00102     0.39430
      H   19    0.10486      0.00000     0.39399    0.00114     0.39514
      H   20    0.10600      0.00000     0.39297    0.00103     0.39400
      H   21    0.23593      0.00000     0.26126    0.00281     0.26407
      H   22    0.22294      0.00000     0.27536    0.00170     0.27706
      H   23    0.11366      0.00000     0.38516    0.00118     0.38634
 =======================================================================
   * Total *   -0.00000     24.99364    43.75064    0.25572    69.00000

 Normal termination of Gaussian 16 at Fri Dec 11 12:35:06 2020.
