 Gaussian 16, Revision A.03,

 -----------------------------------------------------------
 # opt freq B3LYP/6-31G(d) empiricaldispersion=gd3bj scf=xqc
 -----------------------------------------------------------

 ------------------------------
 CID_55269579_JID_4810_neutraal
 ------------------------------
 Symbolic Z-matrix:
 Charge =  0 Multiplicity = 1

 SCF Done:  E(RB3LYP) =  -632.246641539     A.U. after   15 cycles
 SCF Done:  E(RB3LYP) =  -632.249971696     A.U. after   12 cycles
 SCF Done:  E(RB3LYP) =  -632.250307635     A.U. after   12 cycles
 SCF Done:  E(RB3LYP) =  -632.250011811     A.U. after   12 cycles
 SCF Done:  E(RB3LYP) =  -632.250578262     A.U. after   12 cycles
 SCF Done:  E(RB3LYP) =  -632.250678537     A.U. after   11 cycles
 SCF Done:  E(RB3LYP) =  -632.250743720     A.U. after   11 cycles
 SCF Done:  E(RB3LYP) =  -632.250774113     A.U. after   11 cycles
 SCF Done:  E(RB3LYP) =  -632.250783280     A.U. after   11 cycles
 SCF Done:  E(RB3LYP) =  -632.250784944     A.U. after    9 cycles
 SCF Done:  E(RB3LYP) =  -632.250785194     A.U. after    7 cycles
 SCF Done:  E(RB3LYP) =  -632.250785286     A.U. after    7 cycles
 Optimization completed.
    -- Stationary point found.
 Normal termination of Gaussian 16 at Thu Dec 10 10:14:38 2020.

 --------------------------------------------------------------------
 #N Geom=AllCheck Guess=TCheck SCRF=Check GenChk RB3LYP/6-31G(d) Freq
 --------------------------------------------------------------------

 Structure from the checkpoint file:  "JID_4810.chk"
 ------------------------------
 CID_55269579_JID_4810_neutraal
 ------------------------------
 Charge =  0 Multiplicity = 1

 SCF Done:  E(RB3LYP) =  -632.250785286     A.U. after    1 cycles

  Exact polarizability: 194.118  -4.962 126.828   0.686   2.167  67.652
 Approx polarizability: 271.134 -15.629 216.821   3.086   4.751 103.985

                      1                      2                      3
                      A                      A                      A
 Frequencies --     51.5427                60.6122               116.8606
 Red. masses --      3.5535                 4.3633                 3.9713
 Frc consts  --      0.0056                 0.0094                 0.0320
 IR Inten    --      1.2391                 2.0506                 4.1691

                      4                      5                      6
                      A                      A                      A
 Frequencies --    154.1595               159.0898               170.1953
 Red. masses --      4.1494                 2.5593                 1.0926
 Frc consts  --      0.0581                 0.0382                 0.0186
 IR Inten    --      1.5561                 0.4181                 0.3168

                      7                      8                      9
                      A                      A                      A
 Frequencies --    211.2811               226.1617               255.6571
 Red. masses --      1.3824                 1.4678                 2.9563
 Frc consts  --      0.0364                 0.0442                 0.1138
 IR Inten    --     17.0526                13.2712                 2.7067

                     10                     11                     12
                      A                      A                      A
 Frequencies --    312.1708               328.0159               383.9901
 Red. masses --      5.3824                 5.6045                 3.4948
 Frc consts  --      0.3090                 0.3553                 0.3036
 IR Inten    --      5.9965                 5.6861                 4.3924

                     13                     14                     15
                      A                      A                      A
 Frequencies --    421.7730               451.1378               478.2876
 Red. masses --      3.0400                 2.4383                 3.0437
 Frc consts  --      0.3186                 0.2924                 0.4102
 IR Inten    --     54.1669                11.6731                19.5371

                     16                     17                     18
                      A                      A                      A
 Frequencies --    500.7062               510.5424               518.2092
 Red. masses --      3.5855                 4.5793                 3.8619
 Frc consts  --      0.5296                 0.7033                 0.6110
 IR Inten    --      9.9963                10.7647                16.3823

                     19                     20                     21
                      A                      A                      A
 Frequencies --    540.9079               603.2136               636.7399
 Red. masses --      3.5243                 4.2517                 3.4174
 Frc consts  --      0.6075                 0.9115                 0.8163
 IR Inten    --     11.8007                32.6017                 7.8556

                     22                     23                     24
                      A                      A                      A
 Frequencies --    655.2595               732.7371               735.9882
 Red. masses --      3.0006                 4.6414                 3.8132
 Frc consts  --      0.7591                 1.4682                 1.2170
 IR Inten    --     17.8453                 1.8194                 1.8920

                     25                     26                     27
                      A                      A                      A
 Frequencies --    793.9135               848.0416               877.8323
 Red. masses --      4.3584                 1.4138                 1.7020
 Frc consts  --      1.6186                 0.5990                 0.7727
 IR Inten    --      6.7114                22.3144                19.0053

                     28                     29                     30
                      A                      A                      A
 Frequencies --    883.4932               915.8873               955.7685
 Red. masses --      1.7915                 2.9579                 1.9147
 Frc consts  --      0.8239                 1.4619                 1.0305
 IR Inten    --      6.4102                 7.1222                36.5724

                     31                     32                     33
                      A                      A                      A
 Frequencies --    964.6247               969.0237               973.9030
 Red. masses --      2.4183                 1.2791                 1.9890
 Frc consts  --      1.3258                 0.7077                 1.1115
 IR Inten    --      6.7265                 0.2083                37.6257

                     34                     35                     36
                      A                      A                      A
 Frequencies --   1054.7487              1089.9650              1101.0749
 Red. masses --      1.8455                 1.9995                 2.4021
 Frc consts  --      1.2097                 1.3996                 1.7158
 IR Inten    --      1.7050                 7.4536                 3.6665

                     37                     38                     39
                      A                      A                      A
 Frequencies --   1125.4624              1153.1148              1164.7966
 Red. masses --      2.4604                 1.5307                 2.2997
 Frc consts  --      1.8362                 1.1991                 1.8383
 IR Inten    --     38.5309                98.3754                 1.4620

                     40                     41                     42
                      A                      A                      A
 Frequencies --   1175.3576              1242.9928              1274.8645
 Red. masses --      1.8581                 2.7495                 1.4813
 Frc consts  --      1.5124                 2.5029                 1.4185
 IR Inten    --     10.5654               144.5817                22.3892

                     43                     44                     45
                      A                      A                      A
 Frequencies --   1292.5175              1318.0752              1332.2116
 Red. masses --      2.2656                 1.4528                 2.5441
 Frc consts  --      2.2300                 1.4871                 2.6603
 IR Inten    --     46.2224                26.7530               375.9336

                     46                     47                     48
                      A                      A                      A
 Frequencies --   1359.8973              1379.2938              1393.9431
 Red. masses --      1.7075                 4.2351                 1.2906
 Frc consts  --      1.8605                 4.7471                 1.4775
 IR Inten    --      6.0554                85.4091                25.8861

                     49                     50                     51
                      A                      A                      A
 Frequencies --   1408.8826              1429.8368              1437.8214
 Red. masses --      1.3721                 1.5552                 1.5277
 Frc consts  --      1.6047                 1.8733                 1.8608
 IR Inten    --     48.5976                11.6157                33.8201

                     52                     53                     54
                      A                      A                      A
 Frequencies --   1446.9960              1501.3122              1506.6522
 Red. masses --      1.6604                 1.0624                 1.7338
 Frc consts  --      2.0484                 1.4109                 2.3188
 IR Inten    --      2.0453                17.3478                46.9119

                     55                     56                     57
                      A                      A                      A
 Frequencies --   1508.9889              1511.9175              1521.2715
 Red. masses --      1.0511                 1.1100                 1.1777
 Frc consts  --      1.4102                 1.4949                 1.6058
 IR Inten    --      9.5454                 6.0670                13.2033

                     58                     59                     60
                      A                      A                      A
 Frequencies --   1529.5566              1556.9055              1630.8660
 Red. masses --      1.0514                 2.9459                 6.9864
 Frc consts  --      1.4493                 4.2072                10.9481
 IR Inten    --      4.1682                50.5825               159.6737

                     61                     62                     63
                      A                      A                      A
 Frequencies --   1665.8807              1772.9319              3013.8556
 Red. masses --      6.2702                10.6450                 1.0835
 Frc consts  --     10.2523                19.7143                 5.7987
 IR Inten    --     19.1677               197.5116                30.6351

                     64                     65                     66
                      A                      A                      A
 Frequencies --   3042.6834              3053.5556              3062.1272
 Red. masses --      1.0686                 1.0381                 1.0359
 Frc consts  --      5.8288                 5.7031                 5.7230
 IR Inten    --     53.0699                 3.5736                23.9643

                     67                     68                     69
                      A                      A                      A
 Frequencies --   3113.1771              3115.5906              3133.3455
 Red. masses --      1.1000                 1.0983                 1.1027
 Frc consts  --      6.2812                 6.2811                 6.3788
 IR Inten    --     11.5750                19.1805                32.5330

                     70                     71                     72
                      A                      A                      A
 Frequencies --   3142.4524              3170.0845              3200.6804
 Red. masses --      1.1028                 1.1012                 1.0891
 Frc consts  --      6.4166                 6.5202                 6.5734
 IR Inten    --     15.9479                14.7721                 9.2068

                     73                     74                     75
                      A                      A                      A
 Frequencies --   3210.0844              3235.4178              3575.0190
 Red. masses --      1.0894                 1.0927                 1.0762
 Frc consts  --      6.6140                 6.7394                 8.1041
 IR Inten    --      4.7334                 2.8401                 9.0829

 - Thermochemistry -
 -------------------
 Temperature   298.150 Kelvin.  Pressure   1.00000 Atm.
 Atom     1 has atomic number  6 and mass  12.00000

 Molecular mass:   191.09463 amu.
 Principal axes and moments of inertia in atomic units:
                           1         2         3
     Eigenvalues --   918.790764976.681735809.58709
           X            0.99993   0.01163  -0.00066
           Y           -0.01162   0.99992   0.00452
           Z            0.00071  -0.00452   0.99999
 This molecule is an asymmetric top.
 Rotational symmetry number  1.
 Warning -- assumption of classical behavior for rotation
           may cause significant error
 Rotational temperatures (Kelvin)      0.09427     0.01740     0.01491
 Rotational constants (GHZ):           1.96426     0.36264     0.31065
 Zero-point vibrational energy     588287.2 (Joules/Mol)
                                  140.60401 (Kcal/Mol)
 Warning -- explicit consideration of  20 degrees of freedom as
           vibrations may cause significant error
 Vibrational temperatures:     74.16    87.21   168.14   221.80   228.89
          (Kelvin)            244.87   303.99   325.40   367.83   449.14
                              471.94   552.48   606.84   649.09   688.15
                              720.40   734.56   745.59   778.25   867.89
                              916.13   942.77  1054.25  1058.92  1142.26
                             1220.14  1263.00  1271.15  1317.76  1375.14
                             1387.88  1394.21  1401.23  1517.55  1568.22
                             1584.20  1619.29  1659.08  1675.88  1691.08
                             1788.39  1834.25  1859.64  1896.42  1916.76
                             1956.59  1984.50  2005.57  2027.07  2057.22
                             2068.70  2081.90  2160.05  2167.74  2171.10
                             2175.31  2188.77  2200.69  2240.04  2346.45
                             2396.83  2550.85  4336.27  4377.74  4393.39
                             4405.72  4479.17  4482.64  4508.19  4521.29
                             4561.04  4605.07  4618.60  4655.04  5143.65

 Zero-point correction=                           0.224067 (Hartree/Particle)
 Thermal correction to Energy=                    0.236837
 Thermal correction to Enthalpy=                  0.237782
 Thermal correction to Gibbs Free Energy=         0.184977
 Sum of electronic and zero-point Energies=           -632.026719
 Sum of electronic and thermal Energies=              -632.013948
 Sum of electronic and thermal Enthalpies=            -632.013004
 Sum of electronic and thermal Free Energies=         -632.065808

                     E (Thermal)             CV                S
                      KCal/Mol        Cal/Mol-Kelvin    Cal/Mol-Kelvin
 Total                  148.618             49.385            111.136
 Electronic               0.000              0.000              0.000
 Translational            0.889              2.981             41.648
 Rotational               0.889              2.981             31.652
 Vibrational            146.840             43.423             37.836
 Vibration     1          0.596              1.977              4.757
 Vibration     2          0.597              1.973              4.437
 Vibration     3          0.608              1.935              3.152
 Vibration     4          0.620              1.898              2.620
 Vibration     5          0.621              1.892              2.561
 Vibration     6          0.625              1.879              2.433
 Vibration     7          0.643              1.824              2.033
 Vibration     8          0.650              1.801              1.909
 Vibration     9          0.666              1.753              1.691
 Vibration    10          0.701              1.650              1.351
 Vibration    11          0.711              1.620              1.270
 Vibration    12          0.753              1.504              1.023
 Vibration    13          0.784              1.423              0.886
 Vibration    14          0.810              1.358              0.792
 Vibration    15          0.835              1.298              0.715
 Vibration    16          0.856              1.248              0.656
 Vibration    17          0.866              1.227              0.632
 Vibration    18          0.873              1.210              0.614
 Vibration    19          0.896              1.160              0.563
 Vibration    20          0.962              1.025              0.444

 Optimization completed.
    -- Stationary point found.
 Normal termination of Gaussian 16 at Thu Dec 10 10:21:30 2020.

 ----------------------------------------------------------------------
 # B3LYP/6-311++G(d,p) empiricaldispersion=gd3bj scf=xqc pop=npa geom=c
 heck
 ----------------------------------------------------------------------

 --------------------------------------
 CID_55269579_JID_4810_Energie_neutraal
 --------------------------------------
 Structure from the checkpoint file:  "JID_4810.chk"
 Charge =  0 Multiplicity = 1

 SCF Done:  E(RB3LYP) =  -632.426070081     A.U. after   16 cycles
 Normal termination of Gaussian 16 at Thu Dec 10 10:24:51 2020.

 ----------------------------------------------------------------------
 # B3LYP/6-311++G(d,p) empiricaldispersion=gd3bj scf=xqc pop=npa geom=c
 heck
 ----------------------------------------------------------------------

 ------------------------------------
 CID_55269579_JID_4810_Energie_kation
 ------------------------------------
 Structure from the checkpoint file:  "JID_4810.chk"
 Charge =  1 Multiplicity = 2

 SCF Done:  E(UB3LYP) =  -632.143739872     A.U. after   25 cycles
 Normal termination of Gaussian 16 at Thu Dec 10 10:32:39 2020.
 Gaussian 16:  ES64L-G16RevA.03 25-Dec-2016

 ----------------------------------------------------------------------
 # B3LYP/6-311++G(d,p) empiricaldispersion=gd3bj scf=xqc pop=npa geom=c
 heck
 ----------------------------------------------------------------------

 -----------------------------------
 CID_55269579_JID_4810_Energie_anion
 -----------------------------------
 Structure from the checkpoint file:  "JID_4810.chk"
 Charge = -1 Multiplicity = 2

                         Standard orientation:
 ---------------------------------------------------------------------
 Center     Atomic      Atomic             Coordinates (Angstroms)
 Number     Number       Type             X           Y           Z
 ---------------------------------------------------------------------
      1          6           0       -4.454963   -0.449494    0.149470
      2          6           0       -3.034199    0.019777    0.399575
      3          6           0       -2.685137    1.325401   -0.319139
      4          7           0       -1.287242    1.687774   -0.134561
      5          6           0       -0.374033    0.619433   -0.063816
      6          6           0       -0.831010   -0.713916   -0.085985
      7          8           0       -2.163983   -1.020286   -0.077917
      8          6           0        0.078502   -1.775309   -0.114590
      9          6           0        1.441381   -1.528208   -0.077018
     10          6           0        1.919720   -0.208531   -0.009803
     11          6           0        1.003470    0.849647   -0.016686
     12          6           0        3.392791    0.009925    0.045770
     13          8           0        4.171629   -0.933281    0.030859
     14          6           0        3.916846    1.435685    0.122514
     15          1           0       -5.172842    0.269155    0.558796
     16          1           0       -4.623632   -1.419976    0.624745
     17          1           0       -4.638493   -0.556013   -0.924839
     18          1           0       -2.852678    0.147346    1.477430
     19          1           0       -2.890554    1.190921   -1.389807
     20          1           0       -3.318747    2.141653    0.039505
     21          1           0       -1.126410    2.407449    0.558806
     22          1           0       -0.316500   -2.785999   -0.139973
     23          1           0        2.161187   -2.338571   -0.085577
     24          1           0        1.345725    1.880064   -0.005128
     25          1           0        3.605485    2.015816   -0.754190
     26          1           0        3.530261    1.950654    1.009777
     27          1           0        5.006525    1.405160    0.167085
 ---------------------------------------------------------------------

 SCF Done:  E(UB3LYP) =  -632.425918703     A.U. after   33 cycles
 SCF Done:  E(UB3LYP) =  -632.425918703     a.u. after    1 cycles

 The electronic state is 2-A.
 Alpha  occ. eigenvalues --  -19.03467 -18.94923 -14.21004 -10.12522 -10.09878
 Alpha  occ. eigenvalues --  -10.09802 -10.09792 -10.08759 -10.06733 -10.04832
 Alpha  occ. eigenvalues --  -10.04722 -10.04516 -10.03795 -10.03745  -0.95542
 Alpha  occ. eigenvalues --   -0.88764  -0.81977  -0.73033  -0.68013  -0.63505
 Alpha  occ. eigenvalues --   -0.61895  -0.59622  -0.57181  -0.52452  -0.50086
 Alpha  occ. eigenvalues --   -0.46428  -0.42989  -0.41902  -0.39255  -0.36950
 Alpha  occ. eigenvalues --   -0.36006  -0.34495  -0.32012  -0.31581  -0.31418
 Alpha  occ. eigenvalues --   -0.30816  -0.30167  -0.29748  -0.28801  -0.28075
 Alpha  occ. eigenvalues --   -0.27260  -0.26331  -0.24465  -0.23872  -0.23153
 Alpha  occ. eigenvalues --   -0.22085  -0.19190  -0.17208  -0.11675  -0.10943
 Alpha  occ. eigenvalues --   -0.08839   0.04279
 Alpha virt. eigenvalues --    0.05906   0.07665   0.08599   0.08901   0.09732
 Alpha virt. eigenvalues --    0.10557   0.11014   0.11234   0.11681   0.12009
 Alpha virt. eigenvalues --    0.12911   0.13144   0.13968   0.15089   0.15310

  Beta  occ. eigenvalues --  -19.03449 -18.94572 -14.21003 -10.12505 -10.09774
  Beta  occ. eigenvalues --  -10.09660 -10.09539 -10.08817 -10.06706 -10.04854
  Beta  occ. eigenvalues --  -10.04774 -10.04384 -10.03728 -10.03658  -0.95447
  Beta  occ. eigenvalues --   -0.88112  -0.81973  -0.72860  -0.67891  -0.63277
  Beta  occ. eigenvalues --   -0.61716  -0.59492  -0.57074  -0.52295  -0.49864
  Beta  occ. eigenvalues --   -0.46198  -0.42822  -0.41806  -0.39091  -0.36773
  Beta  occ. eigenvalues --   -0.35940  -0.34327  -0.31877  -0.31306  -0.31079
  Beta  occ. eigenvalues --   -0.30642  -0.30118  -0.29688  -0.28667  -0.27968
  Beta  occ. eigenvalues --   -0.27081  -0.26063  -0.24342  -0.23652  -0.22206
  Beta  occ. eigenvalues --   -0.21787  -0.18580  -0.16990  -0.11063  -0.10618
  Beta  occ. eigenvalues --   -0.08235
  Beta virt. eigenvalues --    0.06941   0.07861   0.08722   0.08910   0.09243
  Beta virt. eigenvalues --    0.09908   0.10812   0.11139   0.11492   0.11881
  Beta virt. eigenvalues --    0.12142   0.12936   0.13106   0.14149   0.15044

 Mulliken charges and spin densities:
               1          2
     1  C    0.403381  -1.029057
     2  C   -0.834286   1.075485
     3  C    0.833216  -1.416207
     4  N   -0.250337   0.185626
     5  C   -0.644813   0.546130
     6  C    0.455251  -0.409348
     7  O   -0.120247   0.017579
     8  C    0.166392  -0.347707
     9  C   -0.021380   0.048677
    10  C    1.383240  -0.019876
    11  C   -1.463489   0.194214
    12  C   -0.186534   0.086474
    13  O   -0.369975   0.124510
    14  C   -0.436020  -0.053176
    15  H   -0.283168   0.427506
    16  H    0.026034   0.121098
    17  H    0.047810   0.094116
    18  H   -0.067741   0.248973
    19  H    0.149121   0.028195
    20  H   -0.673733   0.866051
    21  H    0.099046   0.147746
    22  H    0.128290   0.015687
    23  H    0.162292  -0.009839
    24  H    0.114529   0.005471
    25  H    0.082057   0.054037
    26  H    0.130231   0.001242
    27  H    0.170831  -0.003607
 Sum of Mulliken charges =  -1.00000   1.00000

 Dipole moment (field-independent basis, Debye):
    X=             -0.7077    Y=              0.2364    Z=             -0.4526  Tot=              0.8727
 Quadrupole moment (field-independent basis, Debye-Ang):
   XX=           -166.2891   YY=           -107.1327   ZZ=            -99.0101
   XY=             20.2730   XZ=              6.1999   YZ=             -0.6089

 Summary of Natural Population Analysis:

                                       Natural Population
                Natural  -----------------------------------------------
    Atom  No    Charge         Core      Valence    Rydberg      Total
 -----------------------------------------------------------------------
      C    1   -0.29090      0.99964     2.28486    0.00640     3.29090
      C    2    0.05832      0.99955     1.92786    0.01427     2.94168
      C    3   -0.09639      0.99960     2.08493    0.01186     3.09639
      N    4   -0.32444      0.99970     2.81297    0.01176     3.82444
      C    5    0.03315      0.99945     1.95594    0.01145     2.96685
      C    6    0.17513      0.99935     1.81168    0.01384     2.82487
      O    7   -0.28344      0.99986     3.27436    0.00922     4.28344
      C    8   -0.13353      0.99954     2.12531    0.00868     3.13353
      C    9   -0.06627      0.99954     2.05846    0.00827     3.06627
      C   10   -0.07159      0.99948     2.06097    0.01114     3.07159
      C   11   -0.07278      0.99951     2.06615    0.00712     3.07278
      C   12    0.30255      0.99964     1.67829    0.01952     2.69745
      O   13   -0.27197      0.99988     3.26556    0.00653     4.27197
      C   14   -0.33203      0.99964     2.32845    0.00394     3.33203
      H   15    0.10352      0.00000     0.39513    0.00135     0.39648
      H   16    0.10291      0.00000     0.39606    0.00103     0.39709
      H   17    0.09934      0.00000     0.39965    0.00101     0.40066
      H   18    0.08354      0.00000     0.41468    0.00177     0.41646
      H   19    0.08945      0.00000     0.40915    0.00140     0.41055
      H   20    0.10301      0.00000     0.39447    0.00252     0.39699
      H   21    0.18294      0.00000     0.31461    0.00245     0.31706
      H   22    0.09977      0.00000     0.39911    0.00112     0.40023
      H   23    0.10740      0.00000     0.39154    0.00106     0.39260
      H   24    0.09489      0.00000     0.40336    0.00174     0.40511
      H   25    0.10236      0.00000     0.39577    0.00187     0.39764
      H   26    0.10166      0.00000     0.39707    0.00127     0.39834
      H   27    0.10341      0.00000     0.39540    0.00119     0.39659
 =======================================================================
   * Total *   -0.00000     13.99439    36.84180    0.16380    51.00000

 Normal termination of Gaussian 16 at Thu Dec 10 10:43:30 2020.
