 Gaussian 16, Revision A.03,

 -----------------------------------------------------------
 # opt freq B3LYP/6-31G(d) empiricaldispersion=gd3bj scf=xqc
 -----------------------------------------------------------

 -------------------------------
 CID_130157446_JID_2204_neutraal
 -------------------------------
 Symbolic Z-matrix:
 Charge =  0 Multiplicity = 1

 SCF Done:  E(RB3LYP) =  -536.149814359     A.U. after   16 cycles
 SCF Done:  E(RB3LYP) =  -536.155280151     A.U. after   13 cycles
 SCF Done:  E(RB3LYP) =  -536.155465051     A.U. after   13 cycles
 SCF Done:  E(RB3LYP) =  -536.156334189     A.U. after   12 cycles
 SCF Done:  E(RB3LYP) =  -536.156452418     A.U. after   12 cycles
 SCF Done:  E(RB3LYP) =  -536.156534425     A.U. after   12 cycles
 SCF Done:  E(RB3LYP) =  -536.156571729     A.U. after   11 cycles
 SCF Done:  E(RB3LYP) =  -536.156622115     A.U. after   11 cycles
 SCF Done:  E(RB3LYP) =  -536.156657395     A.U. after   11 cycles
 SCF Done:  E(RB3LYP) =  -536.156659712     A.U. after   10 cycles
 SCF Done:  E(RB3LYP) =  -536.156660394     A.U. after    8 cycles
 SCF Done:  E(RB3LYP) =  -536.156660520     A.U. after    8 cycles
 SCF Done:  E(RB3LYP) =  -536.156660578     A.U. after    7 cycles
 SCF Done:  E(RB3LYP) =  -536.156660710     A.U. after    7 cycles
 SCF Done:  E(RB3LYP) =  -536.156660842     A.U. after    7 cycles
 SCF Done:  E(RB3LYP) =  -536.156660944     A.U. after    7 cycles
 Optimization completed.
    -- Stationary point found.
 Normal termination of Gaussian 16 at Wed Dec  9 16:56:24 2020.

 --------------------------------------------------------------------
 #N Geom=AllCheck Guess=TCheck SCRF=Check GenChk RB3LYP/6-31G(d) Freq
 --------------------------------------------------------------------

 Structure from the checkpoint file:  "JID_2204.chk"
 -------------------------------
 CID_130157446_JID_2204_neutraal
 -------------------------------
 Charge =  0 Multiplicity = 1

 SCF Done:  E(RB3LYP) =  -536.156660944     A.U. after    1 cycles

  Exact polarizability: 122.167  -2.905 120.044   8.795  -0.677  80.368
 Approx polarizability: 169.385 -12.201 182.985  18.004  -3.732 122.933

                      1                      2                      3
                      A                      A                      A
 Frequencies --     17.0925                54.1454                68.0211
 Red. masses --      3.2096                 2.7822                 2.9595
 Frc consts  --      0.0006                 0.0048                 0.0081
 IR Inten    --      0.1132                 5.3803                 1.0569

                      4                      5                      6
                      A                      A                      A
 Frequencies --    100.2553               108.6352               155.9694
 Red. masses --      2.1411                 2.1927                 4.0174
 Frc consts  --      0.0127                 0.0152                 0.0576
 IR Inten    --      2.0132                 0.2973                 0.6754

                      7                      8                      9
                      A                      A                      A
 Frequencies --    177.9390               216.6794               244.3297
 Red. masses --      2.5540                 1.8072                 1.5419
 Frc consts  --      0.0476                 0.0500                 0.0542
 IR Inten    --      0.3617                 2.4822                 1.3680

                     10                     11                     12
                      A                      A                      A
 Frequencies --    255.4158               346.8758               361.4291
 Red. masses --      1.5231                 2.6656                 3.5796
 Frc consts  --      0.0585                 0.1890                 0.2755
 IR Inten    --      0.3929                 1.3200                 2.0635

                     13                     14                     15
                      A                      A                      A
 Frequencies --    394.6856               444.1392               481.5216
 Red. masses --      2.1588                 2.3352                 4.6513
 Frc consts  --      0.1981                 0.2714                 0.6354
 IR Inten    --      0.6673                 1.0477                 0.5065

                     16                     17                     18
                      A                      A                      A
 Frequencies --    544.7414               588.0084               609.2959
 Red. masses --      3.9993                 3.5632                 4.0028
 Frc consts  --      0.6992                 0.7259                 0.8755
 IR Inten    --      1.8980                 8.6619                 0.8570

                     19                     20                     21
                      A                      A                      A
 Frequencies --    632.4899               724.9656               772.9007
 Red. masses --      4.2931                 2.2247                 1.3021
 Frc consts  --      1.0119                 0.6889                 0.4583
 IR Inten    --      1.6701                 2.2888                 5.5316

                     22                     23                     24
                      A                      A                      A
 Frequencies --    811.7726               845.5884               872.0685
 Red. masses --      1.7305                 2.8150                 2.8448
 Frc consts  --      0.6719                 1.1859                 1.2747
 IR Inten    --      8.9527                 6.2759                 1.9822

                     25                     26                     27
                      A                      A                      A
 Frequencies --    910.6260               924.2402               956.7702
 Red. masses --      2.1556                 2.4066                 2.7984
 Frc consts  --      1.0532                 1.2112                 1.5093
 IR Inten    --      8.1103                 8.0220                 4.4273

                     28                     29                     30
                      A                      A                      A
 Frequencies --    958.2190              1018.1808              1059.2125
 Red. masses --      2.2745                 2.4960                 2.1215
 Frc consts  --      1.2304                 1.5246                 1.4024
 IR Inten    --      5.7634                 1.7502                 4.7107

                     31                     32                     33
                      A                      A                      A
 Frequencies --   1077.7613              1085.1914              1104.1310
 Red. masses --      1.5380                 1.8999                 1.7568
 Frc consts  --      1.0526                 1.3183                 1.2618
 IR Inten    --      5.8861                 3.9127                 9.1849

                     34                     35                     36
                      A                      A                      A
 Frequencies --   1128.9960              1158.6324              1185.0774
 Red. masses --      1.6874                 1.8740                 1.7011
 Frc consts  --      1.2672                 1.4822                 1.4076
 IR Inten    --      7.2268                20.6981                16.1950

                     37                     38                     39
                      A                      A                      A
 Frequencies --   1208.8145              1237.5317              1299.4553
 Red. masses --      4.2684                 1.8111                 1.3664
 Frc consts  --      3.6748                 1.6342                 1.3594
 IR Inten    --     12.7620               104.7382                44.1280

                     40                     41                     42
                      A                      A                      A
 Frequencies --   1302.3083              1309.1950              1332.8058
 Red. masses --      1.1802                 1.8334                 1.7233
 Frc consts  --      1.1794                 1.8515                 1.8036
 IR Inten    --      2.1707                71.4058                32.8694

                     43                     44                     45
                      A                      A                      A
 Frequencies --   1377.0528              1396.9255              1412.4574
 Red. masses --      1.3689                 1.4985                 2.0390
 Frc consts  --      1.5294                 1.7229                 2.3968
 IR Inten    --     36.4903                19.0282                 1.6231

                     46                     47                     48
                      A                      A                      A
 Frequencies --   1444.0035              1446.8610              1450.5951
 Red. masses --      1.2504                 1.2510                 1.1043
 Frc consts  --      1.5361                 1.5430                 1.3690
 IR Inten    --      9.8692                 3.7308                23.0773

                     49                     50                     51
                      A                      A                      A
 Frequencies --   1483.2573              1503.9844              1517.5843
 Red. masses --      1.1023                 1.1208                 1.0602
 Frc consts  --      1.4289                 1.4936                 1.4386
 IR Inten    --     25.2591                 9.0142                 3.3150

                     52                     53                     54
                      A                      A                      A
 Frequencies --   1521.6934              1528.4655              1530.1200
 Red. masses --      1.0428                 1.0537                 1.0472
 Frc consts  --      1.4226                 1.4503                 1.4445
 IR Inten    --      6.3597                 7.4939                 3.3518

                     55                     56                     57
                      A                      A                      A
 Frequencies --   1532.1435              1611.2899              1702.3715
 Red. masses --      1.0734                 8.3660                 9.1969
 Frc consts  --      1.4847                12.7972                15.7037
 IR Inten    --      9.0838               252.0763               250.8149

                     58                     59                     60
                      A                      A                      A
 Frequencies --   1823.4359              3016.1718              3021.0620
 Red. masses --     12.2731                 1.0679                 1.0641
 Frc consts  --     24.0428                 5.7237                 5.7222
 IR Inten    --    261.6973                 4.9186                10.4050

                     61                     62                     63
                      A                      A                      A
 Frequencies --   3042.2180              3049.6898              3052.2507
 Red. masses --      1.0989                 1.0602                 1.0356
 Frc consts  --      5.9921                 5.8099                 5.6846
 IR Inten    --     10.0980                27.8617                24.5977

                     64                     65                     66
                      A                      A                      A
 Frequencies --   3069.8521              3073.7497              3087.8537
 Red. masses --      1.0359                 1.0704                 1.0917
 Frc consts  --      5.7517                 5.9582                 6.1329
 IR Inten    --     21.4830                 3.2555                15.8828

                     67                     68                     69
                      A                      A                      A
 Frequencies --   3118.9856              3122.4915              3128.0973
 Red. masses --      1.1026                 1.1021                 1.0905
 Frc consts  --      6.3199                 6.3310                 6.2868
 IR Inten    --     38.3242                57.2436                 2.6421

                     70                     71                     72
                      A                      A                      A
 Frequencies --   3133.7086              3138.5985              3148.9052
 Red. masses --      1.1059                 1.1030                 1.1025
 Frc consts  --      6.3985                 6.4017                 6.4410
 IR Inten    --     18.5338                25.1698                17.9018

 - Thermochemistry -
 -------------------
 Temperature   298.150 Kelvin.  Pressure   1.00000 Atm.
 Atom     1 has atomic number  6 and mass  12.00000

 Molecular mass:   166.11061 amu.
 Principal axes and moments of inertia in atomic units:
                           1         2         3
     Eigenvalues --  1900.767132126.454443556.01946
           X            0.98749   0.15769  -0.00275
           Y           -0.15769   0.98749  -0.00042
           Z            0.00265   0.00085   1.00000
 This molecule is an asymmetric top.
 Rotational symmetry number  1.
 Warning -- assumption of classical behavior for rotation
           may cause significant error
 Rotational temperatures (Kelvin)      0.04557     0.04073     0.02436
 Rotational constants (GHZ):           0.94948     0.84871     0.50752
 Zero-point vibrational energy     583610.1 (Joules/Mol)
                                  139.48616 (Kcal/Mol)
 Warning -- explicit consideration of  18 degrees of freedom as
           vibrations may cause significant error
 Vibrational temperatures:     24.59    77.90    97.87   144.25   156.30
          (Kelvin)            224.41   256.01   311.75   351.54   367.49
                              499.08   520.02   567.86   639.02   692.80
                              783.76   846.01   876.64   910.01  1043.06
                             1112.03  1167.96  1216.61  1254.71  1310.19
                             1329.78  1376.58  1378.66  1464.94  1523.97
                             1550.66  1561.35  1588.60  1624.37  1667.01
                             1705.06  1739.21  1780.53  1869.63  1873.73
                             1883.64  1917.61  1981.27  2009.86  2032.21
                             2077.60  2081.71  2087.08  2134.08  2163.90
                             2183.47  2189.38  2199.12  2201.50  2204.41
                             2318.29  2449.33  2623.52  4339.60  4346.63
                             4377.07  4387.82  4391.51  4416.83  4422.44
                             4442.73  4487.52  4492.57  4500.63  4508.71
                             4515.74  4530.57

 Zero-point correction=                           0.222285 (Hartree/Particle)
 Thermal correction to Energy=                    0.234964
 Thermal correction to Enthalpy=                  0.235908
 Thermal correction to Gibbs Free Energy=         0.181610
 Sum of electronic and zero-point Energies=           -535.934376
 Sum of electronic and thermal Energies=              -535.921697
 Sum of electronic and thermal Enthalpies=            -535.920753
 Sum of electronic and thermal Free Energies=         -535.975051

                     E (Thermal)             CV                S
                      KCal/Mol        Cal/Mol-Kelvin    Cal/Mol-Kelvin
 Total                  147.442             45.789            114.279
 Electronic               0.000              0.000              0.000
 Translational            0.889              2.981             41.231
 Rotational               0.889              2.981             31.042
 Vibrational            145.665             39.828             42.006
 Vibration     1          0.593              1.986              6.946
 Vibration     2          0.596              1.976              4.660
 Vibration     3          0.598              1.969              4.210
 Vibration     4          0.604              1.949              3.449
 Vibration     5          0.606              1.942              3.293
 Vibration     6          0.620              1.896              2.598
 Vibration     7          0.628              1.869              2.350
 Vibration     8          0.646              1.816              1.987
 Vibration     9          0.660              1.772              1.771
 Vibration    10          0.666              1.754              1.693
 Vibration    11          0.725              1.582              1.180
 Vibration    12          0.736              1.552              1.116
 Vibration    13          0.762              1.482              0.982
 Vibration    14          0.804              1.374              0.814
 Vibration    15          0.838              1.291              0.706
 Vibration    16          0.900              1.151              0.555
 Vibration    17          0.945              1.057              0.471
 Vibration    18          0.968              1.012              0.434

 Optimization completed.
    -- Stationary point found.
 Normal termination of Gaussian 16 at Wed Dec  9 17:02:10 2020.

 ----------------------------------------------------------------------
 # B3LYP/6-311++G(d,p) empiricaldispersion=gd3bj scf=xqc pop=npa geom=c
 heck
 ----------------------------------------------------------------------

 ---------------------------------------
 CID_130157446_JID_2204_Energie_neutraal
 ---------------------------------------
 Structure from the checkpoint file:  "JID_2204.chk"
 Charge =  0 Multiplicity = 1

 SCF Done:  E(RB3LYP) =  -536.305788873     A.U. after   15 cycles
 Normal termination of Gaussian 16 at Wed Dec  9 17:04:49 2020.

 ----------------------------------------------------------------------
 # B3LYP/6-311++G(d,p) empiricaldispersion=gd3bj scf=xqc pop=npa geom=c
 heck
 ----------------------------------------------------------------------

 -------------------------------------
 CID_130157446_JID_2204_Energie_kation
 -------------------------------------
 Structure from the checkpoint file:  "JID_2204.chk"
 Charge =  1 Multiplicity = 2

 SCF Done:  E(UB3LYP) =  -535.977880752     A.U. after   24 cycles
 Normal termination of Gaussian 16 at Wed Dec  9 17:12:14 2020.
 Gaussian 16:  ES64L-G16RevA.03 25-Dec-2016

 ----------------------------------------------------------------------
 # B3LYP/6-311++G(d,p) empiricaldispersion=gd3bj scf=xqc pop=npa geom=c
 heck
 ----------------------------------------------------------------------

 ------------------------------------
 CID_130157446_JID_2204_Energie_anion
 ------------------------------------
 Structure from the checkpoint file:  "JID_2204.chk"
 Charge = -1 Multiplicity = 2

                         Standard orientation:
 ---------------------------------------------------------------------
 Center     Atomic      Atomic             Coordinates (Angstroms)
 Number     Number       Type             X           Y           Z
 ---------------------------------------------------------------------
      1          6           0       -2.553406    1.370092    1.059200
      2          6           0       -3.012427    0.147516    0.260379
      3          6           0       -2.141912   -0.167287   -0.978158
      4          6           0       -0.730966   -0.508937   -0.591817
      5          7           0       -0.435132   -1.738372   -0.318036
      6          6           0        0.868666   -2.010053    0.131049
      7          8           0        1.363092   -3.114377    0.046934
      8          6           0        1.595841   -0.836537    0.773856
      9          6           0        1.253666    0.457838    0.079029
     10          7           0        0.149770    0.603429   -0.566038
     11          6           0        2.237686    1.590498    0.162228
     12          6           0        1.759419    2.902495   -0.454047
     13          1           0       -1.558595    1.220979    1.492201
     14          1           0       -3.247272    1.579018    1.880808
     15          1           0       -2.500566    2.261219    0.423449
     16          1           0       -3.027922   -0.739574    0.905457
     17          1           0       -4.041417    0.301751   -0.086759
     18          1           0       -2.571122   -1.024149   -1.504634
     19          1           0       -2.126144    0.697948   -1.648758
     20          1           0        1.256375   -0.759641    1.819999
     21          1           0        2.671684   -1.027215    0.804870
     22          1           0        2.501705    1.724809    1.222392
     23          1           0        3.169459    1.250454   -0.315331
     24          1           0        0.846798    3.253473    0.036147
     25          1           0        2.530247    3.672817   -0.352106
     26          1           0        1.530164    2.773981   -1.515002
 ---------------------------------------------------------------------

 SCF Done:  E(UB3LYP) =  -536.336582156     A.U. after   23 cycles

 The electronic state is 2-A.
 Alpha  occ. eigenvalues --  -18.92410 -14.13728 -14.11763 -10.09259 -10.05719
 Alpha  occ. eigenvalues --  -10.04785 -10.04737 -10.04405 -10.04365 -10.03984
 Alpha  occ. eigenvalues --  -10.02873 -10.02523  -0.87264  -0.79640  -0.71460
 Alpha  occ. eigenvalues --   -0.66162  -0.64298  -0.60674  -0.56551  -0.51879
 Alpha  occ. eigenvalues --   -0.48915  -0.43140  -0.42251  -0.34655  -0.34159
 Alpha  occ. eigenvalues --   -0.33321  -0.32384  -0.31493  -0.31236  -0.29150
 Alpha  occ. eigenvalues --   -0.27780  -0.27120  -0.25123  -0.24823  -0.23547
 Alpha  occ. eigenvalues --   -0.23451  -0.23063  -0.21097  -0.20745  -0.20540
 Alpha  occ. eigenvalues --   -0.18567  -0.13477  -0.11498  -0.09901  -0.07351
 Alpha  occ. eigenvalues --    0.03243
 Alpha virt. eigenvalues --    0.08095   0.08745   0.10036   0.10379   0.11382
 Alpha virt. eigenvalues --    0.11648   0.12145   0.13226   0.13739   0.14041
 Alpha virt. eigenvalues --    0.14352   0.14672   0.15917   0.16269   0.17038

  Beta  occ. eigenvalues --  -18.92128 -14.13823 -14.11619 -10.09117 -10.05239
  Beta  occ. eigenvalues --  -10.04830 -10.04404 -10.04309 -10.04130 -10.03978
  Beta  occ. eigenvalues --  -10.02939 -10.02563  -0.86758  -0.79072  -0.70964
  Beta  occ. eigenvalues --   -0.65980  -0.64203  -0.60342  -0.56431  -0.51659
  Beta  occ. eigenvalues --   -0.48537  -0.42758  -0.41712  -0.34297  -0.33773
  Beta  occ. eigenvalues --   -0.32977  -0.32213  -0.31252  -0.30837  -0.28841
  Beta  occ. eigenvalues --   -0.27511  -0.27006  -0.24971  -0.24425  -0.23282
  Beta  occ. eigenvalues --   -0.23139  -0.22611  -0.20895  -0.20322  -0.19965
  Beta  occ. eigenvalues --   -0.17421  -0.13219  -0.09892  -0.09659  -0.07155
  Beta virt. eigenvalues --    0.07916   0.08555   0.09923   0.10237   0.10441
  Beta virt. eigenvalues --    0.11346   0.11844   0.12320   0.13193   0.13704
  Beta virt. eigenvalues --    0.13981   0.14338   0.14620   0.15903   0.16994

 Mulliken charges and spin densities:
               1          2
     1  C   -0.562437  -0.034894
     2  C   -0.014400  -0.070275
     3  C   -0.215549   0.055338
     4  C   -0.443671   0.272140
     5  N   -0.082470   0.075495
     6  C    0.032010   0.058029
     7  O   -0.383970   0.102963
     8  C   -0.495954  -0.169933
     9  C    0.171127   0.430768
    10  N    0.096000  -0.046541
    11  C   -0.050476  -0.061629
    12  C   -0.625053   0.011754
    13  H    0.155484   0.017560
    14  H    0.078598   0.021475
    15  H    0.103341   0.006918
    16  H    0.132710  -0.012440
    17  H    0.060607   0.072032
    18  H    0.111620   0.043416
    19  H    0.110464   0.004989
    20  H    0.041150   0.140602
    21  H    0.184335   0.004815
    22  H    0.079432   0.054165
    23  H    0.117243   0.025275
    24  H    0.148239  -0.006293
    25  H    0.101538   0.001261
    26  H    0.150080   0.003007
 Sum of Mulliken charges =  -1.00000   1.00000

 Dipole moment (field-independent basis, Debye):
    X=             -0.7197    Y=              6.4495    Z=              1.2610  Tot=              6.6109
 Quadrupole moment (field-independent basis, Debye-Ang):
   XX=            -92.2112   YY=           -113.6348   ZZ=            -81.6780
   XY=              6.0367   XZ=             -0.6130   YZ=             -0.7760

 Summary of Natural Population Analysis:

                                       Natural Population
                Natural  -----------------------------------------------
    Atom  No    Charge         Core      Valence    Rydberg      Total
 -----------------------------------------------------------------------
      C    1   -0.28637      0.99967     2.28195    0.00475     3.28637
      C    2   -0.17670      0.99964     2.16995    0.00711     3.17670
      C    3   -0.21185      0.99959     2.20292    0.00933     3.21185
      C    4    0.31535      0.99960     1.66645    0.01861     2.68465
      N    5   -0.28782      0.99962     2.77601    0.01220     3.78782
      C    6    0.35911      0.99967     1.61825    0.02296     2.64089
      O    7   -0.28394      0.99987     3.27700    0.00707     4.28394
      C    8   -0.28041      0.99956     2.27006    0.01079     3.28041
      C    9    0.27599      0.99960     1.70849    0.01592     2.72401
      N   10   -0.31375      0.99964     2.80336    0.01075     3.81375
      C   11   -0.21220      0.99960     2.20668    0.00591     3.21220
      C   12   -0.28317      0.99967     2.27849    0.00501     3.28317
      H   13    0.10372      0.00000     0.39521    0.00107     0.39628
      H   14    0.08759      0.00000     0.41139    0.00102     0.41241
      H   15    0.09411      0.00000     0.40472    0.00117     0.40589
      H   16    0.09550      0.00000     0.40317    0.00133     0.40450
      H   17    0.08323      0.00000     0.41477    0.00200     0.41677
      H   18    0.10410      0.00000     0.39417    0.00173     0.39590
      H   19    0.09774      0.00000     0.40090    0.00136     0.40226
      H   20    0.12166      0.00000     0.37663    0.00171     0.37834
      H   21    0.10941      0.00000     0.38956    0.00103     0.39059
      H   22    0.09804      0.00000     0.40036    0.00160     0.40196
      H   23    0.10215      0.00000     0.39684    0.00101     0.39785
      H   24    0.10010      0.00000     0.39898    0.00093     0.39990
      H   25    0.08594      0.00000     0.41309    0.00097     0.41406
      H   26    0.10249      0.00000     0.39657    0.00094     0.39751
 =======================================================================
   * Total *   -0.00000     11.99574    32.85598    0.14829    45.00000

 Normal termination of Gaussian 16 at Wed Dec  9 17:18:38 2020.
