 Gaussian 16, Revision A.03,

 -----------------------------------------------------------
 # opt freq B3LYP/6-31G(d) empiricaldispersion=gd3bj scf=xqc
 -----------------------------------------------------------

 ------------------------------
 CID_149918174_JID_609_neutraal
 ------------------------------
 Symbolic Z-matrix:
 Charge =  0 Multiplicity = 1

 SCF Done:  E(RB3LYP) =  -479.707322302     A.U. after   14 cycles
 SCF Done:  E(RB3LYP) =  -479.709169119     A.U. after   11 cycles
 SCF Done:  E(RB3LYP) =  -479.709309284     A.U. after   10 cycles
 SCF Done:  E(RB3LYP) =  -479.709321765     A.U. after    9 cycles
 SCF Done:  E(RB3LYP) =  -479.709322980     A.U. after    8 cycles
 SCF Done:  E(RB3LYP) =  -479.709323116     A.U. after    7 cycles
 SCF Done:  E(RB3LYP) =  -479.709323241     A.U. after    7 cycles
 SCF Done:  E(RB3LYP) =  -479.709323967     A.U. after   10 cycles
 SCF Done:  E(RB3LYP) =  -479.583594197     A.U. after   15 cycles
 SCF Done:  E(RB3LYP) =  -479.707803269     A.U. after   13 cycles
 SCF Done:  E(RB3LYP) =  -479.709351913     A.U. after    8 cycles
 SCF Done:  E(RB3LYP) =  -479.709360379     A.U. after    9 cycles
 SCF Done:  E(RB3LYP) =  -479.709362032     A.U. after    8 cycles
 SCF Done:  E(RB3LYP) =  -479.709362310     A.U. after    7 cycles
 SCF Done:  E(RB3LYP) =  -479.709362489     A.U. after    8 cycles
 SCF Done:  E(RB3LYP) =  -479.709362534     A.U. after    7 cycles
 Optimization completed.
    -- Stationary point found.
 Normal termination of Gaussian 16 at Tue Dec  8 12:29:27 2020.

 --------------------------------------------------------------------
 #N Geom=AllCheck Guess=TCheck SCRF=Check GenChk RB3LYP/6-31G(d) Freq
 --------------------------------------------------------------------

 Structure from the checkpoint file:  "JID_609.chk"
 ------------------------------
 CID_149918174_JID_609_neutraal
 ------------------------------
 Charge =  0 Multiplicity = 1

 SCF Done:  E(RB3LYP) =  -479.709362534     A.U. after    1 cycles

  Exact polarizability: 110.731  -3.389  74.924   1.208  -1.960  76.810
 Approx polarizability: 134.405  -5.086 102.511   5.689  -6.172 123.058

                      1                      2                      3
                      A                      A                      A
 Frequencies --     20.8701               101.9288               130.7928
 Red. masses --      4.4096                 4.0306                 1.4152
 Frc consts  --      0.0011                 0.0247                 0.0143
 IR Inten    --      0.0751                 0.1623                 0.2243

                      4                      5                      6
                      A                      A                      A
 Frequencies --    186.8261               208.4177               219.4620
 Red. masses --      4.2604                 1.8065                 1.7510
 Frc consts  --      0.0876                 0.0462                 0.0497
 IR Inten    --      1.4389                 2.4819                 0.8615

                      7                      8                      9
                      A                      A                      A
 Frequencies --    294.8588               304.5949               347.9854
 Red. masses --      2.7084                 2.5847                 2.6292
 Frc consts  --      0.1387                 0.1413                 0.1876
 IR Inten    --      4.2360                 2.5322                 7.2105

                     10                     11                     12
                      A                      A                      A
 Frequencies --    435.2455               445.0900               496.7540
 Red. masses --      2.0942                 2.5259                 4.0025
 Frc consts  --      0.2337                 0.2948                 0.5819
 IR Inten    --      0.1853                 0.3592                 0.4069

                     13                     14                     15
                      A                      A                      A
 Frequencies --    533.8463               634.3755               690.1506
 Red. masses --      3.2306                 2.6283                 2.8297
 Frc consts  --      0.5425                 0.6232                 0.7941
 IR Inten    --      4.1678                28.1808                 1.5710

                     16                     17                     18
                      A                      A                      A
 Frequencies --    811.3663               817.0836               838.3598
 Red. masses --      5.4727                 1.6504                 1.6972
 Frc consts  --      2.1227                 0.6492                 0.7028
 IR Inten    --     25.7049                 4.9568                 0.9271

                     19                     20                     21
                      A                      A                      A
 Frequencies --    860.3598               902.9201               919.9268
 Red. masses --      3.5913                 2.6030                 2.9351
 Frc consts  --      1.5663                 1.2503                 1.4635
 IR Inten    --      6.9413                 6.4237                24.0782

                     22                     23                     24
                      A                      A                      A
 Frequencies --    949.9542               976.0040              1024.2300
 Red. masses --      1.6214                 1.0883                 2.3659
 Frc consts  --      0.8621                 0.6108                 1.4623
 IR Inten    --      8.1914                30.9975                 1.4259

                     25                     26                     27
                      A                      A                      A
 Frequencies --   1061.0324              1070.9915              1076.2400
 Red. masses --      2.4462                 1.8276                 1.4351
 Frc consts  --      1.6225                 1.2351                 0.9794
 IR Inten    --     11.2972                23.1673                 0.0464

                     28                     29                     30
                      A                      A                      A
 Frequencies --   1131.7471              1145.6416              1158.1453
 Red. masses --      3.2923                 5.9268                 2.4296
 Frc consts  --      2.4846                 4.5832                 1.9201
 IR Inten    --     77.8880                73.7271                73.8318

                     31                     32                     33
                      A                      A                      A
 Frequencies --   1172.1073              1189.4541              1259.7187
 Red. masses --      2.6685                 3.1774                 1.1939
 Frc consts  --      2.1600                 2.6486                 1.1163
 IR Inten    --      2.4192                98.4638                 6.5567

                     34                     35                     36
                      A                      A                      A
 Frequencies --   1300.4184              1306.6030              1328.8742
 Red. masses --      1.2749                 1.3513                 1.2542
 Frc consts  --      1.2703                 1.3592                 1.3049
 IR Inten    --     15.2134                 4.8656                 1.0791

                     37                     38                     39
                      A                      A                      A
 Frequencies --   1341.6823              1364.4389              1377.1632
 Red. masses --      1.1722                 1.2297                 1.3079
 Frc consts  --      1.2432                 1.3488                 1.4615
 IR Inten    --      9.0700                 0.4882                 0.0382

                     40                     41                     42
                      A                      A                      A
 Frequencies --   1401.3352              1410.8392              1437.9438
 Red. masses --      1.2975                 1.3983                 1.3392
 Frc consts  --      1.5012                 1.6399                 1.6315
 IR Inten    --     14.5006                 9.2775                 3.6470

                     43                     44                     45
                      A                      A                      A
 Frequencies --   1449.4144              1487.6044              1500.2917
 Red. masses --      1.2601                 1.0898                 1.0952
 Frc consts  --      1.5597                 1.4209                 1.4525
 IR Inten    --      2.9832                 3.7935                 5.9907

                     46                     47                     48
                      A                      A                      A
 Frequencies --   1510.4583              1516.3887              1529.9875
 Red. masses --      1.0449                 1.0799                 1.0543
 Frc consts  --      1.4045                 1.4630                 1.4541
 IR Inten    --      4.8057                 0.1365                 7.8623

                     49                     50                     51
                      A                      A                      A
 Frequencies --   1531.2389              1755.5443              3022.3264
 Red. masses --      1.1042                 5.6170                 1.0674
 Frc consts  --      1.5254                10.1994                 5.7446
 IR Inten    --      5.6599               108.6379                26.5397

                     52                     53                     54
                      A                      A                      A
 Frequencies --   3025.9751              3026.4749              3063.9410
 Red. masses --      1.0677                 1.0372                 1.0614
 Frc consts  --      5.7599                 5.5976                 5.8705
 IR Inten    --     52.9714                57.4119                 9.5082

                     55                     56                     57
                      A                      A                      A
 Frequencies --   3070.3108              3070.7899              3104.9496
 Red. masses --      1.1008                 1.0626                 1.1002
 Frc consts  --      6.1142                 5.9035                 6.2491
 IR Inten    --     33.0127                26.8755                27.5129

                     58                     59                     60
                      A                      A                      A
 Frequencies --   3111.0662              3112.6388              3122.0548
 Red. masses --      1.0961                 1.0971                 1.1050
 Frc consts  --      6.2507                 6.2627                 6.3457
 IR Inten    --     57.6822                31.4571                22.4888

                     61                     62                     63
                      A                      A                      A
 Frequencies --   3127.3237              3192.5823              3217.1173
 Red. masses --      1.1051                 1.0921                 1.0882
 Frc consts  --      6.3678                 6.5582                 6.6356
 IR Inten    --     26.7983                18.3602                 7.2832

 - Thermochemistry -
 -------------------
 Temperature   298.150 Kelvin.  Pressure   1.00000 Atm.
 Atom     1 has atomic number  6 and mass  12.00000

 Molecular mass:   143.09463 amu.
 Principal axes and moments of inertia in atomic units:
                           1         2         3
     Eigenvalues --   520.077112649.907032808.97760
           X            0.99998  -0.00631   0.00167
           Y            0.00631   0.99997   0.00333
           Z           -0.00169  -0.00332   0.99999
 This molecule is an asymmetric top.
 Rotational symmetry number  1.
 Warning -- assumption of classical behavior for rotation
           may cause significant error
 Rotational temperatures (Kelvin)      0.16654     0.03269     0.03083
 Rotational constants (GHZ):           3.47014     0.68106     0.64249
 Zero-point vibrational energy     527758.1 (Joules/Mol)
                                  126.13721 (Kcal/Mol)
 Warning -- explicit consideration of  13 degrees of freedom as
           vibrations may cause significant error
 Vibrational temperatures:     30.03   146.65   188.18   268.80   299.87
          (Kelvin)            315.76   424.24   438.24   500.67   626.22
                              640.39   714.72   768.09   912.72   992.97
                             1167.38  1175.60  1206.21  1237.87  1299.10
                             1323.57  1366.77  1404.25  1473.64  1526.59
                             1540.92  1548.47  1628.33  1648.32  1666.31
                             1686.40  1711.36  1812.45  1871.01  1879.91
                             1911.95  1930.38  1963.12  1981.43  2016.21
                             2029.88  2068.88  2085.38  2140.33  2158.59
                             2173.21  2181.75  2201.31  2203.11  2525.84
                             4348.45  4353.70  4354.42  4408.33  4417.49
                             4418.18  4467.33  4476.13  4478.39  4491.94
                             4499.52  4593.41  4628.71

 Zero-point correction=                           0.201012 (Hartree/Particle)
 Thermal correction to Energy=                    0.211058
 Thermal correction to Enthalpy=                  0.212003
 Thermal correction to Gibbs Free Energy=         0.164775
 Sum of electronic and zero-point Energies=           -479.508350
 Sum of electronic and thermal Energies=              -479.498304
 Sum of electronic and thermal Enthalpies=            -479.497360
 Sum of electronic and thermal Free Energies=         -479.544587

                     E (Thermal)             CV                S
                      KCal/Mol        Cal/Mol-Kelvin    Cal/Mol-Kelvin
 Total                  132.441             37.708             99.398
 Electronic               0.000              0.000              0.000
 Translational            0.889              2.981             40.786
 Rotational               0.889              2.981             29.738
 Vibrational            130.664             31.747             28.874
 Vibration     1          0.593              1.986              6.550
 Vibration     2          0.604              1.948              3.417
 Vibration     3          0.612              1.923              2.934
 Vibration     4          0.632              1.858              2.259
 Vibration     5          0.642              1.828              2.057
 Vibration     6          0.647              1.811              1.964
 Vibration     7          0.689              1.683              1.446
 Vibration     8          0.696              1.665              1.392
 Vibration     9          0.726              1.579              1.175
 Vibration    10          0.796              1.393              0.842
 Vibration    11          0.804              1.372              0.811
 Vibration    12          0.852              1.257              0.666
 Vibration    13          0.889              1.175              0.579

 Optimization completed.
    -- Stationary point found.
 Normal termination of Gaussian 16 at Tue Dec  8 12:39:25 2020.

 ----------------------------------------------------------------------
 # B3LYP/6-311++G(d,p) empiricaldispersion=gd3bj scf=xqc pop=npa geom=c
 heck
 ----------------------------------------------------------------------

 --------------------------------------
 CID_149918174_JID_609_Energie_neutraal
 --------------------------------------
 Structure from the checkpoint file:  "JID_609.chk"
 Charge =  0 Multiplicity = 1

 SCF Done:  E(RB3LYP) =  -479.847899083     A.U. after   13 cycles
 Normal termination of Gaussian 16 at Tue Dec  8 12:43:34 2020.

 ----------------------------------------------------------------------
 # B3LYP/6-311++G(d,p) empiricaldispersion=gd3bj scf=xqc pop=npa geom=c
 heck
 ----------------------------------------------------------------------

 ------------------------------------
 CID_149918174_JID_609_Energie_kation
 ------------------------------------
 Structure from the checkpoint file:  "JID_609.chk"
 Charge =  1 Multiplicity = 2

 SCF Done:  E(UB3LYP) =  -479.554212427     A.U. after   19 cycles
 Normal termination of Gaussian 16 at Tue Dec  8 12:50:17 2020.
 Gaussian 16:  ES64L-G16RevA.03 25-Dec-2016

 ----------------------------------------------------------------------
 # B3LYP/6-311++G(d,p) empiricaldispersion=gd3bj scf=xqc pop=npa geom=c
 heck
 ----------------------------------------------------------------------

 -----------------------------------
 CID_149918174_JID_609_Energie_anion
 -----------------------------------
 Structure from the checkpoint file:  "JID_609.chk"
 Charge = -1 Multiplicity = 2

                         Standard orientation:
 ---------------------------------------------------------------------
 Center     Atomic      Atomic             Coordinates (Angstroms)
 Number     Number       Type             X           Y           Z
 ---------------------------------------------------------------------
      1          6           0       -4.121769    0.130119   -0.116568
      2          6           0       -2.633302    0.011691   -0.278637
      3          6           0       -1.815163   -0.206584    0.751116
      4          8           0       -0.447831   -0.330110    0.751407
      5          7           0        0.119379   -0.170350   -0.580034
      6          6           0        1.143442   -1.219877   -0.688702
      7          6           0        2.314333   -1.019715    0.274646
      8          8           0        2.885539    0.273771    0.106458
      9          6           0        1.922421    1.291937    0.359649
     10          6           0        0.741366    1.166174   -0.601631
     11          1           0       -4.424619    0.018952    0.930966
     12          1           0       -4.652200   -0.635511   -0.698877
     13          1           0       -4.490162    1.103819   -0.467345
     14          1           0       -2.211461    0.096231   -1.274672
     15          1           0       -2.166039   -0.307046    1.775758
     16          1           0        1.507341   -1.176254   -1.721964
     17          1           0        0.653873   -2.185541   -0.533649
     18          1           0        1.976744   -1.154946    1.313054
     19          1           0        3.111674   -1.740634    0.070307
     20          1           0        2.436627    2.247710    0.220870
     21          1           0        1.568646    1.230861    1.399628
     22          1           0        1.083954    1.321882   -1.631513
     23          1           0       -0.039658    1.901159   -0.384490
 ---------------------------------------------------------------------

 SCF Done:  E(UB3LYP) =  -479.827481683     A.U. after   32 cycles

 The electronic state is 2-A.
 Alpha  occ. eigenvalues --  -19.06712 -19.02598 -14.26212 -10.11486 -10.11475
 Alpha  occ. eigenvalues --  -10.11229 -10.09688 -10.09603 -10.06009 -10.05301
 Alpha  occ. eigenvalues --   -0.98731  -0.93935  -0.78469  -0.67618  -0.67212
 Alpha  occ. eigenvalues --   -0.58877  -0.56232  -0.55859  -0.50217  -0.44228
 Alpha  occ. eigenvalues --   -0.40199  -0.39432  -0.38199  -0.37571  -0.36755
 Alpha  occ. eigenvalues --   -0.35501  -0.31732  -0.30652  -0.29850  -0.28266
 Alpha  occ. eigenvalues --   -0.27894  -0.27429  -0.26884  -0.25593  -0.24361
 Alpha  occ. eigenvalues --   -0.22093  -0.18620  -0.12820  -0.11739   0.04967
 Alpha virt. eigenvalues --    0.06751   0.07409   0.07987   0.09378   0.09795
 Alpha virt. eigenvalues --    0.09860   0.10685   0.10804   0.11734   0.12451
 Alpha virt. eigenvalues --    0.12965   0.13241   0.14225   0.14615   0.16072

  Beta  occ. eigenvalues --  -19.06707 -19.02591 -14.26213 -10.11467 -10.11455
  Beta  occ. eigenvalues --  -10.11220 -10.09661 -10.09577 -10.05970 -10.05293
  Beta  occ. eigenvalues --   -0.98723  -0.93916  -0.78454  -0.67580  -0.67182
  Beta  occ. eigenvalues --   -0.58838  -0.56180  -0.55802  -0.50166  -0.44171
  Beta  occ. eigenvalues --   -0.40146  -0.39399  -0.38166  -0.37554  -0.36716
  Beta  occ. eigenvalues --   -0.35463  -0.31691  -0.30613  -0.29794  -0.28235
  Beta  occ. eigenvalues --   -0.27851  -0.27396  -0.26846  -0.25544  -0.24337
  Beta  occ. eigenvalues --   -0.22072  -0.18586  -0.12794  -0.11724
  Beta virt. eigenvalues --    0.07272   0.07807   0.08446   0.08498   0.09970
  Beta virt. eigenvalues --    0.10476   0.10554   0.11125   0.11263   0.12315
  Beta virt. eigenvalues --    0.12784   0.13145   0.13511   0.14533   0.14863

 Mulliken charges and spin densities:
               1          2
     1  C    1.881037  -2.678811
     2  C   -1.200136   1.570301
     3  C    0.456177  -0.813003
     4  O    0.034854   0.016965
     5  N   -0.315962   0.244296
     6  C    0.217290  -0.441215
     7  C    0.375976  -0.740281
     8  O   -0.219248   0.083682
     9  C    0.460778  -0.843414
    10  C    0.135643  -0.352724
    11  H   -0.338706   0.471293
    12  H   -0.242701   0.375509
    13  H   -0.322159   0.461700
    14  H   -0.354523   0.565378
    15  H   -0.244257   0.388623
    16  H   -0.217626   0.392383
    17  H   -0.209688   0.394620
    18  H    0.125026   0.022808
    19  H   -0.405396   0.587647
    20  H   -0.329762   0.515879
    21  H    0.036098   0.115635
    22  H   -0.326493   0.502953
    23  H    0.003778   0.159776
 Sum of Mulliken charges =  -1.00000   1.00000

 Dipole moment (field-independent basis, Debye):
    X=              2.2599    Y=             -0.3865    Z=              2.2811  Tot=              3.2342
 Quadrupole moment (field-independent basis, Debye-Ang):
   XX=           -139.4591   YY=           -100.5905   ZZ=            -91.0920
   XY=              2.3777   XZ=              2.9524   YZ=             -0.0929

 Summary of Natural Population Analysis:

                                       Natural Population
                Natural  -----------------------------------------------
    Atom  No    Charge         Core      Valence    Rydberg      Total
 -----------------------------------------------------------------------
      C    1   -0.29119      0.99966     2.28652    0.00501     3.29119
      C    2   -0.14560      0.99954     2.13783    0.00824     3.14560
      C    3    0.07810      0.99940     1.90833    0.01417     2.92190
      O    4   -0.22333      0.99988     3.21214    0.01131     4.22333
      N    5   -0.11465      0.99973     2.59843    0.01649     3.61465
      C    6   -0.10506      0.99960     2.09328    0.01218     3.10506
      C    7   -0.02103      0.99958     2.00902    0.01243     3.02103
      O    8   -0.30112      0.99989     3.29110    0.01013     4.30112
      C    9   -0.02102      0.99958     2.00897    0.01248     3.02102
      C   10   -0.10852      0.99959     2.09692    0.01201     3.10852
      H   11    0.09706      0.00000     0.40114    0.00179     0.40294
      H   12    0.09847      0.00000     0.39950    0.00204     0.40153
      H   13    0.09943      0.00000     0.39830    0.00227     0.40057
      H   14    0.10551      0.00000     0.39236    0.00213     0.39449
      H   15    0.08640      0.00000     0.41231    0.00129     0.41360
      H   16    0.10188      0.00000     0.39649    0.00163     0.39812
      H   17    0.10498      0.00000     0.39354    0.00149     0.39502
      H   18    0.08199      0.00000     0.41635    0.00166     0.41801
      H   19    0.09390      0.00000     0.40435    0.00175     0.40610
      H   20    0.09398      0.00000     0.40441    0.00161     0.40602
      H   21    0.08226      0.00000     0.41619    0.00155     0.41774
      H   22    0.10165      0.00000     0.39661    0.00174     0.39835
      H   23    0.10592      0.00000     0.39253    0.00155     0.39408
 =======================================================================
   * Total *    0.00000      9.99645    28.86660    0.13695    39.00000

 Normal termination of Gaussian 16 at Tue Dec  8 13:04:59 2020.
