 Gaussian 16, Revision A.03,

 -----------------------------------------------------------
 # opt freq B3LYP/6-31G(d) empiricaldispersion=gd3bj scf=xqc
 -----------------------------------------------------------

 -------------------------------
 CID_141181764_JID_2793_neutraal
 -------------------------------
 Symbolic Z-matrix:
 Charge =  0 Multiplicity = 1

 SCF Done:  E(RB3LYP) =  -890.143170693     A.U. after   16 cycles
 SCF Done:  E(RB3LYP) =  -890.149629598     A.U. after   13 cycles
 SCF Done:  E(RB3LYP) =  -890.145213978     A.U. after   15 cycles
 SCF Done:  E(RB3LYP) =  -890.150196436     A.U. after   12 cycles
 SCF Done:  E(RB3LYP) =  -890.150375502     A.U. after   12 cycles
 SCF Done:  E(RB3LYP) =  -890.150413616     A.U. after   11 cycles
 SCF Done:  E(RB3LYP) =  -890.150434341     A.U. after   11 cycles
 SCF Done:  E(RB3LYP) =  -890.150434407     A.U. after    8 cycles
 SCF Done:  E(RB3LYP) =  -890.150434654     A.U. after    8 cycles
 Optimization completed.
    -- Stationary point found.
 Normal termination of Gaussian 16 at Wed Dec  9 17:56:51 2020.

 --------------------------------------------------------------------
 #N Geom=AllCheck Guess=TCheck SCRF=Check GenChk RB3LYP/6-31G(d) Freq
 --------------------------------------------------------------------

 Structure from the checkpoint file:  "JID_2793.chk"
 -------------------------------
 CID_141181764_JID_2793_neutraal
 -------------------------------
 Charge =  0 Multiplicity = 1

 SCF Done:  E(RB3LYP) =  -890.150434654     A.U. after    1 cycles

  Exact polarizability: 192.146   1.314 111.033   0.000   0.000  41.769
 Approx polarizability: 310.206  11.163 218.352   0.001  -0.000  66.428

                      1                      2                      3
                      A                      A                      A
 Frequencies --     85.5453               131.3124               144.7066
 Red. masses --      6.8642                 4.6232                 8.3867
 Frc consts  --      0.0296                 0.0470                 0.1035
 IR Inten    --      1.5505                 1.1595                 0.5186

                      4                      5                      6
                      A                      A                      A
 Frequencies --    180.8838               260.0628               265.9118
 Red. masses --      5.4953                12.3208                 7.7234
 Frc consts  --      0.1059                 0.4910                 0.3218
 IR Inten    --      6.8173                 2.1866                 1.0767

                      7                      8                      9
                      A                      A                      A
 Frequencies --    396.9231               422.9323               445.7784
 Red. masses --     11.6127                 8.9559                 7.4345
 Frc consts  --      1.0779                 0.9438                 0.8704
 IR Inten    --      0.9255                 0.0009                 4.2746

                     10                     11                     12
                      A                      A                      A
 Frequencies --    474.5034               517.9884               569.7407
 Red. masses --      4.6133                 7.9939                 9.8525
 Frc consts  --      0.6120                 1.2637                 1.8843
 IR Inten    --      2.1102                 0.6798                 0.8975

                     13                     14                     15
                      A                      A                      A
 Frequencies --    618.4539               640.0663               653.5516
 Red. masses --      1.3793                 1.5928                 6.5961
 Frc consts  --      0.3108                 0.3845                 1.6600
 IR Inten    --     17.6567                31.6208                17.4360

                     16                     17                     18
                      A                      A                      A
 Frequencies --    664.5500               669.0955               674.2712
 Red. masses --      1.5116                 4.3059                 2.3470
 Frc consts  --      0.3933                 1.1358                 0.6287
 IR Inten    --     26.3993                12.8515                86.5952

                     19                     20                     21
                      A                      A                      A
 Frequencies --    721.6454               730.2003               739.6876
 Red. masses --      8.3923                 2.2840                 2.9780
 Frc consts  --      2.5750                 0.7175                 0.9600
 IR Inten    --     12.5441                 8.0008                10.7272

                     22                     23                     24
                      A                      A                      A
 Frequencies --    793.8733               844.6343               908.2963
 Red. masses --      3.2199                 4.9583                 1.3091
 Frc consts  --      1.1956                 2.0841                 0.6363
 IR Inten    --     53.7305                 8.7219                 1.1857

                     25                     26                     27
                      A                      A                      A
 Frequencies --   1015.4461              1068.6911              1096.8347
 Red. masses --      5.5672                 2.7241                 5.0356
 Frc consts  --      3.3822                 1.8331                 3.5693
 IR Inten    --      6.0799                30.9643                39.6007

                     28                     29                     30
                      A                      A                      A
 Frequencies --   1129.9525              1244.2040              1270.4758
 Red. masses --      1.5173                 2.3090                 3.3930
 Frc consts  --      1.1414                 2.1060                 3.2267
 IR Inten    --      5.9161                33.8005                 3.0950

                     31                     32                     33
                      A                      A                      A
 Frequencies --   1315.0927              1439.0117              1465.4610
 Red. masses --      2.7484                 3.8696                 6.0029
 Frc consts  --      2.8006                 4.7211                 7.5956
 IR Inten    --      3.8191                33.3776                 7.3768

                     34                     35                     36
                      A                      A                      A
 Frequencies --   1509.9593              1549.8185              1614.9326
 Red. masses --      4.8258                 5.4972                 7.4328
 Frc consts  --      6.4826                 7.7795                11.4211
 IR Inten    --     69.4874                70.0586               158.5486

                     37                     38                     39
                      A                      A                      A
 Frequencies --   1806.5675              2243.2573              3245.4497
 Red. masses --      9.8787                 6.0596                 1.0904
 Frc consts  --     18.9958                17.9660                 6.7668
 IR Inten    --    546.5553                11.0479                 1.0116

                     40                     41                     42
                      A                      A                      A
 Frequencies --   3271.4360              3492.4600              3594.9019
 Red. masses --      1.0989                 1.1602                 1.0781
 Frc consts  --      6.9290                 8.3380                 8.2091
 IR Inten    --      0.2865                92.3889                64.0234

 - Thermochemistry -
 -------------------
 Temperature   298.150 Kelvin.  Pressure   1.00000 Atm.
 Atom     1 has atomic number  6 and mass  12.00000

 Molecular mass:   176.00443 amu.
 Principal axes and moments of inertia in atomic units:
                           1         2         3
     Eigenvalues --  1023.774572917.020123940.79469
           X            0.99982  -0.01873  -0.00000
           Y            0.01873   0.99982   0.00000
           Z            0.00000  -0.00000   1.00000
 This molecule is an asymmetric top.
 Rotational symmetry number  1.
 Warning -- assumption of classical behavior for rotation
           may cause significant error
 Rotational temperatures (Kelvin)      0.08460     0.02969     0.02198
 Rotational constants (GHZ):           1.76283     0.61869     0.45796
 Zero-point vibrational energy     274713.8 (Joules/Mol)
                                   65.65818 (Kcal/Mol)
 Warning -- explicit consideration of  13 degrees of freedom as
           vibrations may cause significant error
 Vibrational temperatures:    123.08   188.93   208.20   260.25   374.17
          (Kelvin)            382.59   571.08   608.51   641.38   682.70
                              745.27   819.73   889.82   920.91   940.32
                              956.14   962.68   970.13  1038.29  1050.60
                             1064.25  1142.21  1215.24  1306.84  1461.00
                             1537.61  1578.10  1625.75  1790.13  1827.93
                             1892.13  2070.42  2108.47  2172.49  2229.84
                             2323.53  2599.25  3227.55  4669.48  4706.87
                             5024.87  5172.26

 Zero-point correction=                           0.104633 (Hartree/Particle)
 Thermal correction to Energy=                    0.114059
 Thermal correction to Enthalpy=                  0.115003
 Thermal correction to Gibbs Free Energy=         0.069506
 Sum of electronic and zero-point Energies=           -890.045802
 Sum of electronic and thermal Energies=              -890.036376
 Sum of electronic and thermal Enthalpies=            -890.035431
 Sum of electronic and thermal Free Energies=         -890.080928

                     E (Thermal)             CV                S
                      KCal/Mol        Cal/Mol-Kelvin    Cal/Mol-Kelvin
 Total                   71.573             36.634             95.756
 Electronic               0.000              0.000              0.000
 Translational            0.889              2.981             41.403
 Rotational               0.889              2.981             30.843
 Vibrational             69.796             30.672             23.510
 Vibration     1          0.601              1.959              3.759
 Vibration     2          0.612              1.922              2.927
 Vibration     3          0.616              1.908              2.741
 Vibration     4          0.630              1.866              2.319
 Vibration     5          0.668              1.746              1.661
 Vibration     6          0.672              1.736              1.623
 Vibration     7          0.763              1.477              0.974
 Vibration     8          0.785              1.420              0.882
 Vibration     9          0.805              1.370              0.809
 Vibration    10          0.831              1.307              0.725
 Vibration    11          0.873              1.210              0.615
 Vibration    12          0.926              1.097              0.505
 Vibration    13          0.978              0.993              0.419

 Optimization completed.
    -- Stationary point found.
 Normal termination of Gaussian 16 at Wed Dec  9 17:59:58 2020.

 ----------------------------------------------------------------------
 # B3LYP/6-311++G(d,p) empiricaldispersion=gd3bj scf=xqc pop=npa geom=c
 heck
 ----------------------------------------------------------------------

 ---------------------------------------
 CID_141181764_JID_2793_Energie_neutraal
 ---------------------------------------
 Structure from the checkpoint file:  "JID_2793.chk"
 Charge =  0 Multiplicity = 1

 SCF Done:  E(RB3LYP) =  -890.313328404     A.U. after   16 cycles
 Normal termination of Gaussian 16 at Wed Dec  9 18:01:18 2020.

 ----------------------------------------------------------------------
 # B3LYP/6-311++G(d,p) empiricaldispersion=gd3bj scf=xqc pop=npa geom=c
 heck
 ----------------------------------------------------------------------

 -------------------------------------
 CID_141181764_JID_2793_Energie_kation
 -------------------------------------
 Structure from the checkpoint file:  "JID_2793.chk"
 Charge =  1 Multiplicity = 2

 SCF Done:  E(UB3LYP) =  -890.000588046     A.U. after   25 cycles
 Normal termination of Gaussian 16 at Wed Dec  9 18:05:23 2020.
 Gaussian 16:  ES64L-G16RevA.03 25-Dec-2016

 ----------------------------------------------------------------------
 # B3LYP/6-311++G(d,p) empiricaldispersion=gd3bj scf=xqc pop=npa geom=c
 heck
 ----------------------------------------------------------------------

 ------------------------------------
 CID_141181764_JID_2793_Energie_anion
 ------------------------------------
 Structure from the checkpoint file:  "JID_2793.chk"
 Charge = -1 Multiplicity = 2

                         Standard orientation:
 ---------------------------------------------------------------------
 Center     Atomic      Atomic             Coordinates (Angstroms)
 Number     Number       Type             X           Y           Z
 ---------------------------------------------------------------------
      1          6           0       -4.399500   -0.595571   -0.000023
      2          6           0       -3.198404   -0.470856    0.000008
      3          6           0       -1.783189   -0.265961    0.000009
      4          7           0       -0.966128   -1.283327    0.000007
      5          6           0        0.371922   -0.969367    0.000003
      6          6           0        0.856035    0.341274    0.000001
      7          6           0       -0.024042    1.482433    0.000003
      8          8           0        0.263458    2.669690   -0.000003
      9          7           0       -1.369940    1.050855    0.000005
     10         16           0        2.585953    0.406346   -0.000002
     11          6           0        2.660833   -1.335323   -0.000007
     12          6           0        1.433160   -1.931205    0.000002
     13          1           0       -5.457699   -0.732119    0.000005
     14          1           0       -2.064560    1.789408    0.000004
     15          1           0        3.627606   -1.820903   -0.000013
     16          1           0        1.263326   -3.000691    0.000003
 ---------------------------------------------------------------------

 SCF Done:  E(UB3LYP) =  -890.335699893     A.U. after   24 cycles

 The electronic state is 2-A.
 Alpha  occ. eigenvalues --  -88.73492 -18.94914 -14.20689 -14.15800 -10.13588
 Alpha  occ. eigenvalues --  -10.10155 -10.07148 -10.06511 -10.04746 -10.04077
 Alpha  occ. eigenvalues --  -10.03965 -10.03102  -7.82119  -5.78425  -5.78066
 Alpha  occ. eigenvalues --   -5.77712  -0.90332  -0.83717  -0.76051  -0.72870
 Alpha  occ. eigenvalues --   -0.64085  -0.61098  -0.59422  -0.51905  -0.50467
 Alpha  occ. eigenvalues --   -0.43477  -0.41703  -0.40546  -0.38762  -0.36126
 Alpha  occ. eigenvalues --   -0.32089  -0.31520  -0.28611  -0.27338  -0.26269
 Alpha  occ. eigenvalues --   -0.24495  -0.24197  -0.22348  -0.16555  -0.15981
 Alpha  occ. eigenvalues --   -0.15125  -0.13258  -0.12813  -0.11986  -0.08839
 Alpha  occ. eigenvalues --    0.03774
 Alpha virt. eigenvalues --    0.08785   0.08866   0.09451   0.11207   0.11802
 Alpha virt. eigenvalues --    0.13324   0.14172   0.14874   0.15219   0.15724
 Alpha virt. eigenvalues --    0.15922   0.16390   0.16573   0.18430   0.18451

  Beta  occ. eigenvalues --  -88.73437 -18.94911 -14.20361 -14.15805 -10.13600
  Beta  occ. eigenvalues --  -10.09718 -10.07039 -10.06399 -10.04812 -10.04111
  Beta  occ. eigenvalues --  -10.03622 -10.02821  -7.82070  -5.78401  -5.78044
  Beta  occ. eigenvalues --   -5.77529  -0.90206  -0.83267  -0.75658  -0.72587
  Beta  occ. eigenvalues --   -0.63600  -0.60747  -0.59056  -0.51384  -0.50003
  Beta  occ. eigenvalues --   -0.43251  -0.41478  -0.40284  -0.38454  -0.35810
  Beta  occ. eigenvalues --   -0.32001  -0.30340  -0.28528  -0.27225  -0.26127
  Beta  occ. eigenvalues --   -0.23910  -0.22953  -0.22089  -0.15840  -0.15484
  Beta  occ. eigenvalues --   -0.13778  -0.13159  -0.12695  -0.11104  -0.07421
  Beta virt. eigenvalues --    0.08766   0.08845   0.09462   0.10666   0.11194
  Beta virt. eigenvalues --    0.11762   0.13331   0.14215   0.14976   0.15272
  Beta virt. eigenvalues --    0.15747   0.16296   0.16573   0.16621   0.18499

 Mulliken charges and spin densities:
               1          2
     1  C   -0.630431   0.307866
     2  C    0.416375  -0.074066
     3  C   -0.336940   0.266372
     4  N   -0.082960  -0.010794
     5  C   -0.525660   0.054649
     6  C    0.414843   0.232907
     7  C    0.467278   0.004257
     8  O   -0.437359   0.002960
     9  N   -0.253700   0.124082
    10  S   -0.543245   0.098442
    11  C   -0.330574   0.048447
    12  C    0.103478  -0.030662
    13  H    0.131324  -0.014333
    14  H    0.286509  -0.007585
    15  H    0.195581  -0.005979
    16  H    0.125481   0.003436
 Sum of Mulliken charges =  -1.00000   1.00000

 Dipole moment (field-independent basis, Debye):
    X=              1.8475    Y=             -1.5127    Z=              0.0001  Tot=              2.3877
 Quadrupole moment (field-independent basis, Debye-Ang):
   XX=            -99.9775   YY=            -98.1212   ZZ=            -83.7896
   XY=            -10.9086   XZ=             -0.0004   YZ=              0.0000

 Summary of Natural Population Analysis:

                                       Natural Population
                Natural  -----------------------------------------------
    Atom  No    Charge         Core      Valence    Rydberg      Total
 -----------------------------------------------------------------------
      C    1   -0.06696      0.99929     2.06297    0.00470     3.06696
      C    2   -0.02880      0.99935     2.02100    0.00845     3.02880
      C    3    0.24694      0.99953     1.73814    0.01539     2.75306
      N    4   -0.25579      0.99965     2.74494    0.01120     3.75579
      C    5    0.06420      0.99949     1.91562    0.02069     2.93580
      C    6   -0.05882      0.99941     2.04697    0.01244     3.05882
      C    7    0.39587      0.99964     1.58369    0.02080     2.60413
      O    8   -0.36995      0.99990     3.34439    0.02566     4.36995
      N    9   -0.27493      0.99968     2.75493    0.02032     3.77493
      S   10    0.20879      4.99949     2.76161    0.03011     7.79121
      C   11   -0.17367      0.99955     2.16244    0.01167     3.17367
      C   12   -0.14483      0.99950     2.13492    0.01041     3.14483
      H   13    0.09999      0.00000     0.39902    0.00099     0.40001
      H   14    0.19405      0.00000     0.30347    0.00248     0.30595
      H   15    0.09790      0.00000     0.40109    0.00101     0.40210
      H   16    0.10349      0.00000     0.39522    0.00129     0.39651
 =======================================================================
   * Total *    0.03749     15.99448    28.77042    0.19761    44.96251

 Normal termination of Gaussian 16 at Wed Dec  9 18:09:27 2020.
