 Gaussian 16, Revision A.03,

 -----------------------------------------------------------
 # opt freq B3LYP/6-31G(d) empiricaldispersion=gd3bj scf=xqc
 -----------------------------------------------------------

 -------------------------------
 CID_104253333_JID_5727_neutraal
 -------------------------------
 Symbolic Z-matrix:
 Charge =  0 Multiplicity = 1

 SCF Done:  E(RB3LYP) =  -670.081419619     A.U. after   14 cycles
 SCF Done:  E(RB3LYP) =  -670.086275715     A.U. after   12 cycles
 SCF Done:  E(RB3LYP) =  -670.086407973     A.U. after   12 cycles
 SCF Done:  E(RB3LYP) =  -670.087472798     A.U. after   12 cycles
 SCF Done:  E(RB3LYP) =  -670.087729284     A.U. after   10 cycles
 SCF Done:  E(RB3LYP) =  -670.087857051     A.U. after   10 cycles
 SCF Done:  E(RB3LYP) =  -670.087891274     A.U. after   10 cycles
 SCF Done:  E(RB3LYP) =  -670.087901474     A.U. after    9 cycles
 SCF Done:  E(RB3LYP) =  -670.087908055     A.U. after   10 cycles
 SCF Done:  E(RB3LYP) =  -670.087910877     A.U. after    9 cycles
 SCF Done:  E(RB3LYP) =  -670.087923309     A.U. after    9 cycles
 SCF Done:  E(RB3LYP) =  -670.087924087     A.U. after    9 cycles
 SCF Done:  E(RB3LYP) =  -670.087924400     A.U. after    7 cycles
 SCF Done:  E(RB3LYP) =  -670.087924486     A.U. after    7 cycles
 SCF Done:  E(RB3LYP) =  -670.087924487     A.U. after    6 cycles
 Optimization completed.
    -- Stationary point found.
 Normal termination of Gaussian 16 at Thu Dec 10 16:42:08 2020.

 --------------------------------------------------------------------
 #N Geom=AllCheck Guess=TCheck SCRF=Check GenChk RB3LYP/6-31G(d) Freq
 --------------------------------------------------------------------

 Structure from the checkpoint file:  "JID_5727.chk"
 -------------------------------
 CID_104253333_JID_5727_neutraal
 -------------------------------
 Charge =  0 Multiplicity = 1

 SCF Done:  E(RB3LYP) =  -670.087924487     A.U. after    1 cycles

  Exact polarizability: 171.866   2.563 129.540  -8.298   5.698 104.425
 Approx polarizability: 208.873   5.885 200.977 -18.023   8.766 155.957

                      1                      2                      3
                      A                      A                      A
 Frequencies --     12.8315                35.2655                47.3337
 Red. masses --      3.8734                 3.9700                 3.1418
 Frc consts  --      0.0004                 0.0029                 0.0041
 IR Inten    --      0.1129                 1.3668                 0.5045

                      4                      5                      6
                      A                      A                      A
 Frequencies --     76.3097                89.3535                98.3886
 Red. masses --      2.8472                 3.1902                 3.1446
 Frc consts  --      0.0098                 0.0150                 0.0179
 IR Inten    --      0.7175                 1.8317                 1.4157

                      7                      8                      9
                      A                      A                      A
 Frequencies --    101.3998               130.6793               197.7346
 Red. masses --      2.9626                 2.9507                 3.4232
 Frc consts  --      0.0179                 0.0297                 0.0789
 IR Inten    --      2.8922                 6.9423                 0.7732

                     10                     11                     12
                      A                      A                      A
 Frequencies --    224.6071               239.6801               268.5271
 Red. masses --      1.2052                 2.7483                 1.6426
 Frc consts  --      0.0358                 0.0930                 0.0698
 IR Inten    --      4.4269                 0.8075                 1.8890

                     13                     14                     15
                      A                      A                      A
 Frequencies --    288.9676               310.1543               331.2611
 Red. masses --      1.9109                 2.4754                 3.8259
 Frc consts  --      0.0940                 0.1403                 0.2474
 IR Inten    --      1.2936                 0.8125                 0.1333

                     16                     17                     18
                      A                      A                      A
 Frequencies --    359.8050               397.6718               436.6969
 Red. masses --      3.3416                 2.1241                 2.3890
 Frc consts  --      0.2549                 0.1979                 0.2684
 IR Inten    --      9.0313                 1.0061                 3.2815

                     19                     20                     21
                      A                      A                      A
 Frequencies --    444.8849               475.4547               582.8401
 Red. masses --      3.1196                 2.9995                 1.7052
 Frc consts  --      0.3638                 0.3995                 0.3413
 IR Inten    --     13.0587                 5.5186                61.6530

                     22                     23                     24
                      A                      A                      A
 Frequencies --    605.8929               657.4667               672.3372
 Red. masses --      2.3411                 3.4300                 2.8817
 Frc consts  --      0.5064                 0.8736                 0.7675
 IR Inten    --      9.5274                19.2701                 8.7378

                     25                     26                     27
                      A                      A                      A
 Frequencies --    734.3659               772.9941               781.0360
 Red. masses --      3.0648                 2.1752                 1.7019
 Frc consts  --      0.9738                 0.7658                 0.6117
 IR Inten    --      0.7419                15.9598                 6.8368

                     28                     29                     30
                      A                      A                      A
 Frequencies --    791.9428               808.9339               822.5234
 Red. masses --      1.4328                 2.5953                 1.5749
 Frc consts  --      0.5295                 1.0006                 0.6278
 IR Inten    --     58.3898                 9.7536                 4.8937

                     31                     32                     33
                      A                      A                      A
 Frequencies --    836.0057               868.9623               894.6875
 Red. masses --      1.3305                 1.6451                 1.8508
 Frc consts  --      0.5479                 0.7319                 0.8729
 IR Inten    --     21.0824                10.0511                 3.8026

                     34                     35                     36
                      A                      A                      A
 Frequencies --    915.5964               961.4236               989.3586
 Red. masses --      2.5755                 3.1716                 2.2576
 Frc consts  --      1.2721                 1.7273                 1.3020
 IR Inten    --     19.0263                15.3279                 8.9502

                     37                     38                     39
                      A                      A                      A
 Frequencies --   1005.7454              1020.4990              1026.4522
 Red. masses --      1.9882                 2.2758                 2.1215
 Frc consts  --      1.1849                 1.3964                 1.3170
 IR Inten    --     21.9526                 8.4065                19.3531

                     40                     41                     42
                      A                      A                      A
 Frequencies --   1054.0378              1061.3078              1082.6216
 Red. masses --      1.4536                 4.2210                 1.4094
 Frc consts  --      0.9515                 2.8012                 0.9733
 IR Inten    --      6.4784                 5.5548                 2.2442

                     43                     44                     45
                      A                      A                      A
 Frequencies --   1084.7217              1106.9823              1114.5024
 Red. masses --      1.4825                 3.5869                 2.8268
 Frc consts  --      1.0277                 2.5897                 2.0687
 IR Inten    --     17.4788                23.0389                38.0330

                     46                     47                     48
                      A                      A                      A
 Frequencies --   1136.2105              1169.0984              1188.3413
 Red. masses --      1.1624                 2.1929                 1.9393
 Frc consts  --      0.8841                 1.7659                 1.6135
 IR Inten    --      4.2508                30.1208                13.4861

                     49                     50                     51
                      A                      A                      A
 Frequencies --   1195.8879              1202.3911              1206.2373
 Red. masses --      1.2815                 1.6608                 1.4482
 Frc consts  --      1.0798                 1.4147                 1.2415
 IR Inten    --      2.1863                31.4881                 2.9049

                     52                     53                     54
                      A                      A                      A
 Frequencies --   1215.7154              1241.9602              1250.3657
 Red. masses --      1.9505                 1.4576                 1.7776
 Frc consts  --      1.6985                 1.3247                 1.6374
 IR Inten    --     28.4414                 2.5672                25.5308

                     55                     56                     57
                      A                      A                      A
 Frequencies --   1265.3321              1280.6995              1302.2479
 Red. masses --      1.9658                 1.6573                 1.5198
 Frc consts  --      1.8544                 1.6016                 1.5186
 IR Inten    --     59.3439                 3.8403                28.5680

                     58                     59                     60
                      A                      A                      A
 Frequencies --   1337.1533              1361.7527              1386.8313
 Red. masses --      1.4880                 1.5045                 1.3928
 Frc consts  --      1.5676                 1.6438                 1.5783
 IR Inten    --     17.0905                47.9376                13.2714

                     61                     62                     63
                      A                      A                      A
 Frequencies --   1415.0625              1423.1601              1431.7317
 Red. masses --      1.8805                 1.2326                 2.0844
 Frc consts  --      2.2186                 1.4709                 2.5174
 IR Inten    --      1.5228                 9.2175                10.7003

                     64                     65                     66
                      A                      A                      A
 Frequencies --   1436.8701              1465.7584              1489.4024
 Red. masses --      1.2981                 3.2571                 1.0993
 Frc consts  --      1.5791                 4.1229                 1.4368
 IR Inten    --     17.8674                27.5451                 6.3177

                     67                     68                     69
                      A                      A                      A
 Frequencies --   1494.7994              1504.7620              1510.2775
 Red. masses --      1.1267                 1.1045                 1.1780
 Frc consts  --      1.4832                 1.4735                 1.5831
 IR Inten    --      9.5457                 2.6016                40.3896

                     70                     71                     72
                      A                      A                      A
 Frequencies --   1523.7599              1531.6454              1535.7777
 Red. masses --      1.0613                 1.0698                 1.3717
 Frc consts  --      1.4518                 1.4786                 1.9062
 IR Inten    --      2.3603                 2.9388                15.9152

                     73                     74                     75
                      A                      A                      A
 Frequencies --   1537.1924              1538.4546              1550.9112
 Red. masses --      1.0720                 1.1385                 1.0677
 Frc consts  --      1.4924                 1.5876                 1.5132
 IR Inten    --      3.3236                12.3308                18.7858

                     76                     77                     78
                      A                      A                      A
 Frequencies --   1553.2318              1638.6290              2989.2608
 Red. masses --      5.8599                 5.0171                 1.0655
 Frc consts  --      8.3293                 7.9372                 5.6098
 IR Inten    --     16.4813                16.0369                49.4546

                     79                     80                     81
                      A                      A                      A
 Frequencies --   3021.8583              3027.2422              3036.4226
 Red. masses --      1.0420                 1.0955                 1.0708
 Frc consts  --      5.6059                 5.9149                 5.8165
 IR Inten    --     51.5744                32.7331                10.6580

                     82                     83                     84
                      A                      A                      A
 Frequencies --   3052.7171              3061.2033              3101.2054
 Red. masses --      1.0468                 1.0767                 1.0910
 Frc consts  --      5.7475                 5.9448                 6.1822
 IR Inten    --     21.8670                49.3988                44.7604

                     85                     86                     87
                      A                      A                      A
 Frequencies --   3119.6556              3124.5891              3139.1845
 Red. masses --      1.0970                 1.0941                 1.1065
 Frc consts  --      6.2905                 6.2934                 6.4243
 IR Inten    --     27.3595                 9.8993                18.3386

                     88                     89                     90
                      A                      A                      A
 Frequencies --   3140.7192              3142.9510              3144.7868
 Red. masses --      1.0514                 1.1029                 1.0610
 Frc consts  --      6.1105                 6.4191                 6.1823
 IR Inten    --     19.3070                34.9136                12.4658

                     91                     92                     93
                      A                      A                      A
 Frequencies --   3148.6010              3216.4872              3230.7379
 Red. masses --      1.0873                 1.1188                 1.1155
 Frc consts  --      6.3509                 6.8199                 6.8603
 IR Inten    --     12.7337                 0.7750                28.5990

                     94                     95                     96
                      A                      A                      A
 Frequencies --   3256.2454              3486.2870              3640.2410
 Red. masses --      1.0968                 1.0740                 1.0801
 Frc consts  --      6.8521                 7.6911                 8.4331
 IR Inten    --     11.0586                 0.0482                46.6708

 - Thermochemistry -
 -------------------
 Temperature   298.150 Kelvin.  Pressure   1.00000 Atm.
 Atom     1 has atomic number  6 and mass  12.00000

 Molecular mass:   209.15281 amu.
 Principal axes and moments of inertia in atomic units:
                           1         2         3
     Eigenvalues --  1196.567367869.730798388.71793
           X            0.99999  -0.00168   0.00303
           Y            0.00161   0.99977   0.02131
           Z           -0.00306  -0.02130   0.99977
 This molecule is an asymmetric top.
 Rotational symmetry number  1.
 Warning -- assumption of classical behavior for rotation
           may cause significant error
 Rotational temperatures (Kelvin)      0.07239     0.01101     0.01033
 Rotational constants (GHZ):           1.50827     0.22933     0.21514
 Zero-point vibrational energy     784883.6 (Joules/Mol)
                                  187.59168 (Kcal/Mol)
 Warning -- explicit consideration of  22 degrees of freedom as
           vibrations may cause significant error
 Vibrational temperatures:     18.46    50.74    68.10   109.79   128.56
          (Kelvin)            141.56   145.89   188.02   284.50   323.16
                              344.85   386.35   415.76   446.24   476.61
                              517.68   572.16   628.31   640.09   684.07
                              838.58   871.74   945.95   967.34  1056.59
                             1112.17  1123.74  1139.43  1163.88  1183.43
                             1202.83  1250.24  1287.26  1317.34  1383.27
                             1423.47  1447.04  1468.27  1476.84  1516.53
                             1526.99  1557.65  1560.67  1592.70  1603.52
                             1634.75  1682.07  1709.76  1720.62  1729.97
                             1735.51  1749.14  1786.90  1799.00  1820.53
                             1842.64  1873.64  1923.87  1959.26  1995.34
                             2035.96  2047.61  2059.94  2067.34  2108.90
                             2142.92  2150.68  2165.02  2172.95  2192.35
                             2203.70  2209.64  2211.68  2213.49  2231.42
                             2234.75  2357.62  4300.88  4347.78  4355.53
                             4368.73  4392.18  4404.39  4461.94  4488.49
                             4495.59  4516.59  4518.79  4522.01  4524.65
                             4530.13  4627.81  4648.31  4685.01  5015.99
                             5237.49

 Zero-point correction=                           0.298946 (Hartree/Particle)
 Thermal correction to Energy=                    0.314765
 Thermal correction to Enthalpy=                  0.315709
 Thermal correction to Gibbs Free Energy=         0.253318
 Sum of electronic and zero-point Energies=           -669.788978
 Sum of electronic and thermal Energies=              -669.773160
 Sum of electronic and thermal Enthalpies=            -669.772215
 Sum of electronic and thermal Free Energies=         -669.834606

                     E (Thermal)             CV                S
                      KCal/Mol        Cal/Mol-Kelvin    Cal/Mol-Kelvin
 Total                  197.518             58.544            131.312
 Electronic               0.000              0.000              0.000
 Translational            0.889              2.981             41.918
 Rotational               0.889              2.981             32.735
 Vibrational            195.741             52.582             56.660
 Vibration     1          0.593              1.987              7.516
 Vibration     2          0.594              1.982              5.509
 Vibration     3          0.595              1.979              4.926
 Vibration     4          0.599              1.965              3.984
 Vibration     5          0.602              1.957              3.674
 Vibration     6          0.604              1.950              3.486
 Vibration     7          0.604              1.948              3.427
 Vibration     8          0.612              1.923              2.936
 Vibration     9          0.637              1.843              2.154
 Vibration    10          0.649              1.804              1.922
 Vibration    11          0.657              1.780              1.805
 Vibration    12          0.673              1.731              1.606
 Vibration    13          0.686              1.694              1.480
 Vibration    14          0.699              1.654              1.362
 Vibration    15          0.714              1.613              1.254
 Vibration    16          0.734              1.555              1.123
 Vibration    17          0.764              1.475              0.971
 Vibration    18          0.797              1.390              0.837
 Vibration    19          0.804              1.372              0.811
 Vibration    20          0.832              1.305              0.722
 Vibration    21          0.940              1.068              0.480
 Vibration    22          0.965              1.019              0.440

 Optimization completed.
    -- Stationary point found.
 Normal termination of Gaussian 16 at Thu Dec 10 16:52:34 2020.

 ----------------------------------------------------------------------
 # B3LYP/6-311++G(d,p) empiricaldispersion=gd3bj scf=xqc pop=npa geom=c
 heck
 ----------------------------------------------------------------------

 ---------------------------------------
 CID_104253333_JID_5727_Energie_neutraal
 ---------------------------------------
 Structure from the checkpoint file:  "JID_5727.chk"
 Charge =  0 Multiplicity = 1

 SCF Done:  E(RB3LYP) =  -670.279976785     A.U. after   14 cycles
 Normal termination of Gaussian 16 at Thu Dec 10 16:59:05 2020.

 ----------------------------------------------------------------------
 # B3LYP/6-311++G(d,p) empiricaldispersion=gd3bj scf=xqc pop=npa geom=c
 heck
 ----------------------------------------------------------------------

 -------------------------------------
 CID_104253333_JID_5727_Energie_kation
 -------------------------------------
 Structure from the checkpoint file:  "JID_5727.chk"
 Charge =  1 Multiplicity = 2

 SCF Done:  E(UB3LYP) =  -669.995673581     A.U. after   24 cycles
 Normal termination of Gaussian 16 at Thu Dec 10 17:18:39 2020.
 Gaussian 16:  ES64L-G16RevA.03 25-Dec-2016

 ----------------------------------------------------------------------
 # B3LYP/6-311++G(d,p) empiricaldispersion=gd3bj scf=xqc pop=npa geom=c
 heck
 ----------------------------------------------------------------------

 ------------------------------------
 CID_104253333_JID_5727_Energie_anion
 ------------------------------------
 Structure from the checkpoint file:  "JID_5727.chk"
 Charge = -1 Multiplicity = 2

                         Standard orientation:
 ---------------------------------------------------------------------
 Center     Atomic      Atomic             Coordinates (Angstroms)
 Number     Number       Type             X           Y           Z
 ---------------------------------------------------------------------
      1          6           0        2.606214   -1.823662    0.880457
      2          6           0        3.335837   -1.173295   -0.297742
      3          6           0        2.378580   -0.470522   -1.302805
      4          6           0        1.283471    0.380739   -0.740499
      5          7           0        1.301464    1.694639   -0.591030
      6          6           0        0.078443    2.033771   -0.051135
      7          6           0       -0.698761    0.916121    0.136046
      8          7           0        0.088083   -0.131098   -0.306131
      9          6           0       -2.062978    0.670744    0.686777
     10          7           0       -2.750979   -0.349929   -0.115853
     11          6           0       -4.047522   -0.706449    0.406875
     12          6           0       -5.237881    0.229576    0.328971
     13          6           0       -5.171624   -1.014034   -0.534700
     14          8           0        4.427086   -0.360119    0.108747
     15          6           0        4.130009    0.780655    0.903946
     16          1           0        2.046062   -1.095050    1.473327
     17          1           0        3.329345   -2.322341    1.532936
     18          1           0        1.894662   -2.576675    0.520072
     19          1           0        3.831827   -1.968020   -0.867448
     20          1           0        2.988562    0.149660   -1.965294
     21          1           0        1.926024   -1.257124   -1.922040
     22          1           0       -0.173502    3.062217    0.170921
     23          1           0       -0.238581   -1.085786   -0.362448
     24          1           0       -2.005588    0.278832    1.712963
     25          1           0       -2.610736    1.625520    0.752448
     26          1           0       -2.842108   -0.010827   -1.072461
     27          1           0       -3.974512   -1.322388    1.301896
     28          1           0       -5.945001    0.253904    1.153633
     29          1           0       -5.091171    1.187780   -0.163520
     30          1           0       -4.991280   -0.879871   -1.599076
     31          1           0       -5.827799   -1.848207   -0.304139
     32          1           0        3.509629    1.508512    0.371077
     33          1           0        3.628487    0.512283    1.844873
     34          1           0        5.096281    1.231387    1.146263
 ---------------------------------------------------------------------

 SCF Done:  E(UB3LYP) =  -670.268576204     A.U. after   33 cycles
 SCF Done:  E(UB3LYP) =  -670.268576204     a.u. after    1 cycles

 The electronic state is 2-A.
 Alpha  occ. eigenvalues --  -19.02727 -14.26323 -14.21706 -14.19557 -10.13292
 Alpha  occ. eigenvalues --  -10.13237 -10.11488 -10.11171 -10.10982 -10.10708
 Alpha  occ. eigenvalues --  -10.08655 -10.08556 -10.08253 -10.07838 -10.06540
 Alpha  occ. eigenvalues --   -0.93816  -0.91875  -0.83467  -0.77403  -0.74353
 Alpha  occ. eigenvalues --   -0.70538  -0.66195  -0.61677  -0.59645  -0.56757
 Alpha  occ. eigenvalues --   -0.51498  -0.51289  -0.50370  -0.49780  -0.47572
 Alpha  occ. eigenvalues --   -0.42890  -0.40885  -0.40577  -0.39169  -0.38162
 Alpha  occ. eigenvalues --   -0.36768  -0.36029  -0.34810  -0.33560  -0.32856
 Alpha  occ. eigenvalues --   -0.32195  -0.31409  -0.30768  -0.30328  -0.29149
 Alpha  occ. eigenvalues --   -0.28569  -0.27745  -0.26529  -0.25899  -0.23223
 Alpha  occ. eigenvalues --   -0.21504  -0.21047  -0.18766  -0.18058  -0.16735
 Alpha  occ. eigenvalues --   -0.13877  -0.12494   0.04120
 Alpha virt. eigenvalues --    0.05910   0.06870   0.07064   0.07898   0.07952
 Alpha virt. eigenvalues --    0.08766   0.09365   0.09989   0.10188   0.10549
 Alpha virt. eigenvalues --    0.10955   0.11047   0.11429   0.11772   0.12507

  Beta  occ. eigenvalues --  -19.02726 -14.26294 -14.21690 -14.19552 -10.13293
  Beta  occ. eigenvalues --  -10.13228 -10.11473 -10.11156 -10.10974 -10.10708
  Beta  occ. eigenvalues --  -10.08649 -10.08536 -10.08230 -10.07812 -10.06502
  Beta  occ. eigenvalues --   -0.93810  -0.91857  -0.83440  -0.77371  -0.74325
  Beta  occ. eigenvalues --   -0.70510  -0.66169  -0.61636  -0.59611  -0.56724
  Beta  occ. eigenvalues --   -0.51424  -0.51238  -0.50309  -0.49751  -0.47535
  Beta  occ. eigenvalues --   -0.42852  -0.40832  -0.40539  -0.39129  -0.38134
  Beta  occ. eigenvalues --   -0.36739  -0.35999  -0.34776  -0.33533  -0.32829
  Beta  occ. eigenvalues --   -0.32171  -0.31390  -0.30737  -0.30289  -0.29106
  Beta  occ. eigenvalues --   -0.28528  -0.27710  -0.26499  -0.25871  -0.23196
  Beta  occ. eigenvalues --   -0.21487  -0.21016  -0.18739  -0.18049  -0.16727
  Beta  occ. eigenvalues --   -0.13851  -0.12478
  Beta virt. eigenvalues --    0.06310   0.06803   0.07396   0.07552   0.08173
  Beta virt. eigenvalues --    0.08346   0.08982   0.09649   0.10443   0.10486
  Beta virt. eigenvalues --    0.10707   0.11169   0.11297   0.11702   0.12022

 Mulliken charges and spin densities:
               1          2
     1  C    0.860281  -1.446107
     2  C   -0.999868   1.035661
     3  C    0.162293  -1.133123
     4  C   -0.176204   0.335221
     5  N   -0.051861   0.025942
     6  C   -1.319679   1.143565
     7  C   -1.361203   2.279867
     8  N   -0.014224  -0.013890
     9  C    3.250297  -4.534006
    10  N    0.063863  -0.089900
    11  C   -1.481671   1.304390
    12  C    0.624196  -0.949333
    13  C    1.178217  -1.570995
    14  O   -0.115450  -0.010974
    15  C   -0.126163  -0.203611
    16  H   -0.025515   0.203548
    17  H   -0.112552   0.273899
    18  H   -0.401856   0.547835
    19  H   -0.155962   0.376991
    20  H    0.230590  -0.007442
    21  H   -0.471015   0.638443
    22  H   -0.122954   0.265754
    23  H    0.274023   0.073113
    24  H   -0.037047   0.204541
    25  H   -0.076365   0.231767
    26  H    0.288390  -0.084430
    27  H   -0.642588   0.874196
    28  H   -0.251201   0.396710
    29  H   -0.030293   0.168651
    30  H   -0.241611   0.372219
    31  H   -0.046293   0.184470
    32  H    0.168650  -0.004966
    33  H    0.053217   0.069442
    34  H    0.107560   0.042554
 Sum of Mulliken charges =  -1.00000   1.00000

 Dipole moment (field-independent basis, Debye):
    X=              3.0692    Y=              3.9718    Z=             -0.2957  Tot=              5.0282
 Quadrupole moment (field-independent basis, Debye-Ang):
   XX=           -193.4554   YY=           -136.9875   ZZ=           -124.2695
   XY=             -1.7231   XZ=              8.7298   YZ=              2.2610

 Summary of Natural Population Analysis:

                                       Natural Population
                Natural  -----------------------------------------------
    Atom  No    Charge         Core      Valence    Rydberg      Total
 -----------------------------------------------------------------------
      C    1   -0.30565      0.99964     2.29997    0.00603     3.30565
      C    2    0.07261      0.99956     1.91152    0.01632     2.92739
      C    3   -0.22694      0.99957     2.21745    0.00993     3.22694
      C    4    0.18658      0.99962     1.79462    0.01919     2.81342
      N    5   -0.26595      0.99969     2.75705    0.00920     3.76595
      C    6   -0.03306      0.99950     2.02109    0.01247     3.03306
      C    7    0.04867      0.99953     1.93938    0.01242     2.95133
      N    8   -0.27126      0.99962     2.76283    0.00881     3.77126
      C    9   -0.09722      0.99959     2.08857    0.00907     3.09722
      N   10   -0.33542      0.99973     2.82306    0.01262     3.83542
      C   11   -0.01664      0.99958     2.00203    0.01504     3.01664
      C   12   -0.21048      0.99963     2.20391    0.00695     3.21048
      C   13   -0.19823      0.99962     2.18994    0.00867     3.19823
      O   14   -0.30440      0.99988     3.29511    0.00940     4.30440
      C   15   -0.10716      0.99959     2.09929    0.00827     3.10716
      H   16    0.10053      0.00000     0.39805    0.00142     0.39947
      H   17    0.10337      0.00000     0.39566    0.00097     0.39663
      H   18    0.10622      0.00000     0.39177    0.00202     0.39378
      H   19    0.09030      0.00000     0.40806    0.00163     0.40970
      H   20    0.11561      0.00000     0.38316    0.00123     0.38439
      H   21    0.11045      0.00000     0.38777    0.00178     0.38955
      H   22    0.09567      0.00000     0.40328    0.00105     0.40433
      H   23    0.21406      0.00000     0.28170    0.00424     0.28594
      H   24    0.09868      0.00000     0.39926    0.00206     0.40132
      H   25    0.09067      0.00000     0.40734    0.00199     0.40933
      H   26    0.17250      0.00000     0.32329    0.00421     0.32750
      H   27    0.10026      0.00000     0.39777    0.00196     0.39974
      H   28    0.10346      0.00000     0.39481    0.00173     0.39654
      H   29    0.10037      0.00000     0.39829    0.00134     0.39963
      H   30    0.10059      0.00000     0.39816    0.00125     0.39941
      H   31    0.10478      0.00000     0.39383    0.00139     0.39522
      H   32    0.09572      0.00000     0.40264    0.00163     0.40428
      H   33    0.07715      0.00000     0.42161    0.00124     0.42285
      H   34    0.08417      0.00000     0.41496    0.00087     0.41583
 =======================================================================
   * Total *   -0.00000     14.99436    41.80725    0.19839    57.00000

 Normal termination of Gaussian 16 at Thu Dec 10 17:40:41 2020.
