 Gaussian 16, Revision A.03,

 -----------------------------------------------------------
 # opt freq B3LYP/6-31G(d) empiricaldispersion=gd3bj scf=xqc
 -----------------------------------------------------------

 -------------------------------
 CID_153463792_JID_4896_neutraal
 -------------------------------
 Symbolic Z-matrix:
 Charge =  0 Multiplicity = 1

 SCF Done:  E(RB3LYP) =  -581.513615479     A.U. after   13 cycles
 SCF Done:  E(RB3LYP) =  -581.515877519     A.U. after   11 cycles
 SCF Done:  E(RB3LYP) =  -581.516468913     A.U. after   11 cycles
 SCF Done:  E(RB3LYP) =  -581.517088263     A.U. after   11 cycles
 SCF Done:  E(RB3LYP) =  -581.517358841     A.U. after   11 cycles
 SCF Done:  E(RB3LYP) =  -581.517552778     A.U. after   11 cycles
 SCF Done:  E(RB3LYP) =  -581.517593362     A.U. after    9 cycles
 SCF Done:  E(RB3LYP) =  -581.517609833     A.U. after    9 cycles
 SCF Done:  E(RB3LYP) =  -581.517611034     A.U. after    8 cycles
 SCF Done:  E(RB3LYP) =  -581.517611133     A.U. after    7 cycles
 Optimization completed.
    -- Stationary point found.
 Normal termination of Gaussian 16 at Thu Dec 10 10:48:23 2020.

 --------------------------------------------------------------------
 #N Geom=AllCheck Guess=TCheck SCRF=Check GenChk RB3LYP/6-31G(d) Freq
 --------------------------------------------------------------------

 Structure from the checkpoint file:  "JID_4896.chk"
 -------------------------------
 CID_153463792_JID_4896_neutraal
 -------------------------------
 Charge =  0 Multiplicity = 1

 SCF Done:  E(RB3LYP) =  -581.517611133     A.U. after    1 cycles

  Exact polarizability: 163.688   2.246 145.657  -0.397  -5.128  92.130
 Approx polarizability: 230.241   3.775 227.215  -1.869 -10.955 139.856

                      1                      2                      3
                      A                      A                      A
 Frequencies --     56.3303                79.9765                91.6737
 Red. masses --      2.9716                 2.7041                 3.3772
 Frc consts  --      0.0056                 0.0102                 0.0167
 IR Inten    --      0.3002                 0.1525                 0.8626

                      4                      5                      6
                      A                      A                      A
 Frequencies --    150.1378               186.3032               195.6503
 Red. masses --      3.0585                 3.2093                 2.9946
 Frc consts  --      0.0406                 0.0656                 0.0675
 IR Inten    --      0.0247                 1.4904                 0.0411

                      7                      8                      9
                      A                      A                      A
 Frequencies --    237.0925               250.8678               272.9337
 Red. masses --      1.1336                 1.1759                 2.0696
 Frc consts  --      0.0375                 0.0436                 0.0908
 IR Inten    --      0.1260                 1.1312                 9.7523

                     10                     11                     12
                      A                      A                      A
 Frequencies --    288.6738               306.2125               331.2145
 Red. masses --      1.5903                 2.3223                 1.7948
 Frc consts  --      0.0781                 0.1283                 0.1160
 IR Inten    --     34.8197                 2.3209                85.1130

                     13                     14                     15
                      A                      A                      A
 Frequencies --    352.9280               409.0849               425.4037
 Red. masses --      2.7325                 3.5256                 4.0738
 Frc consts  --      0.2005                 0.3476                 0.4344
 IR Inten    --      0.6478                 3.1650                 1.1465

                     16                     17                     18
                      A                      A                      A
 Frequencies --    448.1792               474.1435               501.0292
 Red. masses --      2.8935                 3.4201                 3.5946
 Frc consts  --      0.3424                 0.4530                 0.5317
 IR Inten    --      8.1451                 3.5455                10.1317

                     19                     20                     21
                      A                      A                      A
 Frequencies --    533.6382               576.4535               599.7819
 Red. masses --      4.1445                 3.0093                 2.9920
 Frc consts  --      0.6954                 0.5892                 0.6342
 IR Inten    --      1.0565                 0.0829                 3.5795

                     22                     23                     24
                      A                      A                      A
 Frequencies --    618.3084               675.2040               770.3147
 Red. masses --      3.0569                 2.9325                 2.5946
 Frc consts  --      0.6886                 0.7877                 0.9071
 IR Inten    --      0.2870                 6.3230                 9.3668

                     25                     26                     27
                      A                      A                      A
 Frequencies --    796.8589               810.6474               842.9257
 Red. masses --      2.0881                 2.7364                 2.5918
 Frc consts  --      0.7812                 1.0595                 1.0850
 IR Inten    --      4.8155                12.4283                 5.7289

                     28                     29                     30
                      A                      A                      A
 Frequencies --    883.4874               907.5646               921.6496
 Red. masses --      1.6973                 1.7434                 1.4838
 Frc consts  --      0.7806                 0.8461                 0.7426
 IR Inten    --      4.4829                 2.4678                 0.6546

                     31                     32                     33
                      A                      A                      A
 Frequencies --    930.4896               940.5869               961.6813
 Red. masses --      2.5526                 1.1852                 2.6835
 Frc consts  --      1.3021                 0.6178                 1.4622
 IR Inten    --      2.2408                 1.3770                15.7577

                     34                     35                     36
                      A                      A                      A
 Frequencies --    971.9716               979.0810              1037.6577
 Red. masses --      1.3526                 1.3730                 2.4938
 Frc consts  --      0.7529                 0.7754                 1.5820
 IR Inten    --      0.3159                 0.2977                 4.3038

                     37                     38                     39
                      A                      A                      A
 Frequencies --   1048.3355              1076.5312              1082.7098
 Red. masses --      3.6991                 1.8877                 1.6730
 Frc consts  --      2.3952                 1.2889                 1.1555
 IR Inten    --     66.6147                11.2877                14.0002

                     40                     41                     42
                      A                      A                      A
 Frequencies --   1112.1757              1137.3777              1141.0284
 Red. masses --      2.1815                 2.1436                 1.8179
 Frc consts  --      1.5898                 1.6338                 1.3945
 IR Inten    --      8.2476                 2.7860                 0.6184

                     43                     44                     45
                      A                      A                      A
 Frequencies --   1167.9251              1197.3284              1203.7955
 Red. masses --      1.2539                 1.8444                 1.7700
 Frc consts  --      1.0077                 1.5579                 1.5112
 IR Inten    --      2.7708                 1.0293                 4.7861

                     46                     47                     48
                      A                      A                      A
 Frequencies --   1209.7100              1233.1232              1252.7362
 Red. masses --      1.4006                 1.6507                 1.9669
 Frc consts  --      1.2076                 1.4789                 1.8186
 IR Inten    --      2.9411                 4.1238                 1.1591

                     49                     50                     51
                      A                      A                      A
 Frequencies --   1273.9654              1281.7749              1308.1056
 Red. masses --      1.3725                 2.1703                 1.3295
 Frc consts  --      1.3124                 2.1008                 1.3403
 IR Inten    --      6.8443                 2.5985                 7.2484

                     52                     53                     54
                      A                      A                      A
 Frequencies --   1331.7182              1352.6488              1371.7079
 Red. masses --      3.3326                 1.3484                 1.3605
 Frc consts  --      3.4823                 1.4536                 1.5083
 IR Inten    --      1.9555                 2.9747                 1.3348

                     55                     56                     57
                      A                      A                      A
 Frequencies --   1380.4267              1393.6153              1401.1900
 Red. masses --      1.5904                 1.5420                 1.4795
 Frc consts  --      1.7856                 1.7645                 1.7114
 IR Inten    --      7.4894                 6.9737                 2.2594

                     58                     59                     60
                      A                      A                      A
 Frequencies --   1411.7767              1423.0276              1434.1473
 Red. masses --      1.5516                 1.2287                 1.2339
 Frc consts  --      1.8221                 1.4660                 1.4952
 IR Inten    --      3.9469                 8.6239                53.0096

                     61                     62                     63
                      A                      A                      A
 Frequencies --   1445.6264              1496.7708              1509.9015
 Red. masses --      1.2266                 2.0491                 1.5286
 Frc consts  --      1.5103                 2.7047                 2.0533
 IR Inten    --      4.2868                 0.9106                 8.5713

                     64                     65                     66
                      A                      A                      A
 Frequencies --   1515.7275              1516.3883              1521.2097
 Red. masses --      1.4323                 1.0932                 1.1535
 Frc consts  --      1.9388                 1.4810                 1.5727
 IR Inten    --      6.0811                 1.1325                 8.0841

                     67                     68                     69
                      A                      A                      A
 Frequencies --   1522.4203              1528.8481              1534.7574
 Red. masses --      1.0760                 1.1014                 1.0551
 Frc consts  --      1.4694                 1.5168                 1.4643
 IR Inten    --      2.4633                 2.6898                 4.1165

                     70                     71                     72
                      A                      A                      A
 Frequencies --   1538.9055              1641.3026              1654.7385
 Red. masses --      1.0893                 6.3941                 5.4298
 Frc consts  --      1.5199                10.1486                 8.7598
 IR Inten    --      7.0815                11.8306                 5.4830

                     73                     74                     75
                      A                      A                      A
 Frequencies --   3011.2153              3021.6908              3039.8832
 Red. masses --      1.0703                 1.0713                 1.0635
 Frc consts  --      5.7177                 5.7630                 5.7902
 IR Inten    --     24.3573                19.3643                25.5097

                     76                     77                     78
                      A                      A                      A
 Frequencies --   3044.5554              3048.8184              3049.6802
 Red. masses --      1.0352                 1.0398                 1.0777
 Frc consts  --      5.6533                 5.6943                 5.9057
 IR Inten    --     26.4456                41.4988                23.7180

                     79                     80                     81
                      A                      A                      A
 Frequencies --   3072.9638              3087.7039              3097.7184
 Red. masses --      1.0915                 1.1017                 1.0950
 Frc consts  --      6.0727                 6.1887                 6.1909
 IR Inten    --     38.3060                56.9618                48.0208

                     82                     83                     84
                      A                      A                      A
 Frequencies --   3105.3315              3108.2866              3117.2534
 Red. masses --      1.0989                 1.1011                 1.1024
 Frc consts  --      6.2432                 6.2678                 6.3117
 IR Inten    --     29.8807                 8.8932                34.0850

                     85                     86                     87
                      A                      A                      A
 Frequencies --   3130.3476              3142.3591              3173.0297
 Red. masses --      1.0997                 1.0891                 1.0865
 Frc consts  --      6.3489                 6.3362                 6.4448
 IR Inten    --     33.2089                34.7247                 5.9583

                     88                     89                     90
                      A                      A                      A
 Frequencies --   3188.0067              3203.8839              3726.4549
 Red. masses --      1.0893                 1.0959                 1.0660
 Frc consts  --      6.5228                 6.6276                 8.7216
 IR Inten    --     23.6931                31.2566                 9.5344

 - Thermochemistry -
 -------------------
 Temperature   298.150 Kelvin.  Pressure   1.00000 Atm.
 Atom     1 has atomic number  6 and mass  12.00000

 Molecular mass:   190.13577 amu.
 Principal axes and moments of inertia in atomic units:
                           1         2         3
     Eigenvalues --  1831.014792997.689314228.94412
           X            0.99998   0.00610  -0.00125
           Y           -0.00611   0.99998  -0.00349
           Z            0.00123   0.00350   0.99999
 This molecule is an asymmetric top.
 Rotational symmetry number  1.
 Warning -- assumption of classical behavior for rotation
           may cause significant error
 Rotational temperatures (Kelvin)      0.04730     0.02889     0.02048
 Rotational constants (GHZ):           0.98565     0.60204     0.42676
 Zero-point vibrational energy     746701.8 (Joules/Mol)
                                  178.46602 (Kcal/Mol)
 Warning -- explicit consideration of  22 degrees of freedom as
           vibrations may cause significant error
 Vibrational temperatures:     81.05   115.07   131.90   216.01   268.05
          (Kelvin)            281.50   341.12   360.94   392.69   415.34
                              440.57   476.54   507.78   588.58   612.06
                              644.83   682.19   720.87   767.79   829.39
                              862.95   889.61   971.47  1108.31  1146.50
                             1166.34  1212.78  1271.14  1305.78  1326.05
                             1338.77  1353.29  1383.64  1398.45  1408.68
                             1492.96  1508.32  1548.89  1557.78  1600.17
                             1636.43  1641.69  1680.38  1722.69  1731.99
                             1740.50  1774.19  1802.41  1832.95  1844.19
                             1882.07  1916.05  1946.16  1973.58  1986.13
                             2005.10  2016.00  2031.23  2047.42  2063.42
                             2079.93  2153.52  2172.41  2180.79  2181.74
                             2188.68  2190.42  2199.67  2208.17  2214.14
                             2361.47  2380.80  4332.47  4347.54  4373.71
                             4380.44  4386.57  4387.81  4421.31  4442.52
                             4456.93  4467.88  4472.13  4485.03  4503.87
                             4521.15  4565.28  4586.83  4609.67  5361.54

 Zero-point correction=                           0.284404 (Hartree/Particle)
 Thermal correction to Energy=                    0.297659
 Thermal correction to Enthalpy=                  0.298603
 Thermal correction to Gibbs Free Energy=         0.245442
 Sum of electronic and zero-point Energies=           -581.233207
 Sum of electronic and thermal Energies=              -581.219953
 Sum of electronic and thermal Enthalpies=            -581.219008
 Sum of electronic and thermal Free Energies=         -581.272169

                     E (Thermal)             CV                S
                      KCal/Mol        Cal/Mol-Kelvin    Cal/Mol-Kelvin
 Total                  186.784             52.894            111.885
 Electronic               0.000              0.000              0.000
 Translational            0.889              2.981             41.633
 Rotational               0.889              2.981             31.518
 Vibrational            185.006             46.932             38.734
 Vibration     1          0.596              1.975              4.582
 Vibration     2          0.600              1.963              3.891
 Vibration     3          0.602              1.955              3.624
 Vibration     4          0.618              1.903              2.670
 Vibration     5          0.632              1.859              2.264
 Vibration     6          0.636              1.846              2.174
 Vibration     7          0.656              1.784              1.825
 Vibration     8          0.663              1.761              1.724
 Vibration     9          0.676              1.723              1.578
 Vibration    10          0.685              1.695              1.482
 Vibration    11          0.697              1.662              1.383
 Vibration    12          0.714              1.613              1.254
 Vibration    13          0.729              1.569              1.153
 Vibration    14          0.773              1.450              0.930
 Vibration    15          0.787              1.415              0.874
 Vibration    16          0.807              1.365              0.801
 Vibration    17          0.831              1.307              0.726
 Vibration    18          0.856              1.248              0.656
 Vibration    19          0.889              1.176              0.579
 Vibration    20          0.933              1.082              0.492
 Vibration    21          0.958              1.032              0.450
 Vibration    22          0.978              0.993              0.419

 Optimization completed.
    -- Stationary point found.
 Normal termination of Gaussian 16 at Thu Dec 10 10:59:32 2020.

 ----------------------------------------------------------------------
 # B3LYP/6-311++G(d,p) empiricaldispersion=gd3bj scf=xqc pop=npa geom=c
 heck
 ----------------------------------------------------------------------

 ---------------------------------------
 CID_153463792_JID_4896_Energie_neutraal
 ---------------------------------------
 Structure from the checkpoint file:  "JID_4896.chk"
 Charge =  0 Multiplicity = 1

 SCF Done:  E(RB3LYP) =  -581.678564524     A.U. after   14 cycles
 Normal termination of Gaussian 16 at Thu Dec 10 11:04:25 2020.

 ----------------------------------------------------------------------
 # B3LYP/6-311++G(d,p) empiricaldispersion=gd3bj scf=xqc pop=npa geom=c
 heck
 ----------------------------------------------------------------------

 -------------------------------------
 CID_153463792_JID_4896_Energie_kation
 -------------------------------------
 Structure from the checkpoint file:  "JID_4896.chk"
 Charge =  1 Multiplicity = 2

 SCF Done:  E(UB3LYP) =  -581.368125545     A.U. after   33 cycles
 SCF Done:  E(UB3LYP) =  -581.372341057     a.u. after   17 cycles
 Normal termination of Gaussian 16 at Thu Dec 10 13:08:56 2020.
 Gaussian 16:  ES64L-G16RevA.03 25-Dec-2016

 ----------------------------------------------------------------------
 # B3LYP/6-311++G(d,p) empiricaldispersion=gd3bj scf=xqc pop=npa geom=c
 heck
 ----------------------------------------------------------------------

 ------------------------------------
 CID_153463792_JID_4896_Energie_anion
 ------------------------------------
 Structure from the checkpoint file:  "JID_4896.chk"
 Charge = -1 Multiplicity = 2

                         Standard orientation:
 ---------------------------------------------------------------------
 Center     Atomic      Atomic             Coordinates (Angstroms)
 Number     Number       Type             X           Y           Z
 ---------------------------------------------------------------------
      1          6           0       -3.044131   -0.249661    1.451147
      2          6           0       -2.134512   -0.662333    0.280607
      3          6           0       -2.954585   -0.908851   -0.996430
      4          6           0       -1.032797    0.366039    0.037450
      5          6           0       -1.405580    1.699912   -0.159519
      6          6           0       -0.454561    2.701860   -0.331040
      7          6           0        0.895539    2.378102   -0.279201
      8          6           0        1.306795    1.053443   -0.100142
      9          6           0        0.342567    0.030854    0.022053
     10          6           0        0.769485   -1.431012    0.148814
     11          6           0        2.281382   -1.654935    0.025943
     12          6           0        3.082306   -0.551775    0.710309
     13          6           0        2.793951    0.765969   -0.008226
     14          8           0        0.089041   -2.270883   -0.798151
     15          1           0       -3.610127    0.662345    1.231190
     16          1           0       -2.460662   -0.068425    2.360464
     17          1           0       -3.769467   -1.043931    1.662771
     18          1           0       -1.673796   -1.614442    0.544273
     19          1           0       -3.439676    0.011557   -1.342522
     20          1           0       -2.311002   -1.279384   -1.799635
     21          1           0       -3.736492   -1.655554   -0.814927
     22          1           0       -2.459685    1.961393   -0.167938
     23          1           0       -0.766673    3.732180   -0.479149
     24          1           0        1.648643    3.157279   -0.371920
     25          1           0        0.436962   -1.812370    1.122149
     26          1           0        2.540074   -1.665381   -1.043278
     27          1           0        2.521732   -2.649967    0.414711
     28          1           0        2.791860   -0.472170    1.766952
     29          1           0        4.154822   -0.776216    0.687628
     30          1           0        3.289892    1.605101    0.494049
     31          1           0        3.226760    0.718582   -1.019359
     32          1           0        0.229357   -1.869204   -1.670833
 ---------------------------------------------------------------------

 SCF Done:  E(UB3LYP) =  -581.662819485     A.U. after   33 cycles
 SCF Done:  E(UB3LYP) =  -581.662819485     a.u. after    1 cycles

 The electronic state is 2-A.
 Alpha  occ. eigenvalues --  -19.01702 -10.12106 -10.07614 -10.07537 -10.07261
 Alpha  occ. eigenvalues --  -10.07242 -10.06747 -10.06712 -10.06574 -10.06369
 Alpha  occ. eigenvalues --  -10.06271 -10.06186 -10.05855 -10.05661  -0.91976
 Alpha  occ. eigenvalues --   -0.76244  -0.71597  -0.69421  -0.64678  -0.63778
 Alpha  occ. eigenvalues --   -0.60432  -0.58342  -0.53135  -0.51691  -0.51047
 Alpha  occ. eigenvalues --   -0.46425  -0.44374  -0.41673  -0.37827  -0.37263
 Alpha  occ. eigenvalues --   -0.36875  -0.34419  -0.33845  -0.33715  -0.31994
 Alpha  occ. eigenvalues --   -0.31210  -0.30346  -0.29397  -0.28665  -0.28353
 Alpha  occ. eigenvalues --   -0.27646  -0.25615  -0.25008  -0.24598  -0.24006
 Alpha  occ. eigenvalues --   -0.23206  -0.22861  -0.21792  -0.20530  -0.17223
 Alpha  occ. eigenvalues --   -0.13997  -0.13574   0.04626
 Alpha virt. eigenvalues --    0.06551   0.07103   0.07549   0.08047   0.08619
 Alpha virt. eigenvalues --    0.08964   0.09145   0.09698   0.09700   0.10768
 Alpha virt. eigenvalues --    0.11206   0.11703   0.11936   0.12564   0.13003

  Beta  occ. eigenvalues --  -19.01674 -10.12100 -10.07595 -10.07529 -10.07239
  Beta  occ. eigenvalues --  -10.07233 -10.06725 -10.06672 -10.06553 -10.06367
  Beta  occ. eigenvalues --  -10.06257 -10.06158 -10.05828 -10.05645  -0.91912
  Beta  occ. eigenvalues --   -0.76195  -0.71560  -0.69384  -0.64627  -0.63713
  Beta  occ. eigenvalues --   -0.60384  -0.58297  -0.53085  -0.51643  -0.50971
  Beta  occ. eigenvalues --   -0.46361  -0.44318  -0.41626  -0.37788  -0.37218
  Beta  occ. eigenvalues --   -0.36824  -0.34374  -0.33805  -0.33672  -0.31951
  Beta  occ. eigenvalues --   -0.31169  -0.30288  -0.29364  -0.28640  -0.28300
  Beta  occ. eigenvalues --   -0.27615  -0.25571  -0.24950  -0.24554  -0.23965
  Beta  occ. eigenvalues --   -0.23149  -0.22826  -0.21757  -0.20488  -0.17179
  Beta  occ. eigenvalues --   -0.13846  -0.13493
  Beta virt. eigenvalues --    0.06670   0.07403   0.07656   0.08081   0.08449
  Beta virt. eigenvalues --    0.09085   0.09152   0.09536   0.09995   0.10063
  Beta virt. eigenvalues --    0.11228   0.11536   0.11968   0.12257   0.12756

 Mulliken charges and spin densities:
               1          2
     1  C    0.305265  -1.048139
     2  C   -1.100269   1.278203
     3  C    0.284468  -0.927807
     4  C   -0.477868   0.703178
     5  C   -0.498412   0.113191
     6  C    1.238409  -1.536816
     7  C   -0.307457  -0.003212
     8  C    0.434196  -0.064051
     9  C   -0.331648   0.838206
    10  C    0.896835  -1.757178
    11  C   -0.351133   0.233614
    12  C   -0.518601   0.224106
    13  C    1.466912  -1.812974
    14  O   -0.103356   0.014880
    15  H   -0.204969   0.350780
    16  H   -0.019795   0.157984
    17  H   -0.151724   0.288694
    18  H    0.148662   0.100787
    19  H   -0.063993   0.213885
    20  H   -0.103184   0.221418
    21  H   -0.025181   0.159850
    22  H    0.106947   0.002416
    23  H   -0.430387   0.587656
    24  H   -0.298283   0.440571
    25  H    0.044578   0.129172
    26  H   -0.258713   0.402145
    27  H   -0.189796   0.359158
    28  H    0.009767   0.110218
    29  H   -0.410792   0.590236
    30  H   -0.058981   0.207243
    31  H   -0.164105   0.331967
    32  H    0.132609   0.090618
 Sum of Mulliken charges =  -1.00000   1.00000

 Dipole moment (field-independent basis, Debye):
    X=             -1.4848    Y=             -0.0342    Z=              0.7048  Tot=              1.6440
 Quadrupole moment (field-independent basis, Debye-Ang):
   XX=           -153.5407   YY=           -134.9011   ZZ=           -117.3636
   XY=              2.2650   XZ=              3.4445   YZ=              0.1856

 Summary of Natural Population Analysis:

                                       Natural Population
                Natural  -----------------------------------------------
    Atom  No    Charge         Core      Valence    Rydberg      Total
 -----------------------------------------------------------------------
      C    1   -0.27819      0.99965     2.27389    0.00465     3.27819
      C    2   -0.12641      0.99957     2.11689    0.00994     3.12641
      C    3   -0.27524      0.99964     2.27082    0.00478     3.27524
      C    4    0.00414      0.99947     1.98331    0.01308     2.99586
      C    5   -0.10644      0.99951     2.09705    0.00988     3.10644
      C    6   -0.08757      0.99956     2.07839    0.00962     3.08757
      C    7   -0.10454      0.99951     2.09528    0.00975     3.10454
      C    8   -0.00429      0.99948     1.99429    0.01052     3.00429
      C    9   -0.03252      0.99942     2.02293    0.01017     3.03252
      C   10    0.05929      0.99952     1.92800    0.01319     2.94071
      C   11   -0.19540      0.99962     2.18624    0.00954     3.19540
      C   12   -0.18855      0.99963     2.18062    0.00830     3.18855
      C   13   -0.19459      0.99960     2.18616    0.00884     3.19459
      O   14   -0.37145      0.99990     3.36499    0.00656     4.37145
      H   15    0.09516      0.00000     0.40366    0.00118     0.40484
      H   16    0.10026      0.00000     0.39873    0.00102     0.39974
      H   17    0.09701      0.00000     0.40195    0.00104     0.40299
      H   18    0.10762      0.00000     0.39004    0.00233     0.39238
      H   19    0.09421      0.00000     0.40464    0.00115     0.40579
      H   20    0.10269      0.00000     0.39623    0.00109     0.39731
      H   21    0.09511      0.00000     0.40396    0.00093     0.40489
      H   22    0.09826      0.00000     0.40002    0.00172     0.40174
      H   23    0.09820      0.00000     0.40073    0.00107     0.40180
      H   24    0.09810      0.00000     0.40044    0.00146     0.40190
      H   25    0.08878      0.00000     0.40915    0.00208     0.41122
      H   26    0.09576      0.00000     0.40240    0.00184     0.40424
      H   27    0.10252      0.00000     0.39635    0.00113     0.39748
      H   28    0.09388      0.00000     0.40475    0.00137     0.40612
      H   29    0.10121      0.00000     0.39736    0.00143     0.39879
      H   30    0.10193      0.00000     0.39681    0.00126     0.39807
      H   31    0.10313      0.00000     0.39487    0.00199     0.39687
      H   32    0.22794      0.00000     0.26860    0.00346     0.27206
 =======================================================================
   * Total *   -0.00000     13.99408    37.84954    0.15638    52.00000

 Normal termination of Gaussian 16 at Thu Dec 10 13:22:41 2020.
