 Gaussian 16, Revision A.03,

 -----------------------------------------------------------
 # opt freq B3LYP/6-31G(d) empiricaldispersion=gd3bj scf=xqc
 -----------------------------------------------------------

 -------------------------------
 CID_151861720_JID_3440_neutraal
 -------------------------------
 Symbolic Z-matrix:
 Charge =  0 Multiplicity = 1

 SCF Done:  E(RB3LYP) =  -550.657552988     A.U. after   16 cycles
 SCF Done:  E(RB3LYP) =  -550.658516734     A.U. after   15 cycles
 SCF Done:  E(RB3LYP) =  -550.660452618     A.U. after   14 cycles
 SCF Done:  E(RB3LYP) =  -550.659733432     A.U. after   13 cycles
 SCF Done:  E(RB3LYP) =  -550.660531588     A.U. after   12 cycles
 SCF Done:  E(RB3LYP) =  -550.660602647     A.U. after   12 cycles
 SCF Done:  E(RB3LYP) =  -550.660603209     A.U. after    9 cycles
 SCF Done:  E(RB3LYP) =  -550.660605847     A.U. after    9 cycles
 SCF Done:  E(RB3LYP) =  -550.660607167     A.U. after    9 cycles
 SCF Done:  E(RB3LYP) =  -550.660615398     A.U. after   11 cycles
 SCF Done:  E(RB3LYP) =  -550.661897718     A.U. after    8 cycles
 SCF Done:  E(RB3LYP) =  -550.661897948     A.U. after   10 cycles
 SCF Done:  E(RB3LYP) =  -550.661898069     A.U. after   10 cycles
 SCF Done:  E(RB3LYP) =  -550.661898038     A.U. after    9 cycles
 SCF Done:  E(RB3LYP) =  -550.661898101     A.U. after    9 cycles
 Optimization completed.
    -- Stationary point found.

 1\1\GINC-NODE310\FOpt\RB3LYP\6-31G(d)\C10H9N3\VSC10255\09-Dec-2020\0\\
 # opt freq B3LYP/6-31G(d) empiricaldispersion=gd3bj scf=xqc\\CID_15186
 1720_JID_3440_neutraal\\0,1\C,1.1460381257,-0.0726187647,-0.0583207521
 \C,0.6709489313,0.3556743786,-1.424387475\C,0.235005893,-0.5970086085,
 -2.3561446772\C,-0.2098319138,-0.2372506155,-3.625316627\C,-0.22391100
 99,1.130178329,-3.9896233301\C,0.2138296902,2.0899643918,-3.054799554\
 C,0.6556991689,1.7007846362,-1.7865308663\N,0.1746312078,3.4388477203,
 -3.4816253328\N,0.5506374107,4.3104347244,-2.6898537758\N,0.8669527227

 Normal termination of Gaussian 16 at Wed Dec  9 23:23:15 2020.

 --------------------------------------------------------------------
 #N Geom=AllCheck Guess=TCheck SCRF=Check GenChk RB3LYP/6-31G(d) Freq
 --------------------------------------------------------------------

 Structure from the checkpoint file:  "JID_3440.chk"
 -------------------------------
 CID_151861720_JID_3440_neutraal
 -------------------------------
 Charge =  0 Multiplicity = 1

 SCF Done:  E(RB3LYP) =  -550.661898101     A.U. after    1 cycles

  Exact polarizability: 167.818   8.890 170.118  -0.000  -0.000  52.036
 Approx polarizability: 293.422  27.624 280.219  -0.001  -0.001  78.428

                      1                      2                      3
                      A                      A                      A
 Frequencies --     12.9402                60.0374                92.2842
 Red. masses --      1.0382                 5.7856                 4.6379
 Frc consts  --      0.0001                 0.0123                 0.0233
 IR Inten    --      0.2078                 0.0175                 0.4748

                      4                      5                      6
                      A                      A                      A
 Frequencies --    112.3574               122.5338               144.2836
 Red. masses --      7.0789                 1.0409                 4.5595
 Frc consts  --      0.0527                 0.0092                 0.0559
 IR Inten    --      0.1779                 0.5244                 0.8534

                      7                      8                      9
                      A                      A                      A
 Frequencies --    186.1789               233.9499               259.0893
 Red. masses --      3.3760                 3.7995                 4.5127
 Frc consts  --      0.0689                 0.1225                 0.1785
 IR Inten    --      1.0923                 0.4818                 0.2925

                     10                     11                     12
                      A                      A                      A
 Frequencies --    278.5923               299.3443               406.4101
 Red. masses --      2.6641                 5.0997                 6.6977
 Frc consts  --      0.1218                 0.2692                 0.6518
 IR Inten    --      1.2428                 1.0610                 0.2291

                     13                     14                     15
                      A                      A                      A
 Frequencies --    426.6216               474.9598               490.4093
 Red. masses --      4.8376                 5.6036                 6.4656
 Frc consts  --      0.5188                 0.7448                 0.9162
 IR Inten    --      0.7406                 0.0118                 0.0008

                     16                     17                     18
                      A                      A                      A
 Frequencies --    538.4746               551.8131               551.9847
 Red. masses --     10.9557                 4.6472                 1.6486
 Frc consts  --      1.8716                 0.8337                 0.2960
 IR Inten    --      6.8161                 4.3984                39.6056

                     19                     20                     21
                      A                      A                      A
 Frequencies --    566.6007               604.3879               622.7392
 Red. masses --      2.5541                 2.9227                 4.6408
 Frc consts  --      0.4831                 0.6290                 1.0604
 IR Inten    --     12.2305                 0.0001                 2.8120

                     22                     23                     24
                      A                      A                      A
 Frequencies --    639.1936               686.9385               761.0249
 Red. masses --      1.3100                 5.9236                 4.6767
 Frc consts  --      0.3154                 1.6469                 1.5958
 IR Inten    --     37.9616                 5.8737                 0.9868

                     25                     26                     27
                      A                      A                      A
 Frequencies --    773.8080               865.1495               886.0819
 Red. masses --      6.8820                 1.3442                 1.3362
 Frc consts  --      2.4279                 0.5928                 0.6181
 IR Inten    --     16.8160                20.4591                 0.0926

                     28                     29                     30
                      A                      A                      A
 Frequencies --    959.0304               996.8247              1043.5490
 Red. masses --      3.5228                 4.9702                 1.7404
 Frc consts  --      1.9090                 2.9098                 1.1167
 IR Inten    --      9.4499                 1.6266                12.3827

                     31                     32                     33
                      A                      A                      A
 Frequencies --   1056.2732              1073.4053              1077.1431
 Red. masses --      1.4901                 1.5155                 1.5076
 Frc consts  --      0.9795                 1.0288                 1.0306
 IR Inten    --      0.0695                 6.3551                 1.5250

                     34                     35                     36
                      A                      A                      A
 Frequencies --   1170.1417              1243.7914              1265.6474
 Red. masses --      2.8162                 2.2913                 2.4277
 Frc consts  --      2.2719                 2.0884                 2.2912
 IR Inten    --      5.0186                 5.6687                 0.4639

                     37                     38                     39
                      A                      A                      A
 Frequencies --   1301.9207              1346.8504              1391.3010
 Red. masses --      2.3946                 8.0205                 7.9676
 Frc consts  --      2.3914                 8.5721                 9.0870
 IR Inten    --     13.8929                 2.4410               150.9247

                     40                     41                     42
                      A                      A                      A
 Frequencies --   1442.5451              1446.0762              1465.5893
 Red. masses --      1.2424                 1.2635                 2.7337
 Frc consts  --      1.5232                 1.5567                 3.4596
 IR Inten    --      0.9875                 0.6648                38.8546

                     43                     44                     45
                      A                      A                      A
 Frequencies --   1499.8296              1509.0997              1513.7394
 Red. masses --      1.9786                 1.0437                 1.0441
 Frc consts  --      2.6223                 1.4004                 1.4096
 IR Inten    --      0.0543                 8.0958                 4.8763

                     46                     47                     48
                      A                      A                      A
 Frequencies --   1524.6619              1536.7878              1617.2597
 Red. masses --      1.1639                 1.5485                 6.2699
 Frc consts  --      1.5942                 2.1547                 9.6620
 IR Inten    --     28.9478                48.2942                71.4984

                     49                     50                     51
                      A                      A                      A
 Frequencies --   1663.3208              2225.2285              2265.8868
 Red. masses --      5.7026                 6.1732                13.9822
 Frc consts  --      9.2955                18.0099                42.2962
 IR Inten    --     32.6282                 2.7638               807.5894

                     52                     53                     54
                      A                      A                      A
 Frequencies --   3047.6719              3053.4110              3100.8349
 Red. masses --      1.0373                 1.0365                 1.1009
 Frc consts  --      5.6766                 5.6934                 6.2367
 IR Inten    --     29.2681                18.0971                16.6030

                     55                     56                     57
                      A                      A                      A
 Frequencies --   3108.1827              3131.8077              3137.1222
 Red. masses --      1.1003                 1.1013                 1.1026
 Frc consts  --      6.2632                 6.3640                 6.3935
 IR Inten    --     12.3637                14.7058                16.4647

                     58                     59                     60
                      A                      A                      A
 Frequencies --   3181.4951              3190.8242              3497.5103
 Red. masses --      1.0901                 1.0902                 1.1563
 Frc consts  --      6.5007                 6.5400                 8.3335
 IR Inten    --     16.8350                 5.5432                83.1274

 - Thermochemistry -
 -------------------
 Temperature   298.150 Kelvin.  Pressure   1.00000 Atm.
 Atom     1 has atomic number  6 and mass  12.00000

 Molecular mass:   171.07965 amu.
 Principal axes and moments of inertia in atomic units:
                           1         2         3
     Eigenvalues --  1965.243602352.438834295.38215
           X            0.99789   0.06499  -0.00000
           Y           -0.06499   0.99789  -0.00000
           Z            0.00000   0.00000   1.00000
 This molecule is an asymmetric top.
 Rotational symmetry number  1.
 Warning -- assumption of classical behavior for rotation
           may cause significant error
 Rotational temperatures (Kelvin)      0.04407     0.03682     0.02016
 Rotational constants (GHZ):           0.91833     0.76718     0.42016
 Zero-point vibrational energy     441021.0 (Joules/Mol)
                                  105.40655 (Kcal/Mol)
 Warning -- explicit consideration of  20 degrees of freedom as
           vibrations may cause significant error
 Vibrational temperatures:     18.62    86.38   132.78   161.66   176.30
          (Kelvin)            207.59   267.87   336.60   372.77   400.83
                              430.69   584.73   613.81   683.36   705.59
                              774.74   793.94   794.18   815.21   869.58
                              895.98   919.66   988.35  1094.95  1113.34
                             1244.76  1274.87  1379.83  1434.21  1501.43
                             1519.74  1544.39  1549.77  1683.57  1789.54
                             1820.98  1873.17  1937.82  2001.77  2075.50
                             2080.58  2108.66  2157.92  2171.26  2177.93
                             2193.65  2211.09  2326.88  2393.15  3201.61
                             3260.11  4384.92  4393.18  4461.41  4471.98
                             4505.97  4513.62  4577.46  4590.88  5032.14

 Zero-point correction=                           0.167976 (Hartree/Particle)
 Thermal correction to Energy=                    0.180769
 Thermal correction to Enthalpy=                  0.181713
 Thermal correction to Gibbs Free Energy=         0.127295
 Sum of electronic and zero-point Energies=           -550.493922
 Sum of electronic and thermal Energies=              -550.481129
 Sum of electronic and thermal Enthalpies=            -550.480185
 Sum of electronic and thermal Free Energies=         -550.534603

                     E (Thermal)             CV                S
                      KCal/Mol        Cal/Mol-Kelvin    Cal/Mol-Kelvin
 Total                  113.434             46.447            114.533
 Electronic               0.000              0.000              0.000
 Translational            0.889              2.981             41.319
 Rotational               0.889              2.981             31.363
 Vibrational            111.657             40.486             41.852
 Vibration     1          0.593              1.987              7.499
 Vibration     2          0.597              1.973              4.456
 Vibration     3          0.602              1.955              3.611
 Vibration     4          0.607              1.939              3.228
 Vibration     5          0.610              1.930              3.060
 Vibration     6          0.616              1.909              2.746
 Vibration     7          0.632              1.859              2.266
 Vibration     8          0.654              1.789              1.848
 Vibration     9          0.668              1.747              1.668
 Vibration    10          0.679              1.713              1.542
 Vibration    11          0.692              1.675              1.421
 Vibration    12          0.771              1.456              0.939
 Vibration    13          0.788              1.412              0.870
 Vibration    14          0.832              1.306              0.724
 Vibration    15          0.846              1.271              0.683
 Vibration    16          0.894              1.165              0.569
 Vibration    17          0.907              1.136              0.540
 Vibration    18          0.907              1.135              0.540
 Vibration    19          0.923              1.104              0.511
 Vibration    20          0.963              1.022              0.442

 Optimization completed.
    -- Stationary point found.

 1\1\GINC-NODE310\Freq\RB3LYP\6-31G(d)\C10H9N3\VSC10255\09-Dec-2020\0\\
 #N Geom=AllCheck Guess=TCheck SCRF=Check GenChk RB3LYP/6-31G(d) Freq\\
 CID_151861720_JID_3440_neutraal\\0,1\C,1.1460381257,-0.0726187647,-0.0
 583207521\C,0.6709489313,0.3556743786,-1.424387475\C,0.235005893,-0.59
 70086085,-2.3561446772\C,-0.2098319138,-0.2372506155,-3.625316627\C,-0
 .2239110099,1.130178329,-3.9896233301\C,0.2138296902,2.0899643918,-3.0
 54799554\C,0.6556991689,1.7007846362,-1.7865308663\N,0.1746312078,3.43
 88477203,-3.4816253328\N,0.5506374107,4.3104347244,-2.6898537758\N,0.8

 Normal termination of Gaussian 16 at Wed Dec  9 23:27:49 2020.

 ----------------------------------------------------------------------
 # B3LYP/6-311++G(d,p) empiricaldispersion=gd3bj scf=xqc pop=npa geom=c
 heck
 ----------------------------------------------------------------------

 ---------------------------------------
 CID_151861720_JID_3440_Energie_neutraal
 ---------------------------------------
 Structure from the checkpoint file:  "JID_3440.chk"
 Charge =  0 Multiplicity = 1

 SCF Done:  E(RB3LYP) =  -550.806595557     A.U. after   18 cycles
 Normal termination of Gaussian 16 at Wed Dec  9 23:29:41 2020.

 ----------------------------------------------------------------------
 # B3LYP/6-311++G(d,p) empiricaldispersion=gd3bj scf=xqc pop=npa geom=c
 heck
 ----------------------------------------------------------------------

 -------------------------------------
 CID_151861720_JID_3440_Energie_kation
 -------------------------------------
 Structure from the checkpoint file:  "JID_3440.chk"
 Charge =  1 Multiplicity = 2

 SCF Done:  E(UB3LYP) =  -550.514509181     A.U. after   28 cycles
 Normal termination of Gaussian 16 at Wed Dec  9 23:33:32 2020.
 Gaussian 16:  ES64L-G16RevA.03 25-Dec-2016

 ------------------------------------
 CID_151861720_JID_3440_Energie_anion
 ------------------------------------
 Structure from the checkpoint file:  "JID_3440.chk"
 Charge = -1 Multiplicity = 2

                         Standard orientation:
 ---------------------------------------------------------------------
 Center     Atomic      Atomic             Coordinates (Angstroms)
 Number     Number       Type             X           Y           Z
 ---------------------------------------------------------------------
      1          6           0       -0.209428    3.507703   -0.000018
      2          6           0       -0.343598    2.005277    0.000002
      3          6           0       -1.610661    1.404965    0.000007
      4          6           0       -1.771352    0.022112    0.000010
      5          6           0       -0.623658   -0.805885   -0.000007
      6          6           0        0.651323   -0.204948   -0.000006
      7          6           0        0.783876    1.187045    0.000005
      8          7           0        1.756862   -1.088681    0.000026
      9          7           0        2.892142   -0.599716    0.000005
     10          7           0        3.989188   -0.285009   -0.000002
     11          6           0       -0.758971   -2.223354   -0.000029
     12          6           0       -0.920418   -3.422309   -0.000012
     13          6           0       -3.142782   -0.599741    0.000015
     14          1           0       -0.690475    3.947397   -0.881999
     15          1           0        0.839814    3.817017    0.000019
     16          1           0       -0.690571    3.947455    0.881877
     17          1           0       -2.495784    2.036421    0.000022
     18          1           0        1.774221    1.633973    0.000035
     19          1           0       -1.038069   -4.481709   -0.000031
     20          1           0       -3.921809    0.167607    0.000124
     21          1           0       -3.285370   -1.239686   -0.878233
     22          1           0       -3.285286   -1.239832    0.878175
 ---------------------------------------------------------------------

 SCF Done:  E(UB3LYP) =  -550.804209642     A.U. after   33 cycles
 SCF Done:  E(UB3LYP) =  -550.804209642     a.u. after    1 cycles

 The electronic state is 2-A.
 Alpha  occ. eigenvalues --  -14.32248 -14.23010 -14.22126 -10.06041 -10.04728
 Alpha  occ. eigenvalues --  -10.04603 -10.04234 -10.03110 -10.02894 -10.02798
 Alpha  occ. eigenvalues --  -10.02594 -10.01573 -10.01013  -0.99505  -0.84073
 Alpha  occ. eigenvalues --   -0.72321  -0.65890  -0.63743  -0.60322  -0.56343
 Alpha  occ. eigenvalues --   -0.55196  -0.50997  -0.45320  -0.40936  -0.38908
 Alpha  occ. eigenvalues --   -0.37188  -0.37129  -0.35788  -0.33332  -0.31190
 Alpha  occ. eigenvalues --   -0.30181  -0.29201  -0.29135  -0.28394  -0.27296
 Alpha  occ. eigenvalues --   -0.25287  -0.23492  -0.22712  -0.21351  -0.16583
 Alpha  occ. eigenvalues --   -0.16524  -0.16074  -0.13100  -0.09725  -0.07741
 Alpha  occ. eigenvalues --    0.05804
 Alpha virt. eigenvalues --    0.08289   0.09185   0.09985   0.10558   0.10923
 Alpha virt. eigenvalues --    0.11444   0.11502   0.12389   0.13401   0.13499
 Alpha virt. eigenvalues --    0.14771   0.15534   0.15766   0.16590   0.16774

  Beta  occ. eigenvalues --  -14.31902 -14.22667 -14.22305 -10.05672 -10.04751
  Beta  occ. eigenvalues --  -10.04661 -10.04233 -10.03013 -10.02826 -10.02621
  Beta  occ. eigenvalues --  -10.02539 -10.01446 -10.00814  -0.98957  -0.83881
  Beta  occ. eigenvalues --   -0.71956  -0.65534  -0.63391  -0.60059  -0.56173
  Beta  occ. eigenvalues --   -0.55026  -0.50582  -0.45026  -0.40712  -0.38650
  Beta  occ. eigenvalues --   -0.36927  -0.35722  -0.35603  -0.33035  -0.30540
  Beta  occ. eigenvalues --   -0.29863  -0.29085  -0.28944  -0.28323  -0.27251
  Beta  occ. eigenvalues --   -0.25168  -0.22581  -0.22323  -0.21252  -0.16603
  Beta  occ. eigenvalues --   -0.15498  -0.15193  -0.12987  -0.09146  -0.06120
  Beta virt. eigenvalues --    0.08234   0.09128   0.09914   0.10710   0.10875
  Beta virt. eigenvalues --    0.11393   0.11750   0.12183   0.12304   0.13402
  Beta virt. eigenvalues --    0.13475   0.14720   0.15476   0.16469   0.16569

 Mulliken charges and spin densities:
               1          2
     1  C   -0.438473  -0.042468
     2  C    0.795480   0.133475
     3  C   -1.694285   0.196075
     4  C   -0.588445  -0.063540
     5  C    0.719918   0.164653
     6  C   -1.239163   0.234549
     7  C    0.273987  -0.101413
     8  N   -0.143800  -0.065451
     9  N    0.673965   0.092931
    10  N   -0.413253   0.186190
    11  C    1.315653  -0.085390
    12  C   -0.670347   0.253927
    13  C   -0.588448   0.020167
    14  H    0.090513   0.048453
    15  H    0.125460  -0.000009
    16  H    0.090567   0.048387
    17  H    0.059810  -0.014281
    18  H    0.115788   0.006404
    19  H    0.118903  -0.010568
    20  H    0.125798  -0.000982
    21  H    0.135187  -0.000554
    22  H    0.135187  -0.000554
 Sum of Mulliken charges =  -1.00000   1.00000

 Dipole moment (field-independent basis, Debye):
    X=             -2.5480    Y=              2.2175    Z=              0.0002  Tot=              3.3778
 Quadrupole moment (field-independent basis, Debye-Ang):
   XX=           -110.1382   YY=           -100.3100   ZZ=            -86.3813
   XY=              1.6690   XZ=             -0.0003   YZ=              0.0011

 Summary of Natural Population Analysis:

                                       Natural Population
                Natural  -----------------------------------------------
    Atom  No    Charge         Core      Valence    Rydberg      Total
 -----------------------------------------------------------------------
      C    1   -0.29066      0.99964     2.28639    0.00463     3.29066
      C    2    0.03259      0.99953     1.95855    0.00933     2.96741
      C    3   -0.10217      0.99947     2.09249    0.01020     3.10217
      C    4    0.00059      0.99950     1.99146    0.00845     2.99941
      C    5   -0.06830      0.99942     2.05263    0.01625     3.06830
      C    6    0.20831      0.99941     1.77939    0.01289     2.79169
      C    7   -0.17299      0.99954     2.15873    0.01472     3.17299
      N    8   -0.20991      0.99967     2.69116    0.01908     3.70991
      N    9    0.15126      0.99971     2.33169    0.01734     3.34874
      N   10   -0.02246      0.99982     2.50934    0.01330     3.52246
      C   11   -0.00423      0.99939     1.99565    0.00919     3.00423
      C   12   -0.10246      0.99921     2.09891    0.00433     3.10246
      C   13   -0.29045      0.99964     2.28619    0.00463     3.29045
      H   14    0.09895      0.00000     0.39989    0.00116     0.40105
      H   15    0.09585      0.00000     0.40339    0.00076     0.40415
      H   16    0.09895      0.00000     0.39990    0.00116     0.40105
      H   17    0.08747      0.00000     0.41140    0.00112     0.41253
      H   18    0.09498      0.00000     0.40346    0.00156     0.40502
      H   19    0.09944      0.00000     0.39961    0.00094     0.40056
      H   20    0.09346      0.00000     0.40565    0.00089     0.40654
      H   21    0.10318      0.00000     0.39580    0.00102     0.39682
      H   22    0.10318      0.00000     0.39580    0.00102     0.39682
 =======================================================================
   * Total *    0.00458     12.99396    31.84750    0.15396    44.99542

 Normal termination of Gaussian 16 at Wed Dec  9 23:38:05 2020.
