 Gaussian 16, Revision A.03,

 -----------------------------------------------------------
 # opt freq B3LYP/6-31G(d) empiricaldispersion=gd3bj scf=xqc
 -----------------------------------------------------------

 ------------------------------
 CID_44890860_JID_5676_neutraal
 ------------------------------
 Symbolic Z-matrix:
 Charge =  0 Multiplicity = 1

 SCF Done:  E(RB3LYP) =  -636.829021701     A.U. after   13 cycles
 SCF Done:  E(RB3LYP) =  -636.832316812     A.U. after   12 cycles
 SCF Done:  E(RB3LYP) =  -636.831517201     A.U. after   12 cycles
 SCF Done:  E(RB3LYP) =  -636.832114502     A.U. after   12 cycles
 SCF Done:  E(RB3LYP) =  -636.832758824     A.U. after    8 cycles
 SCF Done:  E(RB3LYP) =  -636.833233850     A.U. after   12 cycles
 SCF Done:  E(RB3LYP) =  -636.833641962     A.U. after   12 cycles
 SCF Done:  E(RB3LYP) =  -636.833972523     A.U. after   12 cycles
 SCF Done:  E(RB3LYP) =  -636.834365095     A.U. after   11 cycles
 SCF Done:  E(RB3LYP) =  -636.835431466     A.U. after   12 cycles
 SCF Done:  E(RB3LYP) =  -636.837369915     A.U. after    9 cycles
 SCF Done:  E(RB3LYP) =  -636.837371272     A.U. after    8 cycles
 SCF Done:  E(RB3LYP) =  -636.837372911     A.U. after    9 cycles
 SCF Done:  E(RB3LYP) =  -636.837373588     A.U. after    9 cycles
 SCF Done:  E(RB3LYP) =  -636.837373669     A.U. after    7 cycles
 Optimization completed.
    -- Stationary point found.
 Normal termination of Gaussian 16 at Thu Dec 10 16:50:11 2020.

 --------------------------------------------------------------------
 #N Geom=AllCheck Guess=TCheck SCRF=Check GenChk RB3LYP/6-31G(d) Freq
 --------------------------------------------------------------------

 Structure from the checkpoint file:  "JID_5676.chk"
 ------------------------------
 CID_44890860_JID_5676_neutraal
 ------------------------------
 Charge =  0 Multiplicity = 1

 SCF Done:  E(RB3LYP) =  -636.837373669     A.U. after    1 cycles

  Exact polarizability: 189.987   4.471 136.750  11.012 -11.399  97.354
 Approx polarizability: 240.597   6.453 224.224  20.056 -23.998 152.175

                      1                      2                      3
                      A                      A                      A
 Frequencies --     32.0947                41.6838                47.6551
 Red. masses --      3.4633                 2.7086                 2.5434
 Frc consts  --      0.0021                 0.0028                 0.0034
 IR Inten    --      0.0217                 0.2826                 0.1751

                      4                      5                      6
                      A                      A                      A
 Frequencies --     78.1304               104.2670               136.6629
 Red. masses --      3.5955                 3.1260                 3.3288
 Frc consts  --      0.0129                 0.0200                 0.0366
 IR Inten    --      0.4972                 0.5932                 1.5731

                      7                      8                      9
                      A                      A                      A
 Frequencies --    161.9922               197.4114               218.6411
 Red. masses --      4.7038                 4.9174                 2.1822
 Frc consts  --      0.0727                 0.1129                 0.0615
 IR Inten    --      0.9563                 6.5305                10.6062

                     10                     11                     12
                      A                      A                      A
 Frequencies --    247.7372               284.9590               299.2057
 Red. masses --      2.6310                 2.3042                 1.9175
 Frc consts  --      0.0951                 0.1102                 0.1011
 IR Inten    --      1.5168                11.0384                54.2741

                     13                     14                     15
                      A                      A                      A
 Frequencies --    309.9299               359.1293               370.0712
 Red. masses --      2.4593                 2.8768                 1.8940
 Frc consts  --      0.1392                 0.2186                 0.1528
 IR Inten    --     15.3447                18.5534                 1.9106

                     16                     17                     18
                      A                      A                      A
 Frequencies --    418.5609               532.3159               555.9695
 Red. masses --      3.0334                 3.7857                 3.4220
 Frc consts  --      0.3131                 0.6320                 0.6232
 IR Inten    --      0.4175                 8.3252                 8.4306

                     19                     20                     21
                      A                      A                      A
 Frequencies --    609.1589               634.3033               660.4929
 Red. masses --      2.0002                 5.6370                 3.1488
 Frc consts  --      0.4373                 1.3363                 0.8093
 IR Inten    --      1.2535                 0.2426                 3.0783

                     22                     23                     24
                      A                      A                      A
 Frequencies --    675.5464               721.1182               770.0951
 Red. masses --      4.2555                 1.7647                 2.2715
 Frc consts  --      1.1442                 0.5407                 0.7937
 IR Inten    --      1.4124                26.8420                10.9704

                     25                     26                     27
                      A                      A                      A
 Frequencies --    787.8810               832.1531               841.8183
 Red. masses --      2.8302                 1.3303                 2.9890
 Frc consts  --      1.0351                 0.5428                 1.2480
 IR Inten    --      6.7631                 0.5943                 4.4650

                     28                     29                     30
                      A                      A                      A
 Frequencies --    867.9579               869.4410               907.4382
 Red. masses --      1.3987                 2.2364                 1.8942
 Frc consts  --      0.6208                 0.9961                 0.9190
 IR Inten    --      2.5188                 9.3951                 4.3078

                     31                     32                     33
                      A                      A                      A
 Frequencies --    918.7468               932.8338               943.9056
 Red. masses --      2.6432                 1.4109                 2.1399
 Frc consts  --      1.3145                 0.7233                 1.1233
 IR Inten    --      1.0060                 0.3930                11.0440

                     34                     35                     36
                      A                      A                      A
 Frequencies --    976.3795               978.7714               997.5896
 Red. masses --      1.3832                 1.6982                 1.4070
 Frc consts  --      0.7769                 0.9585                 0.8250
 IR Inten    --      4.1785                14.3475                 6.3466

                     37                     38                     39
                      A                      A                      A
 Frequencies --   1003.8761              1007.9064              1022.4759
 Red. masses --      1.4679                 1.6938                 5.9862
 Frc consts  --      0.8716                 1.0138                 3.6873
 IR Inten    --      4.6360                 8.6152                 0.1913

                     40                     41                     42
                      A                      A                      A
 Frequencies --   1050.4262              1058.4664              1065.1965
 Red. masses --      2.1015                 2.6632                 2.0968
 Frc consts  --      1.3662                 1.7580                 1.4018
 IR Inten    --      3.7542                17.8962                 7.3353

                     43                     44                     45
                      A                      A                      A
 Frequencies --   1109.9857              1123.4385              1148.7348
 Red. masses --      2.1330                 2.4600                 1.6261
 Frc consts  --      1.5484                 1.8293                 1.2642
 IR Inten    --      5.3416                17.5930                 5.0871

                     46                     47                     48
                      A                      A                      A
 Frequencies --   1166.3590              1191.3942              1193.3488
 Red. masses --      1.6406                 1.7069                 1.0981
 Frc consts  --      1.3150                 1.4275                 0.9214
 IR Inten    --     77.2912                33.1754                 0.8878

                     49                     50                     51
                      A                      A                      A
 Frequencies --   1212.9619              1218.7257              1218.9234
 Red. masses --      1.3561                 1.6710                 1.1607
 Frc consts  --      1.1755                 1.4623                 1.0161
 IR Inten    --      7.6439                 0.6176                 1.9139

                     52                     53                     54
                      A                      A                      A
 Frequencies --   1243.6440              1262.3571              1265.6790
 Red. masses --      1.3127                 1.4485                 1.5207
 Frc consts  --      1.1962                 1.3599                 1.4353
 IR Inten    --      0.7519                 7.1928                19.5549

                     55                     56                     57
                      A                      A                      A
 Frequencies --   1294.1138              1313.5944              1321.1037
 Red. masses --      1.7206                 1.8745                 1.5741
 Frc consts  --      1.6977                 1.9057                 1.6186
 IR Inten    --     31.1409                 8.5203                15.3066

                     58                     59                     60
                      A                      A                      A
 Frequencies --   1337.3412              1354.7893              1362.7805
 Red. masses --      1.3669                 1.3695                 1.8254
 Frc consts  --      1.4404                 1.4810                 1.9973
 IR Inten    --      0.3945                 4.0272                 3.3923

                     61                     62                     63
                      A                      A                      A
 Frequencies --   1370.6915              1380.4967              1407.4587
 Red. masses --      1.6473                 1.2892                 1.3101
 Frc consts  --      1.8235                 1.4476                 1.5291
 IR Inten    --      1.2429                 3.2462                54.7983

                     64                     65                     66
                      A                      A                      A
 Frequencies --   1411.3933              1420.7878              1434.4479
 Red. masses --      1.4255                 1.3987                 1.4730
 Frc consts  --      1.6730                 1.6635                 1.7857
 IR Inten    --      6.4101                 5.9756                17.1715

                     67                     68                     69
                      A                      A                      A
 Frequencies --   1439.9354              1504.4104              1508.2935
 Red. masses --      1.2456                 2.1555                 1.0916
 Frc consts  --      1.5217                 2.8743                 1.4632
 IR Inten    --     33.0637                 3.7170                 4.2142

                     70                     71                     72
                      A                      A                      A
 Frequencies --   1516.5808              1527.9512              1531.7354
 Red. masses --      1.0921                 1.0994                 1.0977
 Frc consts  --      1.4799                 1.5123                 1.5175
 IR Inten    --      1.6779                 5.2817                 3.0645

                     73                     74                     75
                      A                      A                      A
 Frequencies --   1547.8897              1554.9762              1572.4438
 Red. masses --      2.1298                 1.0888                 1.0984
 Frc consts  --      3.0066                 1.5511                 1.6002
 IR Inten    --     20.1961                 4.5281                 4.8567

                     76                     77                     78
                      A                      A                      A
 Frequencies --   1643.2048              1667.3293              2899.0697
 Red. masses --      5.4427                 5.5173                 1.0721
 Frc consts  --      8.6586                 9.0369                 5.3091
 IR Inten    --      1.4047                 9.5632               106.4607

                     79                     80                     81
                      A                      A                      A
 Frequencies --   2969.5780              3014.0292              3026.8501
 Red. masses --      1.0736                 1.0714                 1.0873
 Frc consts  --      5.5781                 5.7343                 5.8692
 IR Inten    --     63.0876                42.8890                42.6481

                     82                     83                     84
                      A                      A                      A
 Frequencies --   3029.8528              3035.1784              3050.7753
 Red. masses --      1.0655                 1.0812                 1.0848
 Frc consts  --      5.7628                 5.8687                 5.9489
 IR Inten    --     56.8235                35.7161                29.4549

                     85                     86                     87
                      A                      A                      A
 Frequencies --   3070.2615              3076.7797              3080.2044
 Red. masses --      1.0642                 1.0641                 1.1005
 Frc consts  --      5.9103                 5.9353                 6.1516
 IR Inten    --     35.5628                37.6919                31.7449

                     88                     89                     90
                      A                      A                      A
 Frequencies --   3111.7225              3114.5624              3128.0530
 Red. masses --      1.0948                 1.1006                 1.1070
 Frc consts  --      6.2459                 6.2903                 6.3820
 IR Inten    --     37.8813                25.8665                48.4254

                     91                     92                     93
                      A                      A                      A
 Frequencies --   3167.8816              3181.2736              3191.8125
 Red. masses --      1.0868                 1.0867                 1.0919
 Frc consts  --      6.4260                 6.4796                 6.5542
 IR Inten    --     12.0343                 0.9611                35.9771

                     94                     95                     96
                      A                      A                      A
 Frequencies --   3205.6468              3226.2203              3766.4295
 Red. masses --      1.0967                 1.0926                 1.0653
 Frc consts  --      6.6403                 6.7005                 8.9041
 IR Inten    --     32.1235                 4.3319                30.0509

 - Thermochemistry -
 -------------------
 Temperature   298.150 Kelvin.  Pressure   1.00000 Atm.
 Atom     1 has atomic number  6 and mass  12.00000

 Molecular mass:   205.14666 amu.
 Principal axes and moments of inertia in atomic units:
                           1         2         3
     Eigenvalues --  1274.893506038.357076702.00274
           X            1.00000  -0.00072   0.00227
           Y            0.00078   0.99967  -0.02560
           Z           -0.00225   0.02560   0.99967
 This molecule is an asymmetric top.
 Rotational symmetry number  1.
 Warning -- assumption of classical behavior for rotation
           may cause significant error
 Rotational temperatures (Kelvin)      0.06794     0.01434     0.01292
 Rotational constants (GHZ):           1.41560     0.29888     0.26928
 Zero-point vibrational energy     793458.4 (Joules/Mol)
                                  189.64110 (Kcal/Mol)
 Warning -- explicit consideration of  19 degrees of freedom as
           vibrations may cause significant error
 Vibrational temperatures:     46.18    59.97    68.57   112.41   150.02
          (Kelvin)            196.63   233.07   284.03   314.58   356.44
                              409.99   430.49   445.92   516.71   532.45
                              602.22   765.88   799.92   876.44   912.62
                              950.30   971.96  1037.53  1108.00  1133.58
                             1197.28  1211.19  1248.80  1250.93  1305.60
                             1321.87  1342.14  1358.07  1404.79  1408.23
                             1435.31  1444.35  1450.15  1471.11  1511.33
                             1522.90  1532.58  1597.02  1616.38  1652.77
                             1678.13  1714.15  1716.96  1745.18  1753.47
                             1753.76  1789.33  1816.25  1821.03  1861.94
                             1889.97  1900.77  1924.14  1949.24  1960.74
                             1972.12  1986.23  2025.02  2030.68  2044.20
                             2063.85  2071.75  2164.51  2170.10  2182.02
                             2198.38  2203.83  2227.07  2237.26  2262.40
                             2364.21  2398.92  4171.11  4272.56  4336.52
                             4354.96  4359.28  4366.94  4389.39  4417.42
                             4426.80  4431.73  4477.07  4481.16  4500.57
                             4557.88  4577.14  4592.31  4612.21  4641.81
                             5419.05

 Zero-point correction=                           0.302212 (Hartree/Particle)
 Thermal correction to Energy=                    0.316575
 Thermal correction to Enthalpy=                  0.317519
 Thermal correction to Gibbs Free Energy=         0.259496
 Sum of electronic and zero-point Energies=           -636.535161
 Sum of electronic and thermal Energies=              -636.520799
 Sum of electronic and thermal Enthalpies=            -636.519855
 Sum of electronic and thermal Free Energies=         -636.577877

                     E (Thermal)             CV                S
                      KCal/Mol        Cal/Mol-Kelvin    Cal/Mol-Kelvin
 Total                  198.654             54.849            122.119
 Electronic               0.000              0.000              0.000
 Translational            0.889              2.981             41.860
 Rotational               0.889              2.981             32.312
 Vibrational            196.876             48.887             47.948
 Vibration     1          0.594              1.983              5.696
 Vibration     2          0.594              1.981              5.177
 Vibration     3          0.595              1.978              4.912
 Vibration     4          0.599              1.964              3.937
 Vibration     5          0.605              1.946              3.373
 Vibration     6          0.614              1.917              2.850
 Vibration     7          0.622              1.889              2.526
 Vibration     8          0.637              1.843              2.157
 Vibration     9          0.646              1.813              1.970
 Vibration    10          0.661              1.767              1.747
 Vibration    11          0.683              1.702              1.504
 Vibration    12          0.692              1.675              1.421
 Vibration    13          0.699              1.655              1.363
 Vibration    14          0.734              1.556              1.126
 Vibration    15          0.742              1.534              1.079
 Vibration    16          0.781              1.430              0.897
 Vibration    17          0.887              1.179              0.582
 Vibration    18          0.911              1.127              0.532
 Vibration    19          0.968              1.012              0.434

                           ! Non-Optimized Parameters !
 Normal termination of Gaussian 16 at Thu Dec 10 17:02:43 2020.

 ----------------------------------------------------------------------
 # B3LYP/6-311++G(d,p) empiricaldispersion=gd3bj scf=xqc pop=npa geom=c
 heck
 ----------------------------------------------------------------------

 --------------------------------------
 CID_44890860_JID_5676_Energie_neutraal
 --------------------------------------
 Structure from the checkpoint file:  "JID_5676.chk"
 Charge =  0 Multiplicity = 1

 SCF Done:  E(RB3LYP) =  -637.016908898     A.U. after   15 cycles
 Normal termination of Gaussian 16 at Thu Dec 10 17:09:25 2020.

 ----------------------------------------------------------------------
 # B3LYP/6-311++G(d,p) empiricaldispersion=gd3bj scf=xqc pop=npa geom=c
 heck
 ----------------------------------------------------------------------

 ------------------------------------
 CID_44890860_JID_5676_Energie_kation
 ------------------------------------
 Structure from the checkpoint file:  "JID_5676.chk"
 Charge =  1 Multiplicity = 2

 SCF Done:  E(UB3LYP) =  -636.743419255     A.U. after   25 cycles
 Normal termination of Gaussian 16 at Thu Dec 10 17:24:09 2020.
 Gaussian 16:  ES64L-G16RevA.03 25-Dec-2016

 ----------------------------------------------------------------------
 # B3LYP/6-311++G(d,p) empiricaldispersion=gd3bj scf=xqc pop=npa geom=c
 heck
 ----------------------------------------------------------------------

 -----------------------------------
 CID_44890860_JID_5676_Energie_anion
 -----------------------------------
 Structure from the checkpoint file:  "JID_5676.chk"
 Charge = -1 Multiplicity = 2

                         Standard orientation:
 ---------------------------------------------------------------------
 Center     Atomic      Atomic             Coordinates (Angstroms)
 Number     Number       Type             X           Y           Z
 ---------------------------------------------------------------------
      1          6           0        4.233329    0.137837   -0.617254
      2          6           0        4.063568   -0.992122    0.418257
      3          6           0        2.578835   -1.419100    0.294446
      4          7           0        1.987753   -0.434652   -0.606398
      5          6           0        2.829028    0.745930   -0.672785
      6          6           0        0.549654   -0.356735   -0.720999
      7          6           0       -0.274347   -0.074926    0.571854
      8          6           0        0.148939    1.222877    1.279350
      9          8           0        0.159927    2.382568    0.450275
     10          6           0       -1.752757   -0.157167    0.245584
     11          6           0       -2.461262    0.936185   -0.273870
     12          6           0       -3.811736    0.814445   -0.602604
     13          6           0       -4.475846   -0.400609   -0.430247
     14          6           0       -3.779225   -1.496971    0.079286
     15          6           0       -2.431163   -1.371755    0.413071
     16          1           0        5.004183    0.861569   -0.336090
     17          1           0        4.486817   -0.274727   -1.599141
     18          1           0        4.258170   -0.608439    1.425633
     19          1           0        4.753265   -1.823650    0.248742
     20          1           0        2.459939   -2.427273   -0.127118
     21          1           0        2.105235   -1.434616    1.290728
     22          1           0        2.705415    1.453889    0.173179
     23          1           0        2.637209    1.298013   -1.602206
     24          1           0        0.305916    0.409702   -1.466944
     25          1           0        0.181356   -1.306523   -1.132305
     26          1           0       -0.052356   -0.884684    1.280542
     27          1           0       -0.557735    1.448334    2.083182
     28          1           0        1.136542    1.073021    1.740025
     29          1           0        0.882757    2.281552   -0.186665
     30          1           0       -1.948751    1.882875   -0.404800
     31          1           0       -4.346726    1.674638   -0.996533
     32          1           0       -5.527139   -0.492318   -0.688967
     33          1           0       -4.285610   -2.447931    0.221965
     34          1           0       -1.894269   -2.228745    0.814820
 ---------------------------------------------------------------------

 SCF Done:  E(UB3LYP) =  -637.003119184     A.U. after   33 cycles
 SCF Done:  E(UB3LYP) =  -637.003119183     a.u. after    1 cycles

 The electronic state is 2-A.
 Alpha  occ. eigenvalues --  -19.03254 -14.20392 -10.12296 -10.10176 -10.10003
 Alpha  occ. eigenvalues --  -10.09327 -10.08790 -10.08350 -10.08330 -10.08271
 Alpha  occ. eigenvalues --  -10.08185 -10.07964 -10.07607 -10.07074 -10.07045
 Alpha  occ. eigenvalues --   -0.93380  -0.83770  -0.76766  -0.71212  -0.67682
 Alpha  occ. eigenvalues --   -0.65380  -0.63256  -0.62835  -0.58558  -0.53302
 Alpha  occ. eigenvalues --   -0.51423  -0.49237  -0.48871  -0.46374  -0.43701
 Alpha  occ. eigenvalues --   -0.40856  -0.39672  -0.39234  -0.38264  -0.36387
 Alpha  occ. eigenvalues --   -0.35707  -0.34888  -0.33480  -0.32788  -0.31392
 Alpha  occ. eigenvalues --   -0.31088  -0.29399  -0.28972  -0.27385  -0.27003
 Alpha  occ. eigenvalues --   -0.26060  -0.25933  -0.24968  -0.24903  -0.24372
 Alpha  occ. eigenvalues --   -0.23396  -0.22755  -0.18614  -0.16327  -0.15748
 Alpha  occ. eigenvalues --   -0.10770   0.04236
 Alpha virt. eigenvalues --    0.05778   0.06780   0.07515   0.07645   0.07670
 Alpha virt. eigenvalues --    0.07850   0.07880   0.09319   0.09529   0.09736
 Alpha virt. eigenvalues --    0.10348   0.10504   0.11296   0.12348   0.12616

  Beta  occ. eigenvalues --  -19.03245 -14.20392 -10.12281 -10.10168 -10.09975
  Beta  occ. eigenvalues --  -10.09301 -10.08788 -10.08344 -10.08325 -10.08259
  Beta  occ. eigenvalues --  -10.08173 -10.07951 -10.07601 -10.07050 -10.07019
  Beta  occ. eigenvalues --   -0.93362  -0.83752  -0.76747  -0.71186  -0.67650
  Beta  occ. eigenvalues --   -0.65357  -0.63203  -0.62801  -0.58518  -0.53270
  Beta  occ. eigenvalues --   -0.51394  -0.49176  -0.48819  -0.46321  -0.43668
  Beta  occ. eigenvalues --   -0.40808  -0.39643  -0.39194  -0.38227  -0.36357
  Beta  occ. eigenvalues --   -0.35681  -0.34858  -0.33453  -0.32762  -0.31364
  Beta  occ. eigenvalues --   -0.31058  -0.29370  -0.28938  -0.27352  -0.26980
  Beta  occ. eigenvalues --   -0.26024  -0.25908  -0.24942  -0.24858  -0.24331
  Beta  occ. eigenvalues --   -0.23366  -0.22720  -0.18596  -0.16311  -0.15725
  Beta  occ. eigenvalues --   -0.10748
  Beta virt. eigenvalues --    0.06201   0.06692   0.07415   0.07674   0.07834
  Beta virt. eigenvalues --    0.08093   0.08217   0.08507   0.09642   0.09769
  Beta virt. eigenvalues --    0.10165   0.10750   0.10804   0.11526   0.12719

 Mulliken charges and spin densities:
               1          2
     1  C    0.459596  -0.848461
     2  C    0.446230  -0.901682
     3  C    0.629052  -0.764010
     4  N    0.065256   0.147822
     5  C    0.369430  -0.555060
     6  C   -1.948344   0.841048
     7  C    2.455093  -1.747111
     8  C   -0.496399  -0.358463
     9  O   -0.208586   0.007726
    10  C    0.106648   0.782374
    11  C   -0.715485   0.268558
    12  C   -0.075797  -0.203983
    13  C    0.588826  -0.922273
    14  C    0.993111  -1.325255
    15  C   -1.679688   1.434348
    16  H   -0.503754   0.667435
    17  H    0.085491   0.066998
    18  H   -0.116247   0.252218
    19  H   -0.230882   0.395350
    20  H   -0.266390   0.435678
    21  H   -0.064182   0.175863
    22  H    0.201087  -0.126750
    23  H   -0.380962   0.539576
    24  H    0.057003   0.142623
    25  H   -0.013595   0.191295
    26  H    0.153269   0.041676
    27  H    0.080091   0.082883
    28  H   -0.080587   0.258013
    29  H    0.046237   0.201014
    30  H    0.232579  -0.009107
    31  H   -0.105309   0.265640
    32  H   -0.214057   0.364769
    33  H   -0.422588   0.597628
    34  H   -0.446146   0.601619
 Sum of Mulliken charges =  -1.00000   1.00000

 Dipole moment (field-independent basis, Debye):
    X=             -2.1086    Y=              2.0217    Z=             -0.1981  Tot=              2.9279
 Quadrupole moment (field-independent basis, Debye-Ang):
   XX=           -188.1983   YY=           -140.4572   ZZ=           -123.6122
   XY=             -6.5525   XZ=             -0.2393   YZ=              0.2896

 Summary of Natural Population Analysis:

                                       Natural Population
                Natural  -----------------------------------------------
    Atom  No    Charge         Core      Valence    Rydberg      Total
 -----------------------------------------------------------------------
      C    1   -0.18987      0.99963     2.18171    0.00853     3.18987
      C    2   -0.19381      0.99964     2.18690    0.00728     3.19381
      C    3   -0.07947      0.99963     2.06928    0.01056     3.07947
      N    4   -0.28726      0.99971     2.77438    0.01316     3.78726
      C    5   -0.08595      0.99961     2.07467    0.01167     3.08595
      C    6   -0.07579      0.99959     2.06434    0.01187     3.07579
      C    7   -0.13877      0.99955     2.12858    0.01065     3.13877
      C    8   -0.01021      0.99957     1.99774    0.01290     3.01021
      O    9   -0.37333      0.99990     3.36719    0.00625     4.37333
      C   10   -0.01238      0.99950     2.00089    0.01199     3.01238
      C   11   -0.10561      0.99950     2.09783    0.00828     3.10561
      C   12   -0.10026      0.99957     2.09137    0.00932     3.10026
      C   13   -0.10859      0.99956     2.09856    0.01047     3.10859
      C   14   -0.09978      0.99956     2.09007    0.01015     3.09978
      C   15   -0.09979      0.99951     2.09023    0.01005     3.09979
      H   16    0.10090      0.00000     0.39766    0.00144     0.39910
      H   17    0.09729      0.00000     0.40128    0.00143     0.40271
      H   18    0.09701      0.00000     0.40138    0.00160     0.40299
      H   19    0.10146      0.00000     0.39731    0.00123     0.39854
      H   20    0.09298      0.00000     0.40545    0.00157     0.40702
      H   21    0.08248      0.00000     0.41560    0.00192     0.41752
      H   22    0.07469      0.00000     0.42324    0.00207     0.42531
      H   23    0.09600      0.00000     0.40239    0.00161     0.40400
      H   24    0.09610      0.00000     0.40252    0.00138     0.40390
      H   25    0.09917      0.00000     0.39955    0.00128     0.40083
      H   26    0.10371      0.00000     0.39394    0.00235     0.39629
      H   27    0.08985      0.00000     0.40910    0.00106     0.41015
      H   28    0.08311      0.00000     0.41517    0.00171     0.41689
      H   29    0.23099      0.00000     0.26565    0.00336     0.26901
      H   30    0.11367      0.00000     0.38496    0.00137     0.38633
      H   31    0.09855      0.00000     0.40067    0.00078     0.40145
      H   32    0.10002      0.00000     0.39900    0.00098     0.39998
      H   33    0.10157      0.00000     0.39715    0.00128     0.39843
      H   34    0.10134      0.00000     0.39685    0.00181     0.39866
 =======================================================================
   * Total *   -0.00000     14.99404    40.82261    0.18336    56.00000

 Normal termination of Gaussian 16 at Thu Dec 10 17:43:42 2020.
