 Gaussian 16, Revision A.03,

 -----------------------------------------------------------
 # opt freq B3LYP/6-31G(d) empiricaldispersion=gd3bj scf=xqc
 -----------------------------------------------------------

 ------------------------------
 CID_70330981_JID_5823_neutraal
 ------------------------------
 Symbolic Z-matrix:
 Charge =  0 Multiplicity = 1

 SCF Done:  E(RB3LYP) =  -632.038311256     A.U. after   15 cycles
 SCF Done:  E(RB3LYP) =  -632.042773065     A.U. after   12 cycles
 SCF Done:  E(RB3LYP) =  -632.043057169     A.U. after   11 cycles
 SCF Done:  E(RB3LYP) =  -632.043076325     A.U. after    9 cycles
 SCF Done:  E(RB3LYP) =  -632.043079009     A.U. after    8 cycles
 SCF Done:  E(RB3LYP) =  -632.043079316     A.U. after    7 cycles
 SCF Done:  E(RB3LYP) =  -632.043079388     A.U. after    7 cycles
 Optimization completed.
    -- Stationary point found.
 Normal termination of Gaussian 16 at Thu Dec 10 16:36:57 2020.

 --------------------------------------------------------------------
 #N Geom=AllCheck Guess=TCheck SCRF=Check GenChk RB3LYP/6-31G(d) Freq
 --------------------------------------------------------------------

 Structure from the checkpoint file:  "JID_5823.chk"
 ------------------------------
 CID_70330981_JID_5823_neutraal
 ------------------------------
 Charge =  0 Multiplicity = 1

 SCF Done:  E(RB3LYP) =  -632.043079387     A.U. after    1 cycles

  Exact polarizability: 213.867  -1.624 155.776   0.008   0.004  58.179
 Approx polarizability: 338.786 -18.641 282.676   0.020   0.007  92.372

                      1                      2                      3
                      A                      A                      A
 Frequencies --     53.2576               104.8690               131.0957
 Red. masses --      3.2168                 2.2005                 6.0936
 Frc consts  --      0.0054                 0.0143                 0.0617
 IR Inten    --      0.0340                 0.2762                 0.2648

                      4                      5                      6
                      A                      A                      A
 Frequencies --    170.8635               193.6008               243.0070
 Red. masses --      3.7279                 2.2793                 1.7581
 Frc consts  --      0.0641                 0.0503                 0.0612
 IR Inten    --      0.5735                 0.0569                 2.0859

                      7                      8                      9
                      A                      A                      A
 Frequencies --    274.8401               280.3204               309.6314
 Red. masses --      2.5426                 4.0893                 4.2620
 Frc consts  --      0.1132                 0.1893                 0.2407
 IR Inten    --      6.7119                 0.7599                 0.3503

                     10                     11                     12
                      A                      A                      A
 Frequencies --    320.7927               456.6422               462.2003
 Red. masses --      4.4237                 7.0123                 3.2392
 Frc consts  --      0.2682                 0.8615                 0.4077
 IR Inten    --      0.7228                 1.6787                 0.1333

                     13                     14                     15
                      A                      A                      A
 Frequencies --    514.0958               523.2219               570.3998
 Red. masses --      5.9141                 4.7316                 3.4386
 Frc consts  --      0.9209                 0.7632                 0.6592
 IR Inten    --      7.9719                 4.2730                 1.2548

                     16                     17                     18
                      A                      A                      A
 Frequencies --    579.6549               619.5087               634.7793
 Red. masses --      4.2634                 4.0324                 4.0833
 Frc consts  --      0.8440                 0.9118                 0.9694
 IR Inten    --      1.0238                 3.9370                 0.0049

                     19                     20                     21
                      A                      A                      A
 Frequencies --    683.5691               709.1909               747.5855
 Red. masses --      6.5245                 2.9086                 6.6386
 Frc consts  --      1.7962                 0.8619                 2.1860
 IR Inten    --      1.8400                 0.3874                10.7161

                     22                     23                     24
                      A                      A                      A
 Frequencies --    751.5943               793.3245               798.8710
 Red. masses --      1.3557                 2.1066                 1.6148
 Frc consts  --      0.4512                 0.7812                 0.6072
 IR Inten    --     46.1928                12.2467                 5.1322

                     25                     26                     27
                      A                      A                      A
 Frequencies --    841.4495               848.7100               851.2875
 Red. masses --      1.5803                 1.3475                 1.7479
 Frc consts  --      0.6592                 0.5719                 0.7463
 IR Inten    --      9.9624                18.5970                 0.0111

                     28                     29                     30
                      A                      A                      A
 Frequencies --    862.0691               882.5081               931.3817
 Red. masses --      5.4424                 5.5993                 4.0034
 Frc consts  --      2.3830                 2.5693                 2.0461
 IR Inten    --      5.2136                 7.6207                 5.5850

                     31                     32                     33
                      A                      A                      A
 Frequencies --    952.0981               970.5902              1007.5778
 Red. masses --      1.2694                 1.3424                 1.9876
 Frc consts  --      0.6780                 0.7451                 1.1889
 IR Inten    --      0.1123                 0.0567                 1.1979

                     34                     35                     36
                      A                      A                      A
 Frequencies --   1038.6421              1077.2927              1087.7520
 Red. masses --      2.1349                 2.6526                 2.9423
 Frc consts  --      1.3569                 1.8138                 2.0512
 IR Inten    --      1.8328                11.2157                21.6054

                     37                     38                     39
                      A                      A                      A
 Frequencies --   1113.1556              1128.4996              1166.2746
 Red. masses --      1.5611                 2.2096                 1.6311
 Frc consts  --      1.1397                 1.6579                 1.3071
 IR Inten    --      0.0446                 3.6493                 9.6838

                     40                     41                     42
                      A                      A                      A
 Frequencies --   1173.5367              1200.3442              1234.6899
 Red. masses --      1.7007                 1.9356                 2.2038
 Frc consts  --      1.3799                 1.6431                 1.9794
 IR Inten    --     16.4222                11.9725                 1.8753

                     43                     44                     45
                      A                      A                      A
 Frequencies --   1292.7659              1298.9211              1310.3508
 Red. masses --      2.0966                 2.8050                 1.1574
 Frc consts  --      2.0645                 2.7884                 1.1709
 IR Inten    --      1.5719                17.2105                 0.0772

                     46                     47                     48
                      A                      A                      A
 Frequencies --   1334.5756              1374.1250              1389.7034
 Red. masses --      2.2331                 2.1661                 4.2178
 Frc consts  --      2.3434                 2.4099                 4.7993
 IR Inten    --     33.5364                 2.9607                17.9947

                     49                     50                     51
                      A                      A                      A
 Frequencies --   1420.5594              1431.7796              1444.2956
 Red. masses --      2.2591                 3.2799                 1.3596
 Frc consts  --      2.6860                 3.9615                 1.6710
 IR Inten    --      3.0765                48.9575                15.3006

                     52                     53                     54
                      A                      A                      A
 Frequencies --   1471.6725              1494.3752              1512.7315
 Red. masses --      5.3105                 1.8072                 1.2846
 Frc consts  --      6.7765                 2.3778                 1.7320
 IR Inten    --      1.8054                 5.6107                 0.1457

                     55                     56                     57
                      A                      A                      A
 Frequencies --   1520.7563              1528.9428              1561.7472
 Red. masses --      1.0399                 1.0608                 4.5152
 Frc consts  --      1.4170                 1.4611                 6.4885
 IR Inten    --      4.7643                 7.0031                20.1184

                     58                     59                     60
                      A                      A                      A
 Frequencies --   1579.7434              1625.4191              1640.4610
 Red. masses --      4.6857                 6.1974                 7.8614
 Frc consts  --      6.8896                 9.6469                12.4646
 IR Inten    --     12.6452                16.3500                 8.0184

                     61                     62                     63
                      A                      A                      A
 Frequencies --   1667.9228              3024.4947              3050.0965
 Red. masses --      6.9169                 1.0603                 1.1008
 Frc consts  --     11.3373                 5.7146                 6.0336
 IR Inten    --     36.8248                16.1695                17.6293

                     64                     65                     66
                      A                      A                      A
 Frequencies --   3064.0786              3132.3358              3147.4041
 Red. masses --      1.0376                 1.1003                 1.1027
 Frc consts  --      5.7397                 6.3609                 6.4358
 IR Inten    --     40.4155                30.5335                24.1762

                     67                     68                     69
                      A                      A                      A
 Frequencies --   3176.8955              3206.5356              3219.3863
 Red. masses --      1.0881                 1.0948                 1.0879
 Frc consts  --      6.4704                 6.6320                 6.6434
 IR Inten    --     22.1544                24.9489                 0.6059

                     70                     71                     72
                      A                      A                      A
 Frequencies --   3235.3633              3272.6115              3304.3280
 Red. masses --      1.0944                 1.0918                 1.1042
 Frc consts  --      6.7497                 6.8897                 7.1036
 IR Inten    --      8.7648                 1.8623                 0.9053

 - Thermochemistry -
 -------------------
 Temperature   298.150 Kelvin.  Pressure   1.00000 Atm.
 Atom     1 has atomic number  6 and mass  12.00000

 Molecular mass:   197.08406 amu.
 Principal axes and moments of inertia in atomic units:
                           1         2         3
     Eigenvalues --  1211.008684434.838035623.70986
           X            0.99976   0.02204  -0.00000
           Y           -0.02204   0.99976   0.00000
           Z            0.00000  -0.00000   1.00000
 This molecule is an asymmetric top.
 Rotational symmetry number  1.
 Warning -- assumption of classical behavior for rotation
           may cause significant error
 Rotational temperatures (Kelvin)      0.07152     0.01953     0.01540
 Rotational constants (GHZ):           1.49028     0.40695     0.32092
 Zero-point vibrational energy     550456.6 (Joules/Mol)
                                  131.56228 (Kcal/Mol)
 Warning -- explicit consideration of  17 degrees of freedom as
           vibrations may cause significant error
 Vibrational temperatures:     76.63   150.88   188.62   245.83   278.55
          (Kelvin)            349.63   395.43   403.32   445.49   461.55
                              657.01   665.00   739.67   752.80   820.68
                              833.99   891.33   913.31   983.50  1020.37
                             1075.61  1081.38  1141.42  1149.40  1210.66
                             1221.10  1224.81  1240.33  1269.73  1340.05
                             1369.86  1396.46  1449.68  1494.37  1549.98
                             1565.03  1601.58  1623.66  1678.01  1688.46
                             1727.03  1776.44  1860.00  1868.86  1885.30
                             1920.16  1977.06  1999.47  2043.87  2060.01
                             2078.02  2117.41  2150.07  2176.48  2188.03
                             2199.81  2247.01  2272.90  2338.62  2360.26
                             2399.77  4351.57  4388.41  4408.53  4506.73
                             4528.41  4570.84  4613.49  4631.98  4654.97
                             4708.56  4754.19

 Zero-point correction=                           0.209658 (Hartree/Particle)
 Thermal correction to Energy=                    0.221051
 Thermal correction to Enthalpy=                  0.221995
 Thermal correction to Gibbs Free Energy=         0.172188
 Sum of electronic and zero-point Energies=           -631.833422
 Sum of electronic and thermal Energies=              -631.822028
 Sum of electronic and thermal Enthalpies=            -631.821084
 Sum of electronic and thermal Free Energies=         -631.870891

                     E (Thermal)             CV                S
                      KCal/Mol        Cal/Mol-Kelvin    Cal/Mol-Kelvin
 Total                  138.712             46.180            104.828
 Electronic               0.000              0.000              0.000
 Translational            0.889              2.981             41.740
 Rotational               0.889              2.981             31.780
 Vibrational            136.934             40.218             31.308
 Vibration     1          0.596              1.976              4.693
 Vibration     2          0.605              1.945              3.362
 Vibration     3          0.612              1.922              2.930
 Vibration     4          0.626              1.878              2.426
 Vibration     5          0.635              1.849              2.193
 Vibration     6          0.659              1.774              1.781
 Vibration     7          0.677              1.720              1.566
 Vibration     8          0.680              1.710              1.532
 Vibration     9          0.699              1.655              1.364
 Vibration    10          0.706              1.634              1.306
 Vibration    11          0.815              1.346              0.776
 Vibration    12          0.820              1.334              0.760
 Vibration    13          0.869              1.219              0.624
 Vibration    14          0.878              1.199              0.603
 Vibration    15          0.926              1.095              0.503
 Vibration    16          0.936              1.075              0.486
 Vibration    17          0.979              0.991              0.417

 Optimization completed.
    -- Stationary point found.
 Normal termination of Gaussian 16 at Thu Dec 10 16:44:35 2020.

 ----------------------------------------------------------------------
 # B3LYP/6-311++G(d,p) empiricaldispersion=gd3bj scf=xqc pop=npa geom=c
 heck
 ----------------------------------------------------------------------

 --------------------------------------
 CID_70330981_JID_5823_Energie_neutraal
 --------------------------------------
 Structure from the checkpoint file:  "JID_5823.chk"
 Charge =  0 Multiplicity = 1

 SCF Done:  E(RB3LYP) =  -632.201420788     A.U. after   14 cycles
 Normal termination of Gaussian 16 at Thu Dec 10 16:47:25 2020.

 ----------------------------------------------------------------------
 # B3LYP/6-311++G(d,p) empiricaldispersion=gd3bj scf=xqc pop=npa geom=c
 heck
 ----------------------------------------------------------------------

 ------------------------------------
 CID_70330981_JID_5823_Energie_kation
 ------------------------------------
 Structure from the checkpoint file:  "JID_5823.chk"
 Charge =  1 Multiplicity = 2

 SCF Done:  E(UB3LYP) =  -631.915036162     A.U. after   22 cycles
 Normal termination of Gaussian 16 at Thu Dec 10 16:53:09 2020.
 Gaussian 16:  ES64L-G16RevA.03 25-Dec-2016

 ----------------------------------------------------------------------
 # B3LYP/6-311++G(d,p) empiricaldispersion=gd3bj scf=xqc pop=npa geom=c
 heck
 ----------------------------------------------------------------------

 -----------------------------------
 CID_70330981_JID_5823_Energie_anion
 -----------------------------------
 Structure from the checkpoint file:  "JID_5823.chk"
 Charge = -1 Multiplicity = 2

                         Standard orientation:
 ---------------------------------------------------------------------
 Center     Atomic      Atomic             Coordinates (Angstroms)
 Number     Number       Type             X           Y           Z
 ---------------------------------------------------------------------
      1          6           0       -4.471931   -0.675162    0.000725
      2          6           0       -3.022667   -1.157746   -0.000194
      3          6           0       -1.992205   -0.044039   -0.000191
      4          7           0       -2.448502    1.196721   -0.000273
      5          6           0       -1.561850    2.223180   -0.000242
      6          6           0       -0.197977    2.057235   -0.000073
      7          6           0        0.326681    0.745273   -0.000017
      8          6           0       -0.591326   -0.351868   -0.000129
      9          6           0       -0.103268   -1.695481   -0.000245
     10          6           0        1.243792   -1.982055   -0.000197
     11          6           0        2.125114   -0.889679   -0.000006
     12          6           0        1.718034    0.443469    0.000084
     13          6           0        2.930646    1.220996    0.000205
     14          6           0        3.949999    0.323247    0.000269
     15          8           0        3.488517   -0.971401    0.000085
     16          1           0       -4.680958   -0.060868    0.880597
     17          1           0       -5.153452   -1.532847    0.000818
     18          1           0       -4.681896   -0.060276   -0.878496
     19          1           0       -2.845970   -1.801080    0.873516
     20          1           0       -2.846799   -1.800214   -0.874735
     21          1           0       -1.999909    3.219011   -0.000351
     22          1           0        0.466746    2.915597    0.000012
     23          1           0       -0.813792   -2.513374   -0.000428
     24          1           0        1.617431   -3.000125   -0.000317
     25          1           0        3.027596    2.297117    0.000292
     26          1           0        5.024131    0.427003    0.000394
 ---------------------------------------------------------------------

 SCF Done:  E(UB3LYP) =  -632.204387888     A.U. after   23 cycles

 The electronic state is 2-A.
 Alpha  occ. eigenvalues --  -19.04505 -14.14702 -10.08923 -10.07949 -10.04497
 Alpha  occ. eigenvalues --  -10.04450 -10.04249 -10.04093 -10.03869 -10.03705
 Alpha  occ. eigenvalues --  -10.02992 -10.02489 -10.01670 -10.01554 -10.01137
 Alpha  occ. eigenvalues --   -0.97255  -0.78531  -0.70901  -0.66429  -0.65141
 Alpha  occ. eigenvalues --   -0.62440  -0.60498  -0.57503  -0.51836  -0.49231
 Alpha  occ. eigenvalues --   -0.47864  -0.45392  -0.43355  -0.39082  -0.37761
 Alpha  occ. eigenvalues --   -0.35198  -0.33670  -0.32552  -0.32159  -0.32099
 Alpha  occ. eigenvalues --   -0.30009  -0.28025  -0.27093  -0.26480  -0.25406
 Alpha  occ. eigenvalues --   -0.24916  -0.24401  -0.23246  -0.22237  -0.22093
 Alpha  occ. eigenvalues --   -0.19371  -0.18557  -0.16566  -0.12285  -0.10578
 Alpha  occ. eigenvalues --   -0.10512  -0.07435   0.05359
 Alpha virt. eigenvalues --    0.08570   0.08743   0.09854   0.10424   0.11191
 Alpha virt. eigenvalues --    0.11424   0.12078   0.12282   0.13047   0.13204
 Alpha virt. eigenvalues --    0.14206   0.14718   0.15510   0.15901   0.16688

  Beta  occ. eigenvalues --  -19.04354 -14.14757 -10.08758 -10.07951 -10.04515
  Beta  occ. eigenvalues --  -10.04282 -10.04116 -10.03929 -10.03896 -10.03705
  Beta  occ. eigenvalues --  -10.03067 -10.02297 -10.01440 -10.01396 -10.00820
  Beta  occ. eigenvalues --   -0.97008  -0.78266  -0.70624  -0.66086  -0.64937
  Beta  occ. eigenvalues --   -0.62214  -0.60206  -0.57081  -0.51703  -0.48825
  Beta  occ. eigenvalues --   -0.47680  -0.45040  -0.43194  -0.38924  -0.37392
  Beta  occ. eigenvalues --   -0.35045  -0.33536  -0.32285  -0.31898  -0.31536
  Beta  occ. eigenvalues --   -0.29915  -0.27883  -0.27008  -0.26279  -0.24785
  Beta  occ. eigenvalues --   -0.24758  -0.24240  -0.23202  -0.22005  -0.21940
  Beta  occ. eigenvalues --   -0.18427  -0.18357  -0.15612  -0.11327  -0.10501
  Beta  occ. eigenvalues --   -0.09685  -0.05829
  Beta virt. eigenvalues --    0.08511   0.08682   0.09815   0.10361   0.10510
  Beta virt. eigenvalues --    0.11140   0.11791   0.12252   0.12433   0.12962
  Beta virt. eigenvalues --    0.13883   0.14130   0.14775   0.15444   0.16056

 Mulliken charges and spin densities:
               1          2
     1  C   -0.693894   0.007718
     2  C   -0.443834  -0.068294
     3  C   -0.371504   0.234301
     4  N    0.041642  -0.031591
     5  C   -0.161451   0.126735
     6  C   -0.215125   0.104287
     7  C    0.522944  -0.019257
     8  C    0.742764  -0.042522
     9  C   -0.510831   0.243094
    10  C   -0.551204   0.146679
    11  C   -0.548027   0.013716
    12  C    0.103607   0.111185
    13  C    0.165343  -0.040954
    14  C   -0.243549   0.157697
    15  O   -0.086293   0.023013
    16  H    0.155424  -0.000055
    17  H    0.096405  -0.000380
    18  H    0.155420  -0.000040
    19  H    0.083888   0.048283
    20  H    0.083764   0.048548
    21  H    0.133021  -0.009954
    22  H    0.058467  -0.010235
    23  H    0.092827  -0.020532
    24  H    0.126251  -0.014848
    25  H    0.118529   0.003688
    26  H    0.145417  -0.010281
 Sum of Mulliken charges =  -1.00000   1.00000

 Dipole moment (field-independent basis, Debye):
    X=              1.0582    Y=              0.0625    Z=              0.0011  Tot=              1.0601
 Quadrupole moment (field-independent basis, Debye-Ang):
   XX=           -125.8778   YY=           -101.5152   ZZ=            -99.0739
   XY=              8.8813   XZ=             -0.0029   YZ=             -0.0005

 Summary of Natural Population Analysis:

                                       Natural Population
                Natural  -----------------------------------------------
    Atom  No    Charge         Core      Valence    Rydberg      Total
 -----------------------------------------------------------------------
      C    1   -0.28116      0.99967     2.27690    0.00459     3.28116
      C    2   -0.21051      0.99963     2.20373    0.00716     3.21051
      C    3    0.18876      0.99953     1.79532    0.01639     2.81124
      N    4   -0.27118      0.99968     2.76085    0.01065     3.77118
      C    5    0.02489      0.99963     1.95482    0.02065     2.97511
      C    6   -0.05269      0.99953     2.04669    0.00647     3.05269
      C    7   -0.03677      0.99953     2.02231    0.01493     3.03677
      C    8   -0.06292      0.99948     2.05598    0.00746     3.06292
      C    9   -0.02966      0.99947     2.02167    0.00851     3.02966
      C   10   -0.09089      0.99955     2.08170    0.00964     3.09089
      C   11    0.15786      0.99937     1.82920    0.01357     2.84214
      C   12   -0.04135      0.99937     2.02886    0.01313     3.04135
      C   13   -0.12898      0.99945     2.12448    0.00505     3.12898
      C   14    0.07178      0.99956     1.90934    0.01932     2.92822
      O   15   -0.23666      0.99986     3.22505    0.01175     4.23666
      H   16    0.09990      0.00000     0.39916    0.00095     0.40010
      H   17    0.08541      0.00000     0.41365    0.00094     0.41459
      H   18    0.09988      0.00000     0.39910    0.00102     0.40012
      H   19    0.09835      0.00000     0.39983    0.00183     0.40165
      H   20    0.09968      0.00000     0.39765    0.00267     0.40032
      H   21    0.07484      0.00000     0.42366    0.00150     0.42516
      H   22    0.08494      0.00000     0.41253    0.00253     0.41506
      H   23    0.09007      0.00000     0.40845    0.00148     0.40993
      H   24    0.09256      0.00000     0.40570    0.00174     0.40744
      H   25    0.09896      0.00000     0.40013    0.00091     0.40104
      H   26    0.08346      0.00000     0.41511    0.00143     0.41654
 =======================================================================
   * Total *    0.00857     14.99332    36.81185    0.18626    51.99143

 Normal termination of Gaussian 16 at Thu Dec 10 17:01:34 2020.
