 Gaussian 16, Revision A.03,

 -----------------------------------------------------------
 # opt freq B3LYP/6-31G(d) empiricaldispersion=gd3bj scf=xqc
 -----------------------------------------------------------

 -------------------------------
 CID_131146412_JID_3494_neutraal
 -------------------------------
 Symbolic Z-matrix:
 Charge =  0 Multiplicity = 1

 SCF Done:  E(RB3LYP) =  -951.782476491     A.U. after   14 cycles
 SCF Done:  E(RB3LYP) =  -951.789772974     A.U. after   13 cycles
 SCF Done:  E(RB3LYP) =  -951.787621852     A.U. after   13 cycles
 SCF Done:  E(RB3LYP) =  -951.791190761     A.U. after   11 cycles
 SCF Done:  E(RB3LYP) =  -951.792493961     A.U. after   12 cycles
 SCF Done:  E(RB3LYP) =  -951.792954316     A.U. after   12 cycles
 SCF Done:  E(RB3LYP) =  -951.793068557     A.U. after   11 cycles
 SCF Done:  E(RB3LYP) =  -951.793096523     A.U. after   10 cycles
 SCF Done:  E(RB3LYP) =  -951.793103683     A.U. after   10 cycles
 SCF Done:  E(RB3LYP) =  -951.793104789     A.U. after    8 cycles
 Optimization completed.
    -- Stationary point found.
 Normal termination of Gaussian 16 at Wed Dec  9 23:24:44 2020.

 --------------------------------------------------------------------
 #N Geom=AllCheck Guess=TCheck SCRF=Check GenChk RB3LYP/6-31G(d) Freq
 --------------------------------------------------------------------

 Structure from the checkpoint file:  "JID_3494.chk"
 -------------------------------
 CID_131146412_JID_3494_neutraal
 -------------------------------
 Charge =  0 Multiplicity = 1

 SCF Done:  E(RB3LYP) =  -951.793104789     A.U. after    1 cycles

  Exact polarizability: 160.655 -11.414 150.552  -1.062  -6.281  55.932
 Approx polarizability: 267.570 -22.519 262.713  -2.804 -14.568  89.033

                      1                      2                      3
                      A                      A                      A
 Frequencies --     83.4811               126.6077               165.0573
 Red. masses --      4.9598                 5.9009                 4.2088
 Frc consts  --      0.0204                 0.0557                 0.0676
 IR Inten    --      0.5843                 2.4872                 5.1110

                      4                      5                      6
                      A                      A                      A
 Frequencies --    203.1174               251.1734               267.2764
 Red. masses --      5.3298                 4.0981                 5.1386
 Frc consts  --      0.1296                 0.1523                 0.2163
 IR Inten    --      1.6600                 6.2478                 5.4344

                      7                      8                      9
                      A                      A                      A
 Frequencies --    281.5495               298.3235               323.5646
 Red. masses --      3.3497                 3.9065                 2.1851
 Frc consts  --      0.1564                 0.2048                 0.1348
 IR Inten    --      2.3754                 3.7533                69.2821

                     10                     11                     12
                      A                      A                      A
 Frequencies --    327.3808               359.8521               405.7131
 Red. masses --      1.4844                 1.8402                 2.3743
 Frc consts  --      0.0937                 0.1404                 0.2303
 IR Inten    --     53.5375                34.2787                52.1397

                     13                     14                     15
                      A                      A                      A
 Frequencies --    435.9873               478.3359               492.7517
 Red. masses --      6.2878                 3.8748                 1.2955
 Frc consts  --      0.7042                 0.5223                 0.1853
 IR Inten    --     12.5898                 9.0898                81.1992

                     16                     17                     18
                      A                      A                      A
 Frequencies --    527.4394               548.7739               553.0307
 Red. masses --      4.6246                 4.0348                 8.3065
 Frc consts  --      0.7580                 0.7159                 1.4968
 IR Inten    --      6.5801                12.4531                 0.4155

                     19                     20                     21
                      A                      A                      A
 Frequencies --    593.5598               631.4822               669.0336
 Red. masses --      4.0589                 2.6626                 4.8235
 Frc consts  --      0.8425                 0.6256                 1.2721
 IR Inten    --      4.3538                 1.3045                 2.6510

                     22                     23                     24
                      A                      A                      A
 Frequencies --    702.8651               724.9012               753.0049
 Red. masses --      1.4807                 4.8269                 6.2855
 Frc consts  --      0.4310                 1.4944                 2.0998
 IR Inten    --     34.6318                 7.1097                 9.6647

                     25                     26                     27
                      A                      A                      A
 Frequencies --    827.4800               843.1155               858.5549
 Red. masses --      1.4592                 1.4368                 3.4257
 Frc consts  --      0.5887                 0.6017                 1.4878
 IR Inten    --     26.9105               284.0540                 8.4602

                     28                     29                     30
                      A                      A                      A
 Frequencies --    863.1960               907.0257               991.5918
 Red. masses --      1.4092                 5.7315                 5.3677
 Frc consts  --      0.6186                 2.7782                 3.1096
 IR Inten    --     13.0379                42.3161                68.3153

                     31                     32                     33
                      A                      A                      A
 Frequencies --    999.5706              1049.7604              1117.0727
 Red. masses --      1.8270                 4.7237                 3.3772
 Frc consts  --      1.0755                 3.0670                 2.4830
 IR Inten    --     26.6512                32.4256                 7.0975

                     34                     35                     36
                      A                      A                      A
 Frequencies --   1155.2657              1180.2782              1210.7670
 Red. masses --      1.7697                 1.5124                 1.1540
 Frc consts  --      1.3916                 1.2413                 0.9968
 IR Inten    --     40.8053                 4.9757                12.0110

                     37                     38                     39
                      A                      A                      A
 Frequencies --   1221.0166              1245.9540              1272.2958
 Red. masses --      1.2872                 1.6577                 1.5948
 Frc consts  --      1.1307                 1.5162                 1.5210
 IR Inten    --    115.1186                47.7012                43.4188

                     40                     41                     42
                      A                      A                      A
 Frequencies --   1325.2890              1355.2549              1388.1290
 Red. masses --      4.1598                 1.3835                 3.9394
 Frc consts  --      4.3047                 1.4972                 4.4724
 IR Inten    --     40.6287                12.0571                76.9626

                     43                     44                     45
                      A                      A                      A
 Frequencies --   1430.9377              1439.7231              1470.7160
 Red. masses --      2.8779                 1.2896                 3.2761
 Frc consts  --      3.4719                 1.5749                 4.1751
 IR Inten    --     40.1553                61.9729                97.2819

                     46                     47                     48
                      A                      A                      A
 Frequencies --   1523.7675              1536.8257              1599.7277
 Red. masses --      3.7314                 1.1122                 5.6267
 Frc consts  --      5.1045                 1.5476                 8.4840
 IR Inten    --      3.7101                 3.9815                14.6894

                     49                     50                     51
                      A                      A                      A
 Frequencies --   1638.8320              1666.2873              1705.7926
 Red. masses --      5.5797                 5.9166                 1.1724
 Frc consts  --      8.8294                 9.6789                 2.0100
 IR Inten    --     40.8863               117.8826                72.1946

                     52                     53                     54
                      A                      A                      A
 Frequencies --   3036.2292              3128.4797              3159.8430
 Red. masses --      1.0704                 1.0950                 1.0895
 Frc consts  --      5.8138                 6.3142                 6.4092
 IR Inten    --     61.6112                 8.2492                22.8893

                     55                     56                     57
                      A                      A                      A
 Frequencies --   3221.8731              3258.0879              3459.7997
 Red. masses --      1.0917                 1.0932                 1.0559
 Frc consts  --      6.6766                 6.8369                 7.4469
 IR Inten    --      2.7159                 5.6053                97.3439

                     58                     59                     60
                      A                      A                      A
 Frequencies --   3599.7187              3732.9521              3756.2552
 Red. masses --      1.0899                 1.0662                 1.0660
 Frc consts  --      8.3213                 8.7539                 8.8616
 IR Inten    --     20.9055                16.2958                53.7835

 - Thermochemistry -
 -------------------
 Temperature   298.150 Kelvin.  Pressure   1.00000 Atm.
 Atom     1 has atomic number  6 and mass  12.00000

 Molecular mass:   195.03540 amu.
 Principal axes and moments of inertia in atomic units:
                           1         2         3
     Eigenvalues --  2136.509622482.580814489.45536
           X            1.00000  -0.00171   0.00059
           Y            0.00171   0.99999  -0.00269
           Z           -0.00059   0.00269   1.00000
 This molecule is an asymmetric top.
 Rotational symmetry number  1.
 Warning -- assumption of classical behavior for rotation
           may cause significant error
 Rotational temperatures (Kelvin)      0.04054     0.03489     0.01929
 Rotational constants (GHZ):           0.84471     0.72696     0.40200
 Zero-point vibrational energy     444901.5 (Joules/Mol)
                                  106.33402 (Kcal/Mol)
 Warning -- explicit consideration of  19 degrees of freedom as
           vibrations may cause significant error
 Vibrational temperatures:    120.11   182.16   237.48   292.24   361.38
          (Kelvin)            384.55   405.09   429.22   465.54   471.03
                              517.75   583.73   627.29   688.22   708.96
                              758.87   789.56   795.69   854.00   908.56
                              962.59  1011.27  1042.97  1083.41  1190.56
                             1213.06  1235.27  1241.95  1305.01  1426.68
                             1438.16  1510.37  1607.22  1662.17  1698.16
                             1742.02  1756.77  1792.65  1830.55  1906.80
                             1949.91  1997.21  2058.80  2071.44  2116.03
                             2192.36  2211.15  2301.65  2357.91  2397.42
                             2454.26  4368.46  4501.18  4546.31  4635.56
                             4687.66  4977.88  5179.19  5370.89  5404.41

 Zero-point correction=                           0.169454 (Hartree/Particle)
 Thermal correction to Energy=                    0.180832
 Thermal correction to Enthalpy=                  0.181776
 Thermal correction to Gibbs Free Energy=         0.132813
 Sum of electronic and zero-point Energies=           -951.623651
 Sum of electronic and thermal Energies=              -951.612273
 Sum of electronic and thermal Enthalpies=            -951.611329
 Sum of electronic and thermal Free Energies=         -951.660292

                     E (Thermal)             CV                S
                      KCal/Mol        Cal/Mol-Kelvin    Cal/Mol-Kelvin
 Total                  113.474             45.649            103.051
 Electronic               0.000              0.000              0.000
 Translational            0.889              2.981             41.709
 Rotational               0.889              2.981             31.543
 Vibrational            111.696             39.687             29.798
 Vibration     1          0.600              1.961              3.807
 Vibration     2          0.611              1.927              2.997
 Vibration     3          0.623              1.885              2.491
 Vibration     4          0.639              1.835              2.105
 Vibration     5          0.663              1.761              1.722
 Vibration     6          0.672              1.733              1.614
 Vibration     7          0.681              1.708              1.524
 Vibration     8          0.691              1.677              1.426
 Vibration     9          0.708              1.628              1.292
 Vibration    10          0.711              1.621              1.273
 Vibration    11          0.734              1.555              1.123
 Vibration    12          0.771              1.458              0.942
 Vibration    13          0.796              1.392              0.839
 Vibration    14          0.835              1.298              0.715
 Vibration    15          0.848              1.266              0.676
 Vibration    16          0.882              1.189              0.593
 Vibration    17          0.904              1.142              0.547
 Vibration    18          0.908              1.133              0.538
 Vibration    19          0.951              1.045              0.461

                           ! Non-Optimized Parameters !
 Normal termination of Gaussian 16 at Wed Dec  9 23:30:09 2020.

 ----------------------------------------------------------------------
 # B3LYP/6-311++G(d,p) empiricaldispersion=gd3bj scf=xqc pop=npa geom=c
 heck
 ----------------------------------------------------------------------

 ---------------------------------------
 CID_131146412_JID_3494_Energie_neutraal
 ---------------------------------------
 Structure from the checkpoint file:  "JID_3494.chk"
 Charge =  0 Multiplicity = 1

 SCF Done:  E(RB3LYP) =  -951.992136688     A.U. after   16 cycles
 Normal termination of Gaussian 16 at Wed Dec  9 23:32:34 2020.

 ----------------------------------------------------------------------
 # B3LYP/6-311++G(d,p) empiricaldispersion=gd3bj scf=xqc pop=npa geom=c
 heck
 ----------------------------------------------------------------------

 -------------------------------------
 CID_131146412_JID_3494_Energie_kation
 -------------------------------------
 Structure from the checkpoint file:  "JID_3494.chk"
 Charge =  1 Multiplicity = 2

 SCF Done:  E(UB3LYP) =  -951.731697975     A.U. after   22 cycles
 Normal termination of Gaussian 16 at Wed Dec  9 23:37:17 2020.
 Gaussian 16:  ES64L-G16RevA.03 25-Dec-2016

 ----------------------------------------------------------------------
 # B3LYP/6-311++G(d,p) empiricaldispersion=gd3bj scf=xqc pop=npa geom=c
 heck
 ----------------------------------------------------------------------

 ------------------------------------
 CID_131146412_JID_3494_Energie_anion
 ------------------------------------
 Structure from the checkpoint file:  "JID_3494.chk"
 Charge = -1 Multiplicity = 2

                         Standard orientation:
 ---------------------------------------------------------------------
 Center     Atomic      Atomic             Coordinates (Angstroms)
 Number     Number       Type             X           Y           Z
 ---------------------------------------------------------------------
      1          6           0       -1.758132    1.130464   -0.164029
      2          6           0       -2.426813   -0.097701   -0.015312
      3          6           0       -1.706536   -1.281210    0.083570
      4          6           0       -0.313916   -1.209495    0.036329
      5          6           0        0.387678    0.015180   -0.107113
      6          6           0       -0.369157    1.206409   -0.219943
      7          6           0        0.274035    2.562273   -0.386761
      8          8           0        1.084230    2.939305    0.739320
      9          6           0        1.830027   -0.191585   -0.128520
     10          6           0        2.159872   -1.511159   -0.011635
     11         16           0        0.772795   -2.580283    0.111723
     12          7           0        2.739514    0.854942   -0.317326
     13          8           0       -3.791731   -0.179176    0.038465
     14          1           0       -2.341853    2.045788   -0.249571
     15          1           0       -2.230726   -2.224563    0.190331
     16          1           0        0.957632    2.570646   -1.238967
     17          1           0       -0.502217    3.319343   -0.562581
     18          1           0        0.571121    2.741173    1.539208
     19          1           0        3.156480   -1.931325    0.003794
     20          1           0        3.700507    0.569527   -0.165895
     21          1           0        2.508513    1.678728    0.237794
     22          1           0       -4.163108    0.710519   -0.062199
 ---------------------------------------------------------------------

 SCF Done:  E(UB3LYP) =  -951.985042399     A.U. after   33 cycles
 SCF Done:  E(UB3LYP) =  -951.985042399     a.u. after    1 cycles

 The electronic state is 2-A.
 Alpha  occ. eigenvalues --  -88.75810 -19.04123 -19.02098 -14.20168 -10.12270
 Alpha  occ. eigenvalues --  -10.11064 -10.10316 -10.09836 -10.07258 -10.07141
 Alpha  occ. eigenvalues --  -10.06847 -10.06011 -10.05857  -7.84436  -5.80761
 Alpha  occ. eigenvalues --   -5.80414  -5.79943  -0.95145  -0.91966  -0.81051
 Alpha  occ. eigenvalues --   -0.76305  -0.71228  -0.66306  -0.61321  -0.59836
 Alpha  occ. eigenvalues --   -0.56889  -0.50264  -0.49208  -0.45869  -0.43648
 Alpha  occ. eigenvalues --   -0.40009  -0.38759  -0.37931  -0.36890  -0.35086
 Alpha  occ. eigenvalues --   -0.33632  -0.31388  -0.30357  -0.29382  -0.28413
 Alpha  occ. eigenvalues --   -0.27868  -0.26885  -0.26188  -0.24057  -0.22486
 Alpha  occ. eigenvalues --   -0.21421  -0.19758  -0.17802  -0.14468  -0.11817
 Alpha  occ. eigenvalues --   -0.08336   0.04481
 Alpha virt. eigenvalues --    0.06533   0.07410   0.08741   0.09383   0.09533
 Alpha virt. eigenvalues --    0.09657   0.10049   0.11315   0.12695   0.13009
 Alpha virt. eigenvalues --    0.13504   0.13810   0.14341   0.15109   0.15740

  Beta  occ. eigenvalues --  -88.75808 -19.04071 -19.02024 -14.20145 -10.12245
  Beta  occ. eigenvalues --  -10.11048 -10.10306 -10.09856 -10.07202 -10.07039
  Beta  occ. eigenvalues --  -10.06809 -10.05919 -10.05795  -7.84435  -5.80757
  Beta  occ. eigenvalues --   -5.80414  -5.79940  -0.95034  -0.91791  -0.81003
  Beta  occ. eigenvalues --   -0.76234  -0.71101  -0.66130  -0.61194  -0.59746
  Beta  occ. eigenvalues --   -0.56768  -0.50150  -0.49055  -0.45773  -0.43564
  Beta  occ. eigenvalues --   -0.39945  -0.38672  -0.37838  -0.36818  -0.34995
  Beta  occ. eigenvalues --   -0.33463  -0.31306  -0.30162  -0.29330  -0.28345
  Beta  occ. eigenvalues --   -0.27750  -0.26805  -0.26112  -0.24009  -0.22404
  Beta  occ. eigenvalues --   -0.21305  -0.19553  -0.17688  -0.14081  -0.11543
  Beta  occ. eigenvalues --   -0.08060
  Beta virt. eigenvalues --    0.06985   0.07958   0.08274   0.09244   0.09630
  Beta virt. eigenvalues --    0.09805   0.10023   0.10431   0.11615   0.12766
  Beta virt. eigenvalues --    0.13245   0.13693   0.13900   0.14226   0.15260

 Mulliken charges and spin densities:
               1          2
     1  C   -0.589823   0.123326
     2  C    0.448715  -1.036822
     3  C    1.896307  -1.410747
     4  C   -0.467874   0.373824
     5  C    0.077475   0.168301
     6  C   -0.963233   2.019882
     7  C    2.007380  -2.722348
     8  O   -0.239525  -0.004445
     9  C   -0.848671   0.655316
    10  C    0.000746  -0.135918
    11  S   -0.744443   0.026197
    12  N   -0.301029   0.007099
    13  O   -0.291330   0.050239
    14  H   -0.920197   1.036653
    15  H    0.193532  -0.019165
    16  H    0.114493   0.086551
    17  H   -0.242930   0.415906
    18  H   -0.039184   0.285705
    19  H    0.025788   0.163430
    20  H   -0.001414   0.242689
    21  H    0.208706   0.071528
    22  H   -0.323491   0.602800
 Sum of Mulliken charges =  -1.00000   1.00000

 Dipole moment (field-independent basis, Debye):
    X=              4.2901    Y=             -4.9002    Z=             -0.5142  Tot=              6.5331
 Quadrupole moment (field-independent basis, Debye-Ang):
   XX=           -139.1985   YY=           -126.5760   ZZ=           -103.6891
   XY=              6.4433   XZ=             -1.9346   YZ=             -1.7645

 Summary of Natural Population Analysis:

                                       Natural Population
                Natural  -----------------------------------------------
    Atom  No    Charge         Core      Valence    Rydberg      Total
 -----------------------------------------------------------------------
      C    1   -0.12762      0.99948     2.11761    0.01052     3.12762
      C    2    0.16660      0.99938     1.82030    0.01372     2.83340
      C    3   -0.12198      0.99945     2.11150    0.01103     3.12198
      C    4   -0.07921      0.99943     2.06769    0.01208     3.07921
      C    5   -0.05639      0.99939     2.04638    0.01062     3.05639
      C    6   -0.00175      0.99948     1.99256    0.00971     3.00175
      C    7   -0.02094      0.99955     2.00825    0.01314     3.02094
      O    8   -0.37436      0.99990     3.36742    0.00705     4.37436
      C    9    0.07084      0.99942     1.91785    0.01189     2.92916
      C   10   -0.21867      0.99946     2.20776    0.01145     3.21867
      S   11    0.17030      4.99946     2.80919    0.02105     7.82970
      N   12   -0.40795      0.99971     2.89901    0.00923     3.90795
      O   13   -0.34248      0.99988     3.33573    0.00687     4.34248
      H   14    0.10217      0.00000     0.39443    0.00340     0.39783
      H   15    0.10378      0.00000     0.39499    0.00123     0.39622
      H   16    0.09605      0.00000     0.40237    0.00158     0.40395
      H   17    0.08438      0.00000     0.41400    0.00161     0.41562
      H   18    0.23509      0.00000     0.25921    0.00570     0.26491
      H   19    0.10262      0.00000     0.39640    0.00098     0.39738
      H   20    0.17881      0.00000     0.31970    0.00149     0.32119
      H   21    0.20150      0.00000     0.29610    0.00240     0.29850
      H   22    0.23919      0.00000     0.25212    0.00869     0.26081
 =======================================================================
   * Total *   -0.00000     16.99401    33.83058    0.17542    51.00000

 Normal termination of Gaussian 16 at Wed Dec  9 23:44:24 2020.
