 Gaussian 16, Revision A.03,

 -----------------------------------------------------------
 # opt freq B3LYP/6-31G(d) empiricaldispersion=gd3bj scf=xqc
 -----------------------------------------------------------

 -------------------------------
 CID_103903587_JID_9860_neutraal
 -------------------------------
 Symbolic Z-matrix:
 Charge =  0 Multiplicity = 1

 SCF Done:  E(RB3LYP) =  -828.696524897     A.U. after   15 cycles
 SCF Done:  E(RB3LYP) =  -828.717808201     A.U. after   13 cycles
 SCF Done:  E(RB3LYP) =  -828.719975696     A.U. after   12 cycles
 SCF Done:  E(RB3LYP) =  -828.719536806     A.U. after   12 cycles
 SCF Done:  E(RB3LYP) =  -828.719775431     A.U. after   13 cycles
 SCF Done:  E(RB3LYP) =  -828.720746943     A.U. after   11 cycles
 SCF Done:  E(RB3LYP) =  -828.721614633     A.U. after   12 cycles
 SCF Done:  E(RB3LYP) =  -828.721952264     A.U. after   12 cycles
 SCF Done:  E(RB3LYP) =  -828.722346230     A.U. after   11 cycles
 SCF Done:  E(RB3LYP) =  -828.722435450     A.U. after   12 cycles
 SCF Done:  E(RB3LYP) =  -828.722805997     A.U. after    8 cycles
 SCF Done:  E(RB3LYP) =  -828.722806157     A.U. after    8 cycles
 SCF Done:  E(RB3LYP) =  -828.722806243     A.U. after    7 cycles
 SCF Done:  E(RB3LYP) =  -828.722806250     A.U. after    7 cycles
 SCF Done:  E(RB3LYP) =  -828.722806268     A.U. after    6 cycles
 Optimization completed.
    -- Stationary point found.
 Normal termination of Gaussian 16 at Sat Dec 12 10:19:27 2020.

 --------------------------------------------------------------------
 #N Geom=AllCheck Guess=TCheck SCRF=Check GenChk RB3LYP/6-31G(d) Freq
 --------------------------------------------------------------------

 Structure from the checkpoint file:  "JID_9860.chk"
 -------------------------------
 CID_103903587_JID_9860_neutraal
 -------------------------------
 Charge =  0 Multiplicity = 1

 SCF Done:  E(RB3LYP) =  -828.722806268     A.U. after    1 cycles

  Exact polarizability: 196.396 -16.040 170.638  -2.418  -3.502 161.841
 Approx polarizability: 259.748 -32.569 241.955   1.166 -10.478 274.534

                      1                      2                      3
                      A                      A                      A
 Frequencies --     23.6233                28.6029                34.6898
 Red. masses --      4.7407                 2.9681                 4.0599
 Frc consts  --      0.0016                 0.0014                 0.0029
 IR Inten    --      0.2032                 0.1497                 0.5737

                      4                      5                      6
                      A                      A                      A
 Frequencies --     44.1819                59.7841                81.0530
 Red. masses --      4.4570                 3.4719                 3.5349
 Frc consts  --      0.0051                 0.0073                 0.0137
 IR Inten    --      0.0522                 0.2771                 3.9428

                      7                      8                      9
                      A                      A                      A
 Frequencies --     83.1556               115.4830               140.7572
 Red. masses --      2.4033                 4.0439                 2.4742
 Frc consts  --      0.0098                 0.0318                 0.0289
 IR Inten    --      1.9126                 2.4817                 0.5919

                     10                     11                     12
                      A                      A                      A
 Frequencies --    151.8800               164.4199               180.6712
 Red. masses --      2.7944                 1.6941                 2.7734
 Frc consts  --      0.0380                 0.0270                 0.0533
 IR Inten    --      0.7832                 1.7250                 2.3704

                     13                     14                     15
                      A                      A                      A
 Frequencies --    184.2367               224.7171               239.7908
 Red. masses --      3.1785                 3.3546                 2.0524
 Frc consts  --      0.0636                 0.0998                 0.0695
 IR Inten    --      0.4336                 0.3704                 0.8985

                     16                     17                     18
                      A                      A                      A
 Frequencies --    247.0273               257.5024               275.7164
 Red. masses --      1.1338                 3.1777                 1.4466
 Frc consts  --      0.0408                 0.1241                 0.0648
 IR Inten    --      0.0955                 0.5205                 0.4219

                     19                     20                     21
                      A                      A                      A
 Frequencies --    288.9280               332.7376               346.4252
 Red. masses --      2.2737                 3.7762                 3.5213
 Frc consts  --      0.1118                 0.2463                 0.2490
 IR Inten    --      0.5899                 8.9576                 4.4463

                     22                     23                     24
                      A                      A                      A
 Frequencies --    362.8529               369.6640               407.6543
 Red. masses --      2.8104                 2.3928                 3.0211
 Frc consts  --      0.2180                 0.1927                 0.2958
 IR Inten    --      2.1799                 3.6502                 0.2345

                     25                     26                     27
                      A                      A                      A
 Frequencies --    442.7132               463.0735               485.5521
 Red. masses --      3.7780                 2.8478                 3.9920
 Frc consts  --      0.4363                 0.3598                 0.5545
 IR Inten    --      1.2626                 5.4714                 2.9746

                     28                     29                     30
                      A                      A                      A
 Frequencies --    514.8986               524.9294               547.2094
 Red. masses --      3.4358                 2.8256                 3.3523
 Frc consts  --      0.5367                 0.4587                 0.5914
 IR Inten    --      3.3968                 1.1020                 0.5791

                     31                     32                     33
                      A                      A                      A
 Frequencies --    581.6988               601.5507               611.0775
 Red. masses --      3.0112                 1.2050                 1.2058
 Frc consts  --      0.6003                 0.2569                 0.2653
 IR Inten    --      1.8488                45.8570                52.6172

                     34                     35                     36
                      A                      A                      A
 Frequencies --    627.2486               662.0983               687.7124
 Red. masses --      3.5377                 2.5094                 3.7595
 Frc consts  --      0.8201                 0.6481                 1.0476
 IR Inten    --      4.1727                58.7725                29.3879

                     37                     38                     39
                      A                      A                      A
 Frequencies --    726.6492               738.5612               758.5731
 Red. masses --      1.9120                 2.1397                 3.5877
 Frc consts  --      0.5948                 0.6876                 1.2164
 IR Inten    --     15.8932                14.6014                30.9853

                     40                     41                     42
                      A                      A                      A
 Frequencies --    775.8874               814.0951               823.4357
 Red. masses --      4.5737                 2.6165                 1.5017
 Frc consts  --      1.6222                 1.0217                 0.5999
 IR Inten    --     12.7286                19.5645                24.6033

                     43                     44                     45
                      A                      A                      A
 Frequencies --    856.2370               904.1588               916.5634
 Red. masses --      2.0534                 1.5686                 2.0693
 Frc consts  --      0.8870                 0.7555                 1.0243
 IR Inten    --      4.3018                 9.5327                10.1250

                     46                     47                     48
                      A                      A                      A
 Frequencies --    922.6858               927.2779               945.7674
 Red. masses --      1.8823                 1.4635                 2.2874
 Frc consts  --      0.9442                 0.7414                 1.2055
 IR Inten    --     12.4751                 6.4102                 2.4389

                     49                     50                     51
                      A                      A                      A
 Frequencies --    981.5042              1021.2026              1050.1833
 Red. masses --      1.7790                 1.9587                 2.3274
 Frc consts  --      1.0097                 1.2035                 1.5123
 IR Inten    --      1.3803                 6.8153                62.1941

                     52                     53                     54
                      A                      A                      A
 Frequencies --   1062.9857              1076.0982              1083.4008
 Red. masses --      3.3934                 2.0696                 3.9967
 Frc consts  --      2.2591                 1.4120                 2.7639
 IR Inten    --     25.7868                 5.4655                25.4577

                     55                     56                     57
                      A                      A                      A
 Frequencies --   1106.0037              1110.9845              1150.0496
 Red. masses --      2.2136                 2.9114                 1.9278
 Frc consts  --      1.5954                 2.1173                 1.5023
 IR Inten    --      4.1169                 5.7384                18.6587

                     58                     59                     60
                      A                      A                      A
 Frequencies --   1157.2662              1170.3000              1186.2578
 Red. masses --      2.4538                 1.7738                 1.2621
 Frc consts  --      1.9362                 1.4313                 1.0464
 IR Inten    --     32.4075                93.5345                 4.9466

                     61                     62                     63
                      A                      A                      A
 Frequencies --   1187.3158              1192.8397              1216.8473
 Red. masses --      1.2695                 1.6856                 1.3391
 Frc consts  --      1.0544                 1.4131                 1.1682
 IR Inten    --      1.6230                20.8026                 5.1030

                     64                     65                     66
                      A                      A                      A
 Frequencies --   1221.8090              1224.1585              1240.7124
 Red. masses --      1.3921                 1.3932                 1.4685
 Frc consts  --      1.2244                 1.2301                 1.3319
 IR Inten    --      2.5386                 2.0179                13.6820

                     67                     68                     69
                      A                      A                      A
 Frequencies --   1267.0067              1286.6315              1303.8197
 Red. masses --      2.5492                 1.3263                 1.4071
 Frc consts  --      2.4110                 1.2936                 1.4093
 IR Inten    --     86.9323                 6.7439                 2.9390

                     70                     71                     72
                      A                      A                      A
 Frequencies --   1314.6036              1328.3752              1347.6157
 Red. masses --      4.4316                 1.1906                 2.2489
 Frc consts  --      4.5123                 1.2378                 2.4064
 IR Inten    --    291.6032                 1.0685                18.0638

                     73                     74                     75
                      A                      A                      A
 Frequencies --   1366.6009              1375.8099              1387.9040
 Red. masses --      1.4945                 1.6607                 1.3624
 Frc consts  --      1.6445                 1.8520                 1.5462
 IR Inten    --     15.4265                13.0588                12.5490

                     76                     77                     78
                      A                      A                      A
 Frequencies --   1394.0639              1415.1706              1425.0413
 Red. masses --      1.6821                 1.3744                 1.2968
 Frc consts  --      1.9261                 1.6218                 1.5516
 IR Inten    --     22.8359                 4.2131                 3.8920

                     79                     80                     81
                      A                      A                      A
 Frequencies --   1432.4763              1468.1107              1495.7282
 Red. masses --      1.2504                 1.9866                 1.2329
 Frc consts  --      1.5117                 2.5228                 1.6252
 IR Inten    --      6.1430                22.8882                14.8367

                     82                     83                     84
                      A                      A                      A
 Frequencies --   1500.3642              1505.9107              1507.0290
 Red. masses --      1.0892                 1.1341                 1.3829
 Frc consts  --      1.4446                 1.5153                 1.8505
 IR Inten    --     14.6354                 9.9456                 9.8207

                     85                     86                     87
                      A                      A                      A
 Frequencies --   1514.1837              1517.4026              1520.6905
 Red. masses --      1.0641                 1.0818                 1.0479
 Frc consts  --      1.4375                 1.4676                 1.4277
 IR Inten    --      6.0848                 4.1567                 5.6081

                     88                     89                     90
                      A                      A                      A
 Frequencies --   1522.2862              1524.3353              1525.2535
 Red. masses --      1.0742                 1.0753                 1.0768
 Frc consts  --      1.4667                 1.4721                 1.4759
 IR Inten    --      6.5631                 8.1640                 3.4096

                     91                     92                     93
                      A                      A                      A
 Frequencies --   1532.8655              1535.8241              1541.7637
 Red. masses --      1.1340                 1.0780                 1.0526
 Frc consts  --      1.5699                 1.4981                 1.4741
 IR Inten    --     22.3426                43.9535                 3.4310

                     94                     95                     96
                      A                      A                      A
 Frequencies --   1561.7772              1636.7575              1669.4566
 Red. masses --      2.6535                 6.6865                 6.1609
 Frc consts  --      3.8134                10.5540                10.1168
 IR Inten    --    143.0878                 7.6205                14.0313

                     97                     98                     99
                      A                      A                      A
 Frequencies --   2240.2578              3026.3731              3032.7623
 Red. masses --      5.9814                 1.0348                 1.0414
 Frc consts  --     17.6867                 5.5840                 5.6433
 IR Inten    --      2.4263                61.4375                45.5955

                    100                    101                    102
                      A                      A                      A
 Frequencies --   3033.0205              3035.7487              3039.3285
 Red. masses --      1.0639                 1.0767                 1.0649
 Frc consts  --      5.7663                 5.8463                 5.7957
 IR Inten    --     34.3999                21.7116                35.8857

                    103                    104                    105
                      A                      A                      A
 Frequencies --   3051.0047              3051.3295              3055.5518
 Red. masses --      1.0382                 1.0685                 1.0681
 Frc consts  --      5.6937                 5.8612                 5.8754
 IR Inten    --     24.2264                22.2358                 8.2744

                    106                    107                    108
                      A                      A                      A
 Frequencies --   3068.1618              3076.6555              3085.5675
 Red. masses --      1.0929                 1.1010                 1.1065
 Frc consts  --      6.0616                 6.1402                 6.2069
 IR Inten    --     40.7035                25.9858                40.2200

                    109                    110                    111
                      A                      A                      A
 Frequencies --   3093.2184              3113.4099              3116.4305
 Red. masses --      1.1019                 1.0947                 1.0983
 Frc consts  --      6.2116                 6.2521                 6.2849
 IR Inten    --     40.1694                42.0983                33.0870

                    112                    113                    114
                      A                      A                      A
 Frequencies --   3122.1977              3140.8048              3154.3071
 Red. masses --      1.0954                 1.1040                 1.1054
 Frc consts  --      6.2914                 6.4164                 6.4798
 IR Inten    --     31.7024                29.4253                27.2482

                    115                    116                    117
                      A                      A                      A
 Frequencies --   3160.4326              3180.2809              3191.6261
 Red. masses --      1.0999                 1.0889                 1.0894
 Frc consts  --      6.4727                 6.4890                 6.5382
 IR Inten    --     26.1044                12.5234                 8.8939

                    118                    119                    120
                      A                      A                      A
 Frequencies --   3224.8771              3496.8899              3497.8992
 Red. masses --      1.0909                 1.1593                 1.0734
 Frc consts  --      6.6845                 8.3524                 7.7378
 IR Inten    --     13.2549                56.4643                 2.1870

 - Thermochemistry -
 -------------------
 Temperature   298.150 Kelvin.  Pressure   1.00000 Atm.
 Atom     1 has atomic number  6 and mass  12.00000

 Molecular mass:   261.17288 amu.
 Principal axes and moments of inertia in atomic units:
                           1         2         3
     Eigenvalues --  3843.905557860.249749452.98378
           X            0.99986  -0.01335  -0.01048
           Y            0.01340   0.99990   0.00522
           Z            0.01041  -0.00536   0.99993
 This molecule is an asymmetric top.
 Rotational symmetry number  1.
 Warning -- assumption of classical behavior for rotation
           may cause significant error
 Rotational temperatures (Kelvin)      0.02253     0.01102     0.00916
 Rotational constants (GHZ):           0.46951     0.22960     0.19092
 Zero-point vibrational energy     956762.0 (Joules/Mol)
                                  228.67162 (Kcal/Mol)
 Warning -- explicit consideration of  33 degrees of freedom as
           vibrations may cause significant error
 Vibrational temperatures:     33.99    41.15    49.91    63.57    86.02
          (Kelvin)            116.62   119.64   166.15   202.52   218.52
                              236.56   259.95   265.08   323.32   345.01
                              355.42   370.49   396.69   415.70   478.74
                              498.43   522.06   531.86   586.52   636.97
                              666.26   698.60   740.82   755.26   787.31
                              836.93   865.50   879.20   902.47   952.61
                              989.46  1045.49  1062.62  1091.42  1116.33
                             1171.30  1184.74  1231.93  1300.88  1318.73
                             1327.54  1334.15  1360.75  1412.17  1469.28
                             1510.98  1529.40  1548.27  1558.77  1591.29
                             1598.46  1654.66  1665.05  1683.80  1706.76
                             1708.28  1716.23  1750.77  1757.91  1761.29
                             1785.11  1822.94  1851.18  1875.91  1891.42
                             1911.24  1938.92  1966.23  1979.48  1996.88
                             2005.75  2036.11  2050.32  2061.01  2112.28
                             2152.02  2158.69  2166.67  2168.28  2178.57
                             2183.20  2187.93  2190.23  2193.18  2194.50
                             2205.45  2209.71  2218.25  2247.05  2354.93
                             2401.98  3223.23  4354.28  4363.47  4363.84
                             4367.77  4372.92  4389.72  4390.18  4396.26
                             4414.40  4426.62  4439.44  4450.45  4479.50
                             4483.85  4492.15  4518.92  4538.34  4547.16
                             4575.71  4592.04  4639.88  5031.24  5032.70

 Zero-point correction=                           0.364411 (Hartree/Particle)
 Thermal correction to Energy=                    0.385175
 Thermal correction to Enthalpy=                  0.386119
 Thermal correction to Gibbs Free Energy=         0.313328
 Sum of electronic and zero-point Energies=           -828.358395
 Sum of electronic and thermal Energies=              -828.337631
 Sum of electronic and thermal Enthalpies=            -828.336687
 Sum of electronic and thermal Free Energies=         -828.409478

                     E (Thermal)             CV                S
                      KCal/Mol        Cal/Mol-Kelvin    Cal/Mol-Kelvin
 Total                  241.701             77.268            153.201
 Electronic               0.000              0.000              0.000
 Translational            0.889              2.981             42.580
 Rotational               0.889              2.981             34.012
 Vibrational            239.923             71.306             76.609
 Vibration     1          0.593              1.985              6.304
 Vibration     2          0.593              1.984              5.924
 Vibration     3          0.594              1.983              5.541
 Vibration     4          0.595              1.980              5.062
 Vibration     5          0.597              1.973              4.464
 Vibration     6          0.600              1.962              3.865
 Vibration     7          0.600              1.961              3.815
 Vibration     8          0.608              1.937              3.175
 Vibration     9          0.615              1.913              2.794
 Vibration    10          0.619              1.901              2.649
 Vibration    11          0.623              1.886              2.498
 Vibration    12          0.630              1.866              2.321
 Vibration    13          0.631              1.861              2.285
 Vibration    14          0.649              1.803              1.921
 Vibration    15          0.657              1.780              1.804
 Vibration    16          0.661              1.768              1.752
 Vibration    17          0.667              1.750              1.679
 Vibration    18          0.677              1.718              1.560
 Vibration    19          0.685              1.694              1.480
 Vibration    20          0.715              1.610              1.247
 Vibration    21          0.724              1.583              1.182
 Vibration    22          0.737              1.549              1.110
 Vibration    23          0.742              1.535              1.081
 Vibration    24          0.772              1.454              0.935
 Vibration    25          0.802              1.377              0.818
 Vibration    26          0.821              1.332              0.757
 Vibration    27          0.842              1.282              0.695
 Vibration    28          0.870              1.217              0.622
 Vibration    29          0.880              1.195              0.599
 Vibration    30          0.902              1.146              0.550
 Vibration    31          0.938              1.071              0.482
 Vibration    32          0.960              1.029              0.447
 Vibration    33          0.970              1.008              0.431

 Optimization completed.
    -- Stationary point found.
 Normal termination of Gaussian 16 at Sat Dec 12 10:41:10 2020.

 ----------------------------------------------------------------------
 # B3LYP/6-311++G(d,p) empiricaldispersion=gd3bj scf=xqc pop=npa geom=c
 heck
 ----------------------------------------------------------------------

 ---------------------------------------
 CID_103903587_JID_9860_Energie_neutraal
 ---------------------------------------
 Structure from the checkpoint file:  "JID_9860.chk"
 Charge =  0 Multiplicity = 1

 SCF Done:  E(RB3LYP) =  -828.957923782     A.U. after   15 cycles
 Normal termination of Gaussian 16 at Sat Dec 12 10:50:32 2020.

 ----------------------------------------------------------------------
 # B3LYP/6-311++G(d,p) empiricaldispersion=gd3bj scf=xqc pop=npa geom=c
 heck
 ----------------------------------------------------------------------

 -------------------------------------
 CID_103903587_JID_9860_Energie_kation
 -------------------------------------
 Structure from the checkpoint file:  "JID_9860.chk"
 Charge =  1 Multiplicity = 2

 SCF Done:  E(UB3LYP) =  -828.683014611     A.U. after   24 cycles
 Normal termination of Gaussian 16 at Sat Dec 12 11:10:53 2020.
 Gaussian 16:  ES64L-G16RevA.03 25-Dec-2016

 ----------------------------------------------------------------------
 # B3LYP/6-311++G(d,p) empiricaldispersion=gd3bj scf=xqc pop=npa geom=c
 heck
 ----------------------------------------------------------------------

 ------------------------------------
 CID_103903587_JID_9860_Energie_anion
 ------------------------------------
 Structure from the checkpoint file:  "JID_9860.chk"
 Charge = -1 Multiplicity = 2

                         Standard orientation:
 ---------------------------------------------------------------------
 Center     Atomic      Atomic             Coordinates (Angstroms)
 Number     Number       Type             X           Y           Z
 ---------------------------------------------------------------------
      1          6           0       -0.402124    3.584218    1.176326
      2          6           0       -0.630810    2.574660    0.045708
      3          6           0        0.542791    1.609601   -0.085528
      4          6           0        0.883820    0.747947    0.966577
      5          6           0        1.900098   -0.188142    0.842754
      6          6           0        2.632572   -0.273596   -0.362845
      7          6           0        2.309647    0.587029   -1.412451
      8          6           0        1.273616    1.516523   -1.266948
      9          8           0        3.625859   -1.210439   -0.396836
     10          6           0        4.395977   -1.310218   -1.582575
     11          8           0        2.205370   -0.984996    1.919514
     12          6           0        1.887211   -2.367550    1.751116
     13          7           0       -1.945369    1.952329    0.236706
     14          6           0       -2.451020    1.103207   -0.842676
     15          6           0       -1.891252   -0.327262   -0.985493
     16          6           0       -2.033056   -1.193763    0.270822
     17          6           0       -3.482386   -1.347616    0.784086
     18          6           0       -4.395285   -1.886310   -0.223453
     19          6           0       -5.129000   -2.326374   -1.075840
     20          1           0       -0.347531    3.078245    2.148214
     21          1           0       -1.228135    4.300390    1.211990
     22          1           0        0.540246    4.122171    1.032262
     23          1           0       -0.698502    3.131508   -0.898475
     24          1           0        0.352740    0.779972    1.913918
     25          1           0        2.857476    0.543492   -2.346548
     26          1           0        1.029282    2.169269   -2.101440
     27          1           0        3.774293   -1.584151   -2.445305
     28          1           0        4.918953   -0.370031   -1.800571
     29          1           0        5.128346   -2.097865   -1.398471
     30          1           0        0.816539   -2.495806    1.541446
     31          1           0        2.474388   -2.816982    0.944647
     32          1           0        2.131968   -2.852864    2.698516
     33          1           0       -1.971614    1.460914    1.127873
     34          1           0       -3.540986    1.041101   -0.726130
     35          1           0       -2.281446    1.644108   -1.781866
     36          1           0       -2.432549   -0.811277   -1.808715
     37          1           0       -0.835738   -0.295989   -1.269225
     38          1           0       -1.625465   -2.190400    0.063180
     39          1           0       -1.427701   -0.777626    1.084833
     40          1           0       -3.484662   -2.001295    1.666258
     41          1           0       -3.862344   -0.375933    1.127289
     42          1           0       -5.784602   -2.717889   -1.819520
 ---------------------------------------------------------------------

 SCF Done:  E(UB3LYP) =  -828.946360703     A.U. after   33 cycles
 SCF Done:  E(UB3LYP) =  -828.946360703     a.u. after    1 cycles

 The electronic state is 2-A.
 Alpha  occ. eigenvalues --  -19.06534 -19.04887 -14.21072 -10.14562 -10.13808
 Alpha  occ. eigenvalues --  -10.12789 -10.12196 -10.11993 -10.11023 -10.10377
 Alpha  occ. eigenvalues --  -10.09555 -10.08618 -10.08584 -10.08548 -10.08416
 Alpha  occ. eigenvalues --  -10.08370 -10.08127 -10.07829 -10.07152  -0.98577
 Alpha  occ. eigenvalues --   -0.95978  -0.82480  -0.76552  -0.73036  -0.69286
 Alpha  occ. eigenvalues --   -0.66916  -0.66533  -0.64900  -0.62249  -0.61293
 Alpha  occ. eigenvalues --   -0.59289  -0.56625  -0.53765  -0.51860  -0.49314
 Alpha  occ. eigenvalues --   -0.48855  -0.44962  -0.44860  -0.41984  -0.41417
 Alpha  occ. eigenvalues --   -0.40094  -0.39462  -0.38343  -0.37918  -0.37357
 Alpha  occ. eigenvalues --   -0.36537  -0.35817  -0.35241  -0.34764  -0.33781
 Alpha  occ. eigenvalues --   -0.33128  -0.32725  -0.32062  -0.30937  -0.29774
 Alpha  occ. eigenvalues --   -0.28906  -0.28426  -0.27605  -0.26723  -0.26117
 Alpha  occ. eigenvalues --   -0.25555  -0.25205  -0.24850  -0.24049  -0.22452
 Alpha  occ. eigenvalues --   -0.19378  -0.19283  -0.19246  -0.16113  -0.14221
 Alpha  occ. eigenvalues --   -0.12661   0.03920
 Alpha virt. eigenvalues --    0.05405   0.06283   0.06379   0.07156   0.07437
 Alpha virt. eigenvalues --    0.07666   0.08168   0.08636   0.08842   0.08944
 Alpha virt. eigenvalues --    0.09683   0.09853   0.10167   0.10514   0.10806

  Beta  occ. eigenvalues --  -19.06525 -19.04883 -14.21064 -10.14560 -10.13807
  Beta  occ. eigenvalues --  -10.12733 -10.12173 -10.11989 -10.10998 -10.10371
  Beta  occ. eigenvalues --  -10.09555 -10.08618 -10.08570 -10.08532 -10.08406
  Beta  occ. eigenvalues --  -10.08362 -10.08116 -10.07820 -10.07148  -0.98558
  Beta  occ. eigenvalues --   -0.95965  -0.82467  -0.76538  -0.73010  -0.69269
  Beta  occ. eigenvalues --   -0.66894  -0.66511  -0.64873  -0.62215  -0.61248
  Beta  occ. eigenvalues --   -0.59252  -0.56592  -0.53730  -0.51827  -0.49289
  Beta  occ. eigenvalues --   -0.48827  -0.44934  -0.44823  -0.41962  -0.41390
  Beta  occ. eigenvalues --   -0.40074  -0.39434  -0.38313  -0.37902  -0.37330
  Beta  occ. eigenvalues --   -0.36511  -0.35789  -0.35206  -0.34739  -0.33756
  Beta  occ. eigenvalues --   -0.33096  -0.32695  -0.32042  -0.30917  -0.29749
  Beta  occ. eigenvalues --   -0.28882  -0.28408  -0.27586  -0.26702  -0.26085
  Beta  occ. eigenvalues --   -0.25534  -0.25188  -0.24832  -0.24014  -0.22432
  Beta  occ. eigenvalues --   -0.19353  -0.19266  -0.19230  -0.16095  -0.14210
  Beta  occ. eigenvalues --   -0.12647
  Beta virt. eigenvalues --    0.05763   0.06412   0.06600   0.06733   0.07323
  Beta virt. eigenvalues --    0.07807   0.07921   0.08386   0.08752   0.09115
  Beta virt. eigenvalues --    0.09205   0.09999   0.10070   0.10340   0.10736

 Mulliken charges and spin densities:
               1          2
     1  C   -0.210144  -0.401600
     2  C   -0.953544  -0.028661
     3  C    1.803246  -0.429104
     4  C   -0.256209   0.252449
     5  C   -0.799723   0.187106
     6  C   -0.192091  -0.212737
     7  C   -0.184916  -0.060851
     8  C    0.304066  -0.490602
     9  O   -0.233637   0.065483
    10  C    1.138935  -1.479753
    11  O   -0.143439   0.019464
    12  C    0.294406  -0.578298
    13  N    0.117049  -0.018869
    14  C   -0.068663  -0.449579
    15  C   -0.059261   0.249800
    16  C   -0.360424  -0.080498
    17  C   -0.259233  -0.285311
    18  C    0.940759  -0.588871
    19  C   -0.349323  -0.067239
    20  H    0.031616   0.110941
    21  H    0.064658   0.089488
    22  H    0.113338   0.024825
    23  H    0.059795   0.103371
    24  H    0.037020   0.181879
    25  H   -0.501390   0.726438
    26  H   -0.291554   0.442973
    27  H   -0.351624   0.516471
    28  H   -0.273532   0.423593
    29  H   -0.545606   0.727378
    30  H   -0.161844   0.286728
    31  H    0.004505   0.163881
    32  H   -0.075808   0.216656
    33  H    0.195487   0.057790
    34  H    0.136426   0.075790
    35  H    0.131640  -0.014453
    36  H    0.057616   0.141136
    37  H    0.353186  -0.155401
    38  H   -0.094571   0.227915
    39  H   -0.050409   0.154939
    40  H   -0.333753   0.541209
    41  H    0.020675   0.128824
    42  H   -0.053727   0.225302
 Sum of Mulliken charges =  -1.00000   1.00000

 Dipole moment (field-independent basis, Debye):
    X=             -4.4946    Y=              3.7541    Z=              1.6441  Tot=              6.0826
 Quadrupole moment (field-independent basis, Debye-Ang):
   XX=           -212.5110   YY=           -166.5110   ZZ=           -163.3930
   XY=              4.5896   XZ=             20.0020   YZ=              1.4265

 Summary of Natural Population Analysis:

                                       Natural Population
                Natural  -----------------------------------------------
    Atom  No    Charge         Core      Valence    Rydberg      Total
 -----------------------------------------------------------------------
      C    1   -0.28164      0.99965     2.27710    0.00490     3.28164
      C    2   -0.01320      0.99956     2.00157    0.01206     3.01320
      C    3   -0.03480      0.99949     2.02330    0.01201     3.03480
      C    4   -0.11651      0.99946     2.10776    0.00929     3.11651
      C    5    0.13868      0.99934     1.84710    0.01488     2.86132
      C    6    0.14281      0.99934     1.84465    0.01320     2.85719
      C    7   -0.13583      0.99953     2.12690    0.00939     3.13583
      C    8   -0.09890      0.99951     2.08913    0.01026     3.09890
      O    9   -0.27205      0.99986     3.26163    0.01057     4.27205
      C   10   -0.10030      0.99960     2.09158    0.00912     3.10030
      O   11   -0.28626      0.99986     3.27646    0.00993     4.28626
      C   12   -0.09803      0.99959     2.08976    0.00869     3.09803
      N   13   -0.34161      0.99974     2.83051    0.01135     3.84161
      C   14   -0.08796      0.99962     2.07771    0.01063     3.08796
      C   15   -0.20508      0.99961     2.19786    0.00761     3.20508
      C   16   -0.18635      0.99962     2.17692    0.00982     3.18635
      C   17   -0.23519      0.99956     2.22627    0.00936     3.23519
      C   18    0.00901      0.99938     1.98398    0.00763     2.99099
      C   19   -0.13427      0.99927     2.13131    0.00369     3.13427
      H   20    0.09638      0.00000     0.40271    0.00091     0.40362
      H   21    0.10184      0.00000     0.39717    0.00099     0.39816
      H   22    0.10105      0.00000     0.39823    0.00072     0.39895
      H   23    0.09218      0.00000     0.40605    0.00177     0.40782
      H   24    0.10402      0.00000     0.39399    0.00199     0.39598
      H   25    0.10985      0.00000     0.38847    0.00168     0.39015
      H   26    0.10047      0.00000     0.39822    0.00131     0.39953
      H   27    0.08692      0.00000     0.41081    0.00227     0.41308
      H   28    0.08632      0.00000     0.41166    0.00202     0.41368
      H   29    0.09594      0.00000     0.40257    0.00148     0.40406
      H   30    0.08178      0.00000     0.41665    0.00157     0.41822
      H   31    0.09093      0.00000     0.40731    0.00176     0.40907
      H   32    0.08826      0.00000     0.41071    0.00103     0.41174
      H   33    0.17005      0.00000     0.32670    0.00325     0.32995
      H   34    0.09194      0.00000     0.40687    0.00119     0.40806
      H   35    0.09345      0.00000     0.40549    0.00106     0.40655
      H   36    0.10119      0.00000     0.39773    0.00108     0.39881
      H   37    0.10651      0.00000     0.39149    0.00200     0.39349
      H   38    0.10175      0.00000     0.39680    0.00145     0.39825
      H   39    0.09947      0.00000     0.39874    0.00180     0.40053
      H   40    0.11714      0.00000     0.38105    0.00181     0.38286
      H   41    0.10997      0.00000     0.38861    0.00142     0.39003
      H   42    0.11007      0.00000     0.38888    0.00105     0.38993
 =======================================================================
   * Total *    0.00000     18.99160    51.78841    0.21999    71.00000

 Normal termination of Gaussian 16 at Sat Dec 12 11:38:12 2020.
