 Gaussian 16, Revision A.03,

 -----------------------------------------------------------
 # opt freq B3LYP/6-31G(d) empiricaldispersion=gd3bj scf=xqc
 -----------------------------------------------------------

 ------------------------------
 CID_55032574_JID_7911_neutraal
 ------------------------------
 Symbolic Z-matrix:
 Charge =  0 Multiplicity = 1

 SCF Done:  E(RB3LYP) =  -1049.64068957     A.U. after   15 cycles
 SCF Done:  E(RB3LYP) =  -1049.64466811     A.U. after   12 cycles
 SCF Done:  E(RB3LYP) =  -1049.64181987     A.U. after   13 cycles
 SCF Done:  E(RB3LYP) =  -1049.64504357     A.U. after   13 cycles
 SCF Done:  E(RB3LYP) =  -1049.64604503     A.U. after   13 cycles
 SCF Done:  E(RB3LYP) =  -1049.64673321     A.U. after   13 cycles
 SCF Done:  E(RB3LYP) =  -1049.64180867     A.U. after   16 cycles
 SCF Done:  E(RB3LYP) =  -1049.64616642     A.U. after   13 cycles
 SCF Done:  E(RB3LYP) =  -1049.64702293     A.U. after   11 cycles
 SCF Done:  E(RB3LYP) =  -1049.64580649     A.U. after   13 cycles
 SCF Done:  E(RB3LYP) =  -1049.64750256     A.U. after   10 cycles
 SCF Done:  E(RB3LYP) =  -1049.64750322     A.U. after    8 cycles
 SCF Done:  E(RB3LYP) =  -1049.64750330     A.U. after    7 cycles
 SCF Done:  E(RB3LYP) =  -1049.64750328     A.U. after    7 cycles
 Optimization completed.
    -- Stationary point found.
 Normal termination of Gaussian 16 at Fri Dec 11 13:12:20 2020.

 --------------------------------------------------------------------
 #N Geom=AllCheck Guess=TCheck SCRF=Check GenChk RB3LYP/6-31G(d) Freq
 --------------------------------------------------------------------

 Structure from the checkpoint file:  "JID_7911.chk"
 ------------------------------
 CID_55032574_JID_7911_neutraal
 ------------------------------
 Charge =  0 Multiplicity = 1

 SCF Done:  E(RB3LYP) =  -1049.64750328     A.U. after    1 cycles

  Exact polarizability: 175.457 -19.984 160.189  36.749  15.305 138.726
 Approx polarizability: 270.764 -42.140 270.643  93.301  33.765 255.113

                      1                      2                      3
                      A                      A                      A
 Frequencies --     20.1872                31.3653                62.4100
 Red. masses --      4.3182                 7.6811                 4.1623
 Frc consts  --      0.0010                 0.0045                 0.0096
 IR Inten    --      0.6833                 1.4657                 0.2974

                      4                      5                      6
                      A                      A                      A
 Frequencies --     72.1275                81.6110               134.9541
 Red. masses --      5.5469                 7.1183                 5.9226
 Frc consts  --      0.0170                 0.0279                 0.0636
 IR Inten    --      1.1103                 0.1001                 4.7279

                      7                      8                      9
                      A                      A                      A
 Frequencies --    148.8645               175.8308               207.5479
 Red. masses --      5.7884                 3.9006                 3.8791
 Frc consts  --      0.0756                 0.0711                 0.0985
 IR Inten    --      1.6180                 1.0085                 0.2500

                     10                     11                     12
                      A                      A                      A
 Frequencies --    225.1144               259.9605               272.3651
 Red. masses --      2.4427                 1.6104                 2.1994
 Frc consts  --      0.0729                 0.0641                 0.0961
 IR Inten    --      1.2180                 0.3727                 0.7709

                     13                     14                     15
                      A                      A                      A
 Frequencies --    345.8250               356.2685               395.9797
 Red. masses --      3.2196                 2.3925                 4.4541
 Frc consts  --      0.2269                 0.1789                 0.4115
 IR Inten    --      1.5057                 3.0530                 1.7176

                     16                     17                     18
                      A                      A                      A
 Frequencies --    438.4595               454.5371               467.3218
 Red. masses --      4.4434                 3.9839                 8.2407
 Frc consts  --      0.5033                 0.4850                 1.0603
 IR Inten    --      1.5060                 1.7183                 0.2720

                     19                     20                     21
                      A                      A                      A
 Frequencies --    472.3862               525.0407               556.9706
 Red. masses --      4.1788                 3.8766                 3.7421
 Frc consts  --      0.5494                 0.6296                 0.6840
 IR Inten    --      1.2602                 2.1973                13.2454

                     22                     23                     24
                      A                      A                      A
 Frequencies --    571.0288               583.7919               647.7781
 Red. masses --      6.9184                 3.3610                 3.4564
 Frc consts  --      1.3291                 0.6749                 0.8545
 IR Inten    --      1.3057                10.5036                16.8546

                     25                     26                     27
                      A                      A                      A
 Frequencies --    659.6208               671.2153               683.6469
 Red. masses --      3.6128                 2.1755                 1.4623
 Frc consts  --      0.9261                 0.5775                 0.4027
 IR Inten    --     15.2428                22.3374                 0.9162

                     28                     29                     30
                      A                      A                      A
 Frequencies --    707.1818               721.2651               762.4397
 Red. masses --      2.2051                 4.1423                 2.8391
 Frc consts  --      0.6497                 1.2696                 0.9724
 IR Inten    --     17.9472                31.3047                88.1465

                     31                     32                     33
                      A                      A                      A
 Frequencies --    788.3841               809.5307               838.7086
 Red. masses --      1.4481                 1.6253                 4.2090
 Frc consts  --      0.5303                 0.6276                 1.7444
 IR Inten    --     66.0107                18.4790                20.5175

                     34                     35                     36
                      A                      A                      A
 Frequencies --    875.5371               882.0875               885.9865
 Red. masses --      4.0996                 1.6683                 1.3392
 Frc consts  --      1.8516                 0.7648                 0.6194
 IR Inten    --     10.4589                 6.0219                 1.0222

                     37                     38                     39
                      A                      A                      A
 Frequencies --    909.7079               927.1178               937.7071
 Red. masses --      1.7622                 1.5922                 2.3575
 Frc consts  --      0.8592                 0.8063                 1.2213
 IR Inten    --     11.1007                 2.4523                 5.2111

                     40                     41                     42
                      A                      A                      A
 Frequencies --    947.5300               980.8798               987.4267
 Red. masses --      2.9044                 1.3228                 1.5400
 Frc consts  --      1.5364                 0.7498                 0.8846
 IR Inten    --      2.1261                 0.5258                 5.5026

                     43                     44                     45
                      A                      A                      A
 Frequencies --   1022.7725              1054.6216              1096.8724
 Red. masses --      6.2097                 2.1753                 2.2818
 Frc consts  --      3.8272                 1.4255                 1.6175
 IR Inten    --      0.2317                16.2448                 7.0879

                     46                     47                     48
                      A                      A                      A
 Frequencies --   1117.0054              1121.2049              1146.3891
 Red. masses --      1.1868                 1.6506                 1.8227
 Frc consts  --      0.8724                 1.2225                 1.4113
 IR Inten    --      2.3392                 4.7600                 8.6983

                     49                     50                     51
                      A                      A                      A
 Frequencies --   1153.0679              1179.5561              1199.6898
 Red. masses --      3.1013                 1.8103                 1.6524
 Frc consts  --      2.4294                 1.4840                 1.4012
 IR Inten    --     45.1010                 6.8076                13.6084

                     52                     53                     54
                      A                      A                      A
 Frequencies --   1208.9206              1238.9747              1270.2622
 Red. masses --      1.1285                 1.3580                 3.8813
 Frc consts  --      0.9717                 1.2282                 3.6899
 IR Inten    --      0.4706                 5.4433                 2.1248

                     55                     56                     57
                      A                      A                      A
 Frequencies --   1288.4251              1341.2300              1346.2215
 Red. masses --      1.6386                 1.5989                 1.4669
 Frc consts  --      1.6027                 1.6946                 1.5664
 IR Inten    --      7.7457                 3.6938                12.2192

                     58                     59                     60
                      A                      A                      A
 Frequencies --   1366.3762              1378.0748              1396.5343
 Red. masses --      2.7239                 1.3037                 1.3840
 Frc consts  --      2.9962                 1.4587                 1.5903
 IR Inten    --      0.4029                 4.6618                13.6321

                     61                     62                     63
                      A                      A                      A
 Frequencies --   1428.7596              1438.5615              1470.5714
 Red. masses --      1.4713                 1.8416                 4.7842
 Frc consts  --      1.7696                 2.2455                 6.0959
 IR Inten    --      3.2769                 6.7598                 7.9111

                     64                     65                     66
                      A                      A                      A
 Frequencies --   1478.9436              1497.4919              1511.4695
 Red. masses --      2.7683                 1.1009                 1.1109
 Frc consts  --      3.5675                 1.4546                 1.4953
 IR Inten    --      5.2855                 3.4032                13.8242

                     67                     68                     69
                      A                      A                      A
 Frequencies --   1521.6239              1533.1047              1534.3660
 Red. masses --      1.0539                 1.2168                 2.0695
 Frc consts  --      1.4377                 1.6851                 2.8706
 IR Inten    --     10.2428                14.0213                 2.9965

                     70                     71                     72
                      A                      A                      A
 Frequencies --   1592.6045              1641.5073              1660.6389
 Red. masses --      5.4025                 5.3631                 5.6403
 Frc consts  --      8.0735                 8.5143                 9.1643
 IR Inten    --      0.0647                 3.7445                 0.9379

                     73                     74                     75
                      A                      A                      A
 Frequencies --   2350.0637              3033.4059              3047.2898
 Red. masses --     12.6808                 1.0833                 1.0614
 Frc consts  --     41.2624                 5.8728                 5.8070
 IR Inten    --     35.2592                15.1933                48.8963

                     76                     77                     78
                      A                      A                      A
 Frequencies --   3051.8678              3093.2539              3119.9706
 Red. masses --      1.0371                 1.1041                 1.0994
 Frc consts  --      5.6911                 6.2245                 6.3051
 IR Inten    --     22.0102                16.9747                29.0997

                     79                     80                     81
                      A                      A                      A
 Frequencies --   3142.1306              3189.6926              3194.9210
 Red. masses --      1.1043                 1.0908                 1.0872
 Frc consts  --      6.4236                 6.5385                 6.5383
 IR Inten    --     26.0989                 4.4866                 3.2882

                     82                     83                     84
                      A                      A                      A
 Frequencies --   3206.7498              3210.0256              3226.0599
 Red. masses --      1.0909                 1.0918                 1.0956
 Frc consts  --      6.6097                 6.6286                 6.7184
 IR Inten    --      5.6402                10.7338                 6.1718

                     85                     86                     87
                      A                      A                      A
 Frequencies --   3264.2876              3270.3795              3492.5670
 Red. masses --      1.0929                 1.0965                 1.0735
 Frc consts  --      6.8614                 6.9097                 7.7154
 IR Inten    --      0.7089                 0.8971                 0.5312

 - Thermochemistry -
 -------------------
 Temperature   298.150 Kelvin.  Pressure   1.00000 Atm.
 Atom     1 has atomic number  6 and mass  12.00000

 Molecular mass:   242.08777 amu.
 Principal axes and moments of inertia in atomic units:
                           1         2         3
     Eigenvalues --  2994.671775136.228876249.38871
           X            0.99944  -0.03084  -0.01309
           Y            0.03133   0.99874   0.03918
           Z            0.01187  -0.03956   0.99915
 This molecule is an asymmetric top.
 Rotational symmetry number  1.
 Warning -- assumption of classical behavior for rotation
           may cause significant error
 Rotational temperatures (Kelvin)      0.02892     0.01686     0.01386
 Rotational constants (GHZ):           0.60265     0.35137     0.28879
 Zero-point vibrational energy     655626.6 (Joules/Mol)
                                  156.69852 (Kcal/Mol)
 Warning -- explicit consideration of  23 degrees of freedom as
           vibrations may cause significant error
 Vibrational temperatures:     29.04    45.13    89.79   103.78   117.42
          (Kelvin)            194.17   214.18   252.98   298.62   323.89
                              374.03   391.87   497.56   512.59   569.73
                              630.85   653.98   672.37   679.66   755.42
                              801.36   821.58   839.95   932.01   949.05
                              965.73   983.62  1017.48  1037.74  1096.98
                             1134.31  1164.73  1206.71  1259.70  1269.13
                             1274.74  1308.87  1333.92  1349.15  1363.28
                             1411.27  1420.69  1471.54  1517.37  1578.15
                             1607.12  1613.16  1649.40  1659.01  1697.12
                             1726.09  1739.37  1782.61  1827.62  1853.76
                             1929.73  1936.91  1965.91  1982.74  2009.30
                             2055.67  2069.77  2115.82  2127.87  2154.56
                             2174.67  2189.28  2205.80  2207.61  2291.40
                             2361.76  2389.29  3381.22  4364.39  4384.37
                             4390.96  4450.50  4488.94  4520.83  4589.26
                             4596.78  4613.80  4618.51  4641.58  4696.58
                             4705.35  5025.02

 Zero-point correction=                           0.249715 (Hartree/Particle)
 Thermal correction to Energy=                    0.265252
 Thermal correction to Enthalpy=                  0.266196
 Thermal correction to Gibbs Free Energy=         0.205150
 Sum of electronic and zero-point Energies=          -1049.397788
 Sum of electronic and thermal Energies=             -1049.382251
 Sum of electronic and thermal Enthalpies=           -1049.381307
 Sum of electronic and thermal Free Energies=        -1049.442353

                     E (Thermal)             CV                S
                      KCal/Mol        Cal/Mol-Kelvin    Cal/Mol-Kelvin
 Total                  166.448             59.642            128.483
 Electronic               0.000              0.000              0.000
 Translational            0.889              2.981             42.353
 Rotational               0.889              2.981             32.930
 Vibrational            164.671             53.681             53.200
 Vibration     1          0.593              1.986              6.616
 Vibration     2          0.594              1.983              5.741
 Vibration     3          0.597              1.972              4.379
 Vibration     4          0.598              1.967              4.094
 Vibration     5          0.600              1.962              3.852
 Vibration     6          0.613              1.918              2.874
 Vibration     7          0.618              1.904              2.687
 Vibration     8          0.628              1.872              2.372
 Vibration     9          0.641              1.829              2.065
 Vibration    10          0.650              1.803              1.918
 Vibration    11          0.668              1.746              1.662
 Vibration    12          0.675              1.724              1.581
 Vibration    13          0.724              1.584              1.185
 Vibration    14          0.732              1.562              1.138
 Vibration    15          0.763              1.479              0.978
 Vibration    16          0.799              1.386              0.831
 Vibration    17          0.813              1.351              0.782
 Vibration    18          0.825              1.323              0.745
 Vibration    19          0.829              1.311              0.731
 Vibration    20          0.880              1.195              0.598
 Vibration    21          0.912              1.124              0.530
 Vibration    22          0.927              1.094              0.502
 Vibration    23          0.941              1.066              0.478

 Optimization completed.
    -- Stationary point found.
 Normal termination of Gaussian 16 at Fri Dec 11 13:24:35 2020.

 ----------------------------------------------------------------------
 # B3LYP/6-311++G(d,p) empiricaldispersion=gd3bj scf=xqc pop=npa geom=c
 heck
 ----------------------------------------------------------------------

 --------------------------------------
 CID_55032574_JID_7911_Energie_neutraal
 --------------------------------------
 Structure from the checkpoint file:  "JID_7911.chk"
 Charge =  0 Multiplicity = 1

 SCF Done:  E(RB3LYP) =  -1049.84773404     A.U. after   16 cycles
 Normal termination of Gaussian 16 at Fri Dec 11 13:29:33 2020.

 ----------------------------------------------------------------------
 # B3LYP/6-311++G(d,p) empiricaldispersion=gd3bj scf=xqc pop=npa geom=c
 heck
 ----------------------------------------------------------------------

 ------------------------------------
 CID_55032574_JID_7911_Energie_kation
 ------------------------------------
 Structure from the checkpoint file:  "JID_7911.chk"
 Charge =  1 Multiplicity = 2

 SCF Done:  E(UB3LYP) =  -1049.54771553     A.U. after   33 cycles
 SCF Done:  E(UB3LYP) =  -1049.54771553     a.u. after    1 cycles
 Normal termination of Gaussian 16 at Fri Dec 11 13:43:06 2020.
 Gaussian 16:  ES64L-G16RevA.03 25-Dec-2016

 ----------------------------------------------------------------------
 # B3LYP/6-311++G(d,p) empiricaldispersion=gd3bj scf=xqc pop=npa geom=c
 heck
 ----------------------------------------------------------------------

 -----------------------------------
 CID_55032574_JID_7911_Energie_anion
 -----------------------------------
 Structure from the checkpoint file:  "JID_7911.chk"
 Charge = -1 Multiplicity = 2

                         Standard orientation:
 ---------------------------------------------------------------------
 Center     Atomic      Atomic             Coordinates (Angstroms)
 Number     Number       Type             X           Y           Z
 ---------------------------------------------------------------------
      1          6           0        3.432400   -1.438064   -1.217872
      2          6           0        2.387857   -1.197796   -0.120003
      3          6           0        1.871978    0.234944   -0.178048
      4          6           0        0.978006    0.714229   -1.099721
      5         16           0        0.606166    2.387160   -0.848307
      6          6           0        1.686003    2.467306    0.504396
      7          6           0        2.281406    1.258269    0.737523
      8          7           0        1.385459   -2.264157   -0.196496
      9          6           0        0.410567   -2.345046    0.893853
     10          6           0       -0.658223   -1.263920    0.932780
     11          6           0       -1.708504   -1.299265    0.015406
     12          6           0       -2.653822   -0.263881   -0.028301
     13          6           0       -2.558239    0.816184    0.862853
     14          6           0       -1.522989    0.840633    1.792024
     15          6           0       -0.587034   -0.192287    1.828860
     16          6           0       -3.715061   -0.309378   -0.989816
     17          7           0       -4.571273   -0.347649   -1.776356
     18          1           0        2.971734   -1.342459   -2.208698
     19          1           0        3.856029   -2.442419   -1.125876
     20          1           0        4.235373   -0.696886   -1.156536
     21          1           0        2.881530   -1.323306    0.853317
     22          1           0        0.475819    0.170391   -1.887981
     23          1           0        1.818037    3.396046    1.042446
     24          1           0        2.990686    1.086684    1.541229
     25          1           0        0.907267   -2.233540   -1.095374
     26          1           0       -0.075791   -3.325275    0.817226
     27          1           0        0.972004   -2.342130    1.835224
     28          1           0       -1.797132   -2.127135   -0.683220
     29          1           0       -3.288459    1.616767    0.817932
     30          1           0       -1.438434    1.673194    2.483351
     31          1           0        0.227312   -0.153427    2.546229
 ---------------------------------------------------------------------

 SCF Done:  E(UB3LYP) =  -1049.85157863     A.U. after   33 cycles
 SCF Done:  E(UB3LYP) =  -1049.85157863     a.u. after    1 cycles

 The electronic state is 2-A.
 Alpha  occ. eigenvalues --  -88.76392 -14.19516 -14.15747 -10.10804 -10.08739
 Alpha  occ. eigenvalues --  -10.08727 -10.08084 -10.06921 -10.06872 -10.06733
 Alpha  occ. eigenvalues --  -10.05937 -10.05276 -10.04834 -10.04443 -10.04080
 Alpha  occ. eigenvalues --  -10.04008 -10.02710  -7.85009  -5.81295  -5.80925
 Alpha  occ. eigenvalues --   -5.80630  -0.80939  -0.76816  -0.76210  -0.72691
 Alpha  occ. eigenvalues --   -0.67399  -0.63634  -0.62472  -0.61984  -0.60743
 Alpha  occ. eigenvalues --   -0.55280  -0.51732  -0.50277  -0.46918  -0.45796
 Alpha  occ. eigenvalues --   -0.43741  -0.41395  -0.40111  -0.36317  -0.35803
 Alpha  occ. eigenvalues --   -0.35468  -0.33083  -0.32854  -0.31191  -0.30134
 Alpha  occ. eigenvalues --   -0.29696  -0.28657  -0.28222  -0.27563  -0.26555
 Alpha  occ. eigenvalues --   -0.26299  -0.25257  -0.24685  -0.23882  -0.23308
 Alpha  occ. eigenvalues --   -0.22650  -0.21584  -0.20325  -0.18993  -0.15093
 Alpha  occ. eigenvalues --   -0.13935  -0.12469  -0.11989  -0.11409   0.04627
 Alpha virt. eigenvalues --    0.06625   0.07481   0.08114   0.08301   0.08985
 Alpha virt. eigenvalues --    0.09664   0.10105   0.10613   0.10806   0.11058
 Alpha virt. eigenvalues --    0.11456   0.12443   0.12860   0.12921   0.13257

  Beta  occ. eigenvalues --  -88.76372 -14.19510 -14.15481 -10.10802 -10.08732
  Beta  occ. eigenvalues --  -10.08654 -10.08007 -10.06932 -10.06883 -10.06721
  Beta  occ. eigenvalues --  -10.05930 -10.05009 -10.04906 -10.04358 -10.03996
  Beta  occ. eigenvalues --  -10.03917 -10.02358  -7.84991  -5.81285  -5.80914
  Beta  occ. eigenvalues --   -5.80566  -0.80922  -0.76745  -0.75799  -0.72335
  Beta  occ. eigenvalues --   -0.67333  -0.63309  -0.62057  -0.61859  -0.60644
  Beta  occ. eigenvalues --   -0.55136  -0.51659  -0.49559  -0.46825  -0.45679
  Beta  occ. eigenvalues --   -0.43685  -0.41294  -0.40018  -0.36248  -0.35732
  Beta  occ. eigenvalues --   -0.35191  -0.33035  -0.32732  -0.31058  -0.30053
  Beta  occ. eigenvalues --   -0.29641  -0.28616  -0.28120  -0.27471  -0.26313
  Beta  occ. eigenvalues --   -0.26012  -0.25187  -0.23941  -0.23691  -0.23073
  Beta  occ. eigenvalues --   -0.22486  -0.21294  -0.19317  -0.18817  -0.14804
  Beta  occ. eigenvalues --   -0.13534  -0.11832  -0.11196  -0.10332
  Beta virt. eigenvalues --    0.06678   0.07547   0.08316   0.08521   0.08874
  Beta virt. eigenvalues --    0.09668   0.09977   0.10147   0.10723   0.10801
  Beta virt. eigenvalues --    0.11108   0.11583   0.12451   0.12811   0.12930

 Mulliken charges and spin densities:
               1          2
     1  C   -0.270680  -0.353091
     2  C   -0.943016  -0.131526
     3  C    0.701880  -0.109959
     4  C   -0.020869   0.249236
     5  S    0.016338  -0.110092
     6  C   -0.198732  -0.255492
     7  C   -0.414053   0.198330
     8  N    0.120280   0.000364
     9  C   -0.602619  -0.158639
    10  C    0.844949   0.044749
    11  C   -1.007102   0.293491
    12  C    1.469778   0.065499
    13  C   -0.212029   0.142770
    14  C   -0.451920   0.045167
    15  C    0.262532   0.125041
    16  C   -1.311008  -0.135747
    17  N   -0.320549   0.145827
    18  H    0.111525   0.028144
    19  H    0.029878   0.115254
    20  H    0.057893   0.083934
    21  H    0.075154   0.088461
    22  H    0.206664   0.046536
    23  H    0.097345   0.129905
    24  H   -0.080015   0.221576
    25  H    0.205620   0.028157
    26  H    0.171542  -0.000151
    27  H    0.023888   0.100006
    28  H    0.154972   0.011039
    29  H    0.150242  -0.000637
    30  H    0.074231   0.044094
    31  H    0.057878   0.047756
 Sum of Mulliken charges =  -1.00000   1.00000

 Dipole moment (field-independent basis, Debye):
    X=              6.8726    Y=              0.9471    Z=              1.4772  Tot=              7.0931
 Quadrupole moment (field-independent basis, Debye-Ang):
   XX=           -178.5800   YY=           -128.1878   ZZ=           -131.5196
   XY=             -2.0298   XZ=            -12.6089   YZ=              2.1790

 Summary of Natural Population Analysis:

                                       Natural Population
                Natural  -----------------------------------------------
    Atom  No    Charge         Core      Valence    Rydberg      Total
 -----------------------------------------------------------------------
      C    1   -0.27862      0.99965     2.27390    0.00508     3.27862
      C    2   -0.01288      0.99956     2.00058    0.01274     3.01288
      C    3   -0.05580      0.99946     2.04239    0.01395     3.05580
      C    4   -0.17398      0.99945     2.16459    0.00994     3.17398
      S    5    0.21468      4.99944     2.76398    0.02190     7.78532
      C    6   -0.18791      0.99954     2.17613    0.01224     3.18791
      C    7   -0.12992      0.99948     2.11985    0.01059     3.12992
      N    8   -0.33816      0.99975     2.82700    0.01141     3.83816
      C    9   -0.08994      0.99958     2.07809    0.01227     3.08994
      C   10   -0.04655      0.99949     2.03718    0.00987     3.04655
      C   11   -0.05379      0.99948     2.04545    0.00885     3.05379
      C   12   -0.05684      0.99942     2.04736    0.01006     3.05684
      C   13   -0.06516      0.99954     2.05640    0.00922     3.06516
      C   14   -0.10706      0.99957     2.09587    0.01162     3.10706
      C   15   -0.03044      0.99952     2.02096    0.00996     3.03044
      C   16    0.15157      0.99964     1.83046    0.01832     2.84843
      N   17   -0.17366      0.99979     2.66279    0.01108     3.67366
      H   18    0.09545      0.00000     0.40346    0.00108     0.40455
      H   19    0.09943      0.00000     0.39919    0.00138     0.40057
      H   20    0.09944      0.00000     0.39978    0.00079     0.40056
      H   21    0.09124      0.00000     0.40684    0.00191     0.40876
      H   22    0.11037      0.00000     0.38840    0.00124     0.38963
      H   23    0.10554      0.00000     0.39361    0.00085     0.39446
      H   24    0.10279      0.00000     0.39618    0.00103     0.39721
      H   25    0.17135      0.00000     0.32653    0.00212     0.32865
      H   26    0.09342      0.00000     0.40563    0.00094     0.40658
      H   27    0.09160      0.00000     0.40709    0.00131     0.40840
      H   28    0.09311      0.00000     0.40580    0.00109     0.40689
      H   29    0.09634      0.00000     0.40288    0.00079     0.40366
      H   30    0.09432      0.00000     0.40468    0.00100     0.40568
      H   31    0.09006      0.00000     0.40831    0.00163     0.40994
 =======================================================================
   * Total *   -0.00000     20.99237    42.79136    0.21627    64.00000

 Normal termination of Gaussian 16 at Fri Dec 11 13:57:00 2020.
