 Gaussian 16, Revision A.03,

 -----------------------------------------------------------
 # opt freq B3LYP/6-31G(d) empiricaldispersion=gd3bj scf=xqc
 -----------------------------------------------------------

 ------------------------------
 CID_89373876_JID_2022_neutraal
 ------------------------------
 Symbolic Z-matrix:
 Charge =  0 Multiplicity = 1

 SCF Done:  E(RB3LYP) =  -553.487227759     A.U. after   15 cycles
 SCF Done:  E(RB3LYP) =  -553.507646942     A.U. after   13 cycles
 SCF Done:  E(RB3LYP) =  -553.510381525     A.U. after   13 cycles
 SCF Done:  E(RB3LYP) =  -553.511143268     A.U. after   12 cycles
 SCF Done:  E(RB3LYP) =  -553.511168912     A.U. after   13 cycles
 SCF Done:  E(RB3LYP) =  -553.511739249     A.U. after   12 cycles
 SCF Done:  E(RB3LYP) =  -553.511978578     A.U. after   12 cycles
 SCF Done:  E(RB3LYP) =  -553.511910167     A.U. after   12 cycles
 SCF Done:  E(RB3LYP) =  -553.512087005     A.U. after   12 cycles
 SCF Done:  E(RB3LYP) =  -553.512154736     A.U. after   10 cycles
 SCF Done:  E(RB3LYP) =  -553.512507094     A.U. after   10 cycles
 SCF Done:  E(RB3LYP) =  -553.512508124     A.U. after   11 cycles
 SCF Done:  E(RB3LYP) =  -553.512508218     A.U. after    8 cycles
 SCF Done:  E(RB3LYP) =  -553.512508230     A.U. after    8 cycles
 SCF Done:  E(RB3LYP) =  -553.512508231     A.U. after    7 cycles
 Optimization completed.
    -- Stationary point found.
 Normal termination of Gaussian 16 at Wed Dec  9 16:47:02 2020.

 --------------------------------------------------------------------
 #N Geom=AllCheck Guess=TCheck SCRF=Check GenChk RB3LYP/6-31G(d) Freq
 --------------------------------------------------------------------

 Structure from the checkpoint file:  "JID_2022.chk"
 ------------------------------
 CID_89373876_JID_2022_neutraal
 ------------------------------
 Charge =  0 Multiplicity = 1

 SCF Done:  E(RB3LYP) =  -553.512508231     A.U. after    1 cycles

  Exact polarizability: 157.715  11.943 111.715   0.399  -0.166  47.227
 Approx polarizability: 224.743  21.024 187.404   0.704   0.111  69.308

                      1                      2                      3
                      A                      A                      A
 Frequencies --     25.2510                26.9171                40.9832
 Red. masses --      1.0799                 1.1996                 2.8288
 Frc consts  --      0.0004                 0.0005                 0.0028
 IR Inten    --      1.9224                14.1300                 6.4478

                      4                      5                      6
                      A                      A                      A
 Frequencies --     70.2529               158.3845               216.2753
 Red. masses --      4.0252                 5.8395                 3.8315
 Frc consts  --      0.0117                 0.0863                 0.1056
 IR Inten    --      0.1262                 0.6870                 0.2822

                      7                      8                      9
                      A                      A                      A
 Frequencies --    234.7480               239.1704               313.5958
 Red. masses --      4.3166                 4.3435                 5.1145
 Frc consts  --      0.1402                 0.1464                 0.2963
 IR Inten    --      4.2516                 8.3634                 0.0246

                     10                     11                     12
                      A                      A                      A
 Frequencies --    329.9069               369.3899               412.3249
 Red. masses --      4.2607                 6.7826                 8.2350
 Frc consts  --      0.2732                 0.5453                 0.8249
 IR Inten    --      5.1398                 0.7164                 0.1258

                     13                     14                     15
                      A                      A                      A
 Frequencies --    413.4809               450.0569               479.9281
 Red. masses --     10.2380                 3.1111                 4.0445
 Frc consts  --      1.0313                 0.3713                 0.5489
 IR Inten    --      3.3656                 3.9841                12.6164

                     16                     17                     18
                      A                      A                      A
 Frequencies --    575.3230               581.5486               602.4980
 Red. masses --      4.3806                 5.1117                 6.1898
 Frc consts  --      0.8543                 1.0186                 1.3238
 IR Inten    --      1.4991                 1.3544                 9.2033

                     19                     20                     21
                      A                      A                      A
 Frequencies --    704.4626               726.7508               729.9294
 Red. masses --      4.0078                 1.1290                 6.3895
 Frc consts  --      1.1718                 0.3513                 2.0058
 IR Inten    --      2.4038               119.2901                 5.8046

                     22                     23                     24
                      A                      A                      A
 Frequencies --    810.1157               828.6547               831.5601
 Red. masses --      4.6000                 5.5342                 1.4433
 Frc consts  --      1.7787                 2.2390                 0.5880
 IR Inten    --      2.2974                37.5296                23.3514

                     25                     26                     27
                      A                      A                      A
 Frequencies --    871.4312               886.2541               940.5682
 Red. masses --      1.3877                 1.4335                 1.2748
 Frc consts  --      0.6209                 0.6634                 0.6644
 IR Inten    --     54.1021               138.9100                 0.0290

                     28                     29                     30
                      A                      A                      A
 Frequencies --    974.3153              1070.6012              1075.8714
 Red. masses --      4.1112                 1.3806                 1.3527
 Frc consts  --      2.2994                 0.9323                 0.9225
 IR Inten    --     50.2744                 1.3853                 1.4095

                     31                     32                     33
                      A                      A                      A
 Frequencies --   1125.3829              1155.6704              1203.7488
 Red. masses --      1.6942                 1.6961                 1.2868
 Frc consts  --      1.2642                 1.3347                 1.0986
 IR Inten    --     17.9475                40.0449                 1.7079

                     34                     35                     36
                      A                      A                      A
 Frequencies --   1217.3057              1281.3032              1304.0688
 Red. masses --      1.9170                 2.0513                 3.6944
 Frc consts  --      1.6737                 1.9842                 3.7017
 IR Inten    --      3.9088                 2.6111               408.9232

                     37                     38                     39
                      A                      A                      A
 Frequencies --   1321.9971              1358.3805              1423.6583
 Red. masses --      3.0737                 6.2544                 1.9475
 Frc consts  --      3.1650                 6.7995                 2.3256
 IR Inten    --     31.8864               106.6772                93.6788

                     40                     41                     42
                      A                      A                      A
 Frequencies --   1451.1853              1496.1727              1509.9586
 Red. masses --      1.3121                 3.4152                 1.0401
 Frc consts  --      1.6280                 4.5043                 1.3973
 IR Inten    --      1.0508                 2.5673                 6.1019

                     43                     44                     45
                      A                      A                      A
 Frequencies --   1514.0080              1548.3946              1649.1970
 Red. masses --      1.0416                 3.2390                 2.2697
 Frc consts  --      1.4067                 4.5753                 3.6372
 IR Inten    --      5.6255               342.7550                20.1229

                     46                     47                     48
                      A                      A                      A
 Frequencies --   1677.3586              1696.6348              2415.7193
 Red. masses --      6.3640                 1.5925                11.8789
 Frc consts  --     10.5496                 2.7009                40.8433
 IR Inten    --      8.8615                18.8018               165.6217

                     49                     50                     51
                      A                      A                      A
 Frequencies --   3035.9226              3092.3359              3098.6049
 Red. masses --      1.0347                 1.1021                 1.1010
 Frc consts  --      5.6188                 6.2094                 6.2284
 IR Inten    --     47.9017                18.3976                12.7616

                     52                     53                     54
                      A                      A                      A
 Frequencies --   3212.6584              3215.7290              3228.9043
 Red. masses --      1.0901                 1.0885                 1.0951
 Frc consts  --      6.6288                 6.6317                 6.7271
 IR Inten    --      1.1149                 4.2391                 5.1273

                     55                     56                     57
                      A                      A                      A
 Frequencies --   3475.3574              3535.7889              3558.2770
 Red. masses --      1.0504                 1.0635                 1.0920
 Frc consts  --      7.4747                 7.8339                 8.1463
 IR Inten    --      2.4391               119.1827                 6.1197

 - Thermochemistry -
 -------------------
 Temperature   298.150 Kelvin.  Pressure   1.00000 Atm.
 Atom     1 has atomic number  6 and mass  12.00000

 Molecular mass:   163.06333 amu.
 Principal axes and moments of inertia in atomic units:
                           1         2         3
     Eigenvalues --   888.963273761.353074629.60456
           X            0.99985   0.01729   0.00038
           Y           -0.01729   0.99985  -0.00152
           Z           -0.00041   0.00151   1.00000
 This molecule is an asymmetric top.
 Rotational symmetry number  1.
 Warning -- assumption of classical behavior for rotation
           may cause significant error
 Rotational temperatures (Kelvin)      0.09743     0.02303     0.01871
 Rotational constants (GHZ):           2.03016     0.47981     0.38983
 Zero-point vibrational energy     429425.1 (Joules/Mol)
                                  102.63507 (Kcal/Mol)
 Warning -- explicit consideration of  18 degrees of freedom as
           vibrations may cause significant error
 Vibrational temperatures:     36.33    38.73    58.97   101.08   227.88
          (Kelvin)            311.17   337.75   344.11   451.19   474.66
                              531.47   593.24   594.91   647.53   690.51
                              827.76   836.72   866.86  1013.56  1045.63
                             1050.21  1165.58  1192.25  1196.43  1253.80
                             1275.12  1353.27  1401.82  1540.36  1547.94
                             1619.17  1662.75  1731.93  1751.43  1843.51
                             1876.26  1902.06  1954.41  2048.33  2087.93
                             2152.66  2172.49  2178.32  2227.79  2372.83
                             2413.34  2441.08  3475.68  4368.02  4449.18
                             4458.20  4622.30  4626.72  4645.67  5000.26
                             5087.21  5119.57

 Zero-point correction=                           0.163559 (Hartree/Particle)
 Thermal correction to Energy=                    0.175659
 Thermal correction to Enthalpy=                  0.176603
 Thermal correction to Gibbs Free Energy=         0.122921
 Sum of electronic and zero-point Energies=           -553.348949
 Sum of electronic and thermal Energies=              -553.336850
 Sum of electronic and thermal Enthalpies=            -553.335905
 Sum of electronic and thermal Free Energies=         -553.389587

                     E (Thermal)             CV                S
                      KCal/Mol        Cal/Mol-Kelvin    Cal/Mol-Kelvin
 Total                  110.227             43.457            112.983
 Electronic               0.000              0.000              0.000
 Translational            0.889              2.981             41.176
 Rotational               0.889              2.981             31.116
 Vibrational            108.450             37.495             40.692
 Vibration     1          0.593              1.985              6.171
 Vibration     2          0.593              1.984              6.045
 Vibration     3          0.594              1.981              5.211
 Vibration     4          0.598              1.968              4.146
 Vibration     5          0.621              1.893              2.569
 Vibration     6          0.645              1.816              1.990
 Vibration     7          0.655              1.788              1.842
 Vibration     8          0.657              1.781              1.809
 Vibration     9          0.701              1.648              1.343
 Vibration    10          0.713              1.616              1.261
 Vibration    11          0.742              1.535              1.082
 Vibration    12          0.776              1.443              0.918
 Vibration    13          0.777              1.441              0.914
 Vibration    14          0.809              1.361              0.796
 Vibration    15          0.836              1.295              0.710
 Vibration    16          0.932              1.085              0.494
 Vibration    17          0.938              1.071              0.483
 Vibration    18          0.961              1.026              0.445

 Optimization completed on the basis of negligible forces.
    -- Stationary point found.
 Normal termination of Gaussian 16 at Wed Dec  9 16:50:35 2020.

 ----------------------------------------------------------------------
 # B3LYP/6-311++G(d,p) empiricaldispersion=gd3bj scf=xqc pop=npa geom=c
 heck
 ----------------------------------------------------------------------

 --------------------------------------
 CID_89373876_JID_2022_Energie_neutraal
 --------------------------------------
 Structure from the checkpoint file:  "JID_2022.chk"
 Charge =  0 Multiplicity = 1

 SCF Done:  E(RB3LYP) =  -553.681140381     A.U. after   15 cycles
 Normal termination of Gaussian 16 at Wed Dec  9 16:51:52 2020.

 ----------------------------------------------------------------------
 # B3LYP/6-311++G(d,p) empiricaldispersion=gd3bj scf=xqc pop=npa geom=c
 heck
 ----------------------------------------------------------------------

 ------------------------------------
 CID_89373876_JID_2022_Energie_kation
 ------------------------------------
 Structure from the checkpoint file:  "JID_2022.chk"
 Charge =  1 Multiplicity = 2

 SCF Done:  E(UB3LYP) =  -553.400548234     A.U. after   19 cycles
 Normal termination of Gaussian 16 at Wed Dec  9 16:54:02 2020.
 Gaussian 16:  ES64L-G16RevA.03 25-Dec-2016

 ----------------------------------------------------------------------
 # B3LYP/6-311++G(d,p) empiricaldispersion=gd3bj scf=xqc pop=npa geom=c
 heck
 ----------------------------------------------------------------------

 -----------------------------------
 CID_89373876_JID_2022_Energie_anion
 -----------------------------------
 Structure from the checkpoint file:  "JID_2022.chk"
 Charge = -1 Multiplicity = 2

                         Standard orientation:
 ---------------------------------------------------------------------
 Center     Atomic      Atomic             Coordinates (Angstroms)
 Number     Number       Type             X           Y           Z
 ---------------------------------------------------------------------
      1          6           0        4.673488    1.015696    0.010079
      2          6           0        3.492716    0.155100    0.004501
      3          6           0        2.530787   -0.574130    0.000233
      4          8           0        1.524557   -1.414290   -0.004644
      5          6           0        0.217128   -0.903691   -0.005482
      6          6           0       -0.059203    0.458248   -0.008025
      7          6           0       -1.390704    0.876930   -0.006415
      8          6           0       -2.430007   -0.069005    0.003414
      9          6           0       -2.129196   -1.434233   -0.004042
     10          6           0       -0.802265   -1.852572   -0.009657
     11          8           0       -3.718897    0.352751    0.026852
     12          7           0       -1.815592    2.254210    0.004130
     13          1           0        5.591727    0.416142    0.019915
     14          1           0        4.696822    1.665721    0.893459
     15          1           0        4.710858    1.658384   -0.878180
     16          1           0        0.751874    1.179241   -0.014919
     17          1           0       -2.940912   -2.153509    0.004847
     18          1           0       -0.545168   -2.906433   -0.010831
     19          1           0       -3.649021    1.329462    0.109761
     20          1           0       -1.690200    2.687014   -0.910029
     21          1           0       -1.278585    2.802766    0.671766
 ---------------------------------------------------------------------

 SCF Done:  E(UB3LYP) =  -553.671878357     A.U. after   33 cycles
 SCF Done:  E(UB3LYP) =  -553.671878357     a.u. after    1 cycles

 The electronic state is 2-A.
 Alpha  occ. eigenvalues --  -19.10239 -19.04771 -14.21025 -10.14604 -10.13566
 Alpha  occ. eigenvalues --  -10.11742 -10.11384 -10.08953 -10.08688 -10.08606
 Alpha  occ. eigenvalues --  -10.08299 -10.06947  -1.01558  -0.96445  -0.80749
 Alpha  occ. eigenvalues --   -0.75512  -0.68227  -0.65854  -0.64629  -0.60115
 Alpha  occ. eigenvalues --   -0.54455  -0.53274  -0.46835  -0.44913  -0.42364
 Alpha  occ. eigenvalues --   -0.39368  -0.36952  -0.36414  -0.36117  -0.34599
 Alpha  occ. eigenvalues --   -0.34203  -0.32899  -0.32480  -0.32409  -0.30757
 Alpha  occ. eigenvalues --   -0.29635  -0.25753  -0.24097  -0.18534  -0.16377
 Alpha  occ. eigenvalues --   -0.16138  -0.15648  -0.11426   0.04375
 Alpha virt. eigenvalues --    0.06545   0.07014   0.07607   0.09366   0.09530
 Alpha virt. eigenvalues --    0.09867   0.10222   0.11112   0.11164   0.11508
 Alpha virt. eigenvalues --    0.13550   0.14189   0.15035   0.15346   0.16053

  Beta  occ. eigenvalues --  -19.10238 -19.04756 -14.20925 -10.14602 -10.13563
  Beta  occ. eigenvalues --  -10.11737 -10.11379 -10.08952 -10.08632 -10.08605
  Beta  occ. eigenvalues --  -10.08282 -10.06946  -1.01557  -0.96415  -0.80638
  Beta  occ. eigenvalues --   -0.75469  -0.68192  -0.65831  -0.64574  -0.60060
  Beta  occ. eigenvalues --   -0.54424  -0.53231  -0.46800  -0.44886  -0.42336
  Beta  occ. eigenvalues --   -0.39260  -0.36875  -0.36353  -0.36108  -0.34577
  Beta  occ. eigenvalues --   -0.34162  -0.32887  -0.32429  -0.32356  -0.30735
  Beta  occ. eigenvalues --   -0.29619  -0.25725  -0.24085  -0.18463  -0.16359
  Beta  occ. eigenvalues --   -0.16114  -0.15621  -0.11411
  Beta virt. eigenvalues --    0.06987   0.07098   0.07484   0.08078   0.09678
  Beta virt. eigenvalues --    0.09723   0.10388   0.10977   0.11656   0.11788
  Beta virt. eigenvalues --    0.12219   0.13752   0.14663   0.14953   0.15443

 Mulliken charges and spin densities:
               1          2
     1  C    2.021101  -2.653184
     2  C   -0.635980   0.916767
     3  C   -0.000792   0.155423
     4  O   -0.098906   0.006996
     5  C   -0.808514   0.175141
     6  C    1.257453  -0.280504
     7  C    0.967180  -1.308688
     8  C    0.783794  -0.898686
     9  C   -0.437065   0.438651
    10  C   -1.628182   0.826290
    11  O   -0.262691  -0.032625
    12  N   -0.406633  -0.023619
    13  H   -0.275443   0.427803
    14  H   -0.376146   0.537467
    15  H   -0.356739   0.517819
    16  H    0.016352   0.218797
    17  H    0.124793   0.043348
    18  H    0.103096   0.054357
    19  H    0.226931   0.083934
    20  H   -0.629852   0.936533
    21  H   -0.583759   0.857981
 Sum of Mulliken charges =  -1.00000   1.00000

 Dipole moment (field-independent basis, Debye):
    X=             -3.3249    Y=             -8.7804    Z=              0.4460  Tot=              9.3995
 Quadrupole moment (field-independent basis, Debye-Ang):
   XX=           -144.8973   YY=           -119.0086   ZZ=            -93.6705
   XY=              0.3130   XZ=             -1.4354   YZ=              1.5793

 Summary of Natural Population Analysis:

                                       Natural Population
                Natural  -----------------------------------------------
    Atom  No    Charge         Core      Valence    Rydberg      Total
 -----------------------------------------------------------------------
      C    1   -0.31813      0.99963     2.31216    0.00634     3.31813
      C    2   -0.05281      0.99916     2.04670    0.00695     3.05281
      C    3    0.13783      0.99894     1.85280    0.01042     2.86217
      O    4   -0.25058      0.99982     3.24184    0.00891     4.25058
      C    5    0.13943      0.99933     1.84801    0.01323     2.86057
      C    6   -0.13065      0.99946     2.12155    0.00963     3.13065
      C    7    0.05229      0.99945     1.93600    0.01226     2.94771
      C    8    0.14788      0.99935     1.83804    0.01473     2.85212
      C    9   -0.12080      0.99954     2.11315    0.00811     3.12080
      C   10   -0.11773      0.99952     2.10988    0.00833     3.11773
      O   11   -0.34902      0.99988     3.34297    0.00617     4.34902
      N   12   -0.43991      0.99974     2.92748    0.01268     3.93991
      H   13    0.11010      0.00000     0.38850    0.00140     0.38990
      H   14    0.11242      0.00000     0.38585    0.00173     0.38758
      H   15    0.11229      0.00000     0.38604    0.00168     0.38771
      H   16    0.12105      0.00000     0.37715    0.00181     0.37895
      H   17    0.10349      0.00000     0.39550    0.00101     0.39651
      H   18    0.10515      0.00000     0.39394    0.00091     0.39485
      H   19    0.24839      0.00000     0.24796    0.00364     0.25161
      H   20    0.19448      0.00000     0.29298    0.01253     0.30552
      H   21    0.19482      0.00000     0.29469    0.01050     0.30518
 =======================================================================
   * Total *   -0.00000     11.99382    30.85320    0.15298    43.00000

 Normal termination of Gaussian 16 at Wed Dec  9 16:57:50 2020.
