 Gaussian 16, Revision A.03,

 -----------------------------------------------------------
 # opt freq B3LYP/6-31G(d) empiricaldispersion=gd3bj scf=xqc
 -----------------------------------------------------------

 -------------------------------
 CID_123819835_JID_5922_neutraal
 -------------------------------
 Symbolic Z-matrix:
 Charge =  0 Multiplicity = 1

 SCF Done:  E(RB3LYP) =  -660.341819355     A.U. after   15 cycles
 SCF Done:  E(RB3LYP) =  -660.344986551     A.U. after   12 cycles
 SCF Done:  E(RB3LYP) =  -660.344340056     A.U. after   12 cycles
 SCF Done:  E(RB3LYP) =  -660.345341888     A.U. after   12 cycles
 SCF Done:  E(RB3LYP) =  -660.345726699     A.U. after   10 cycles
 SCF Done:  E(RB3LYP) =  -660.345586404     A.U. after   11 cycles
 SCF Done:  E(RB3LYP) =  -660.345727523     A.U. after   11 cycles
 SCF Done:  E(RB3LYP) =  -660.345742825     A.U. after   10 cycles
 SCF Done:  E(RB3LYP) =  -660.345746522     A.U. after    9 cycles
 SCF Done:  E(RB3LYP) =  -660.345749360     A.U. after    9 cycles
 SCF Done:  E(RB3LYP) =  -660.345750313     A.U. after    8 cycles
 SCF Done:  E(RB3LYP) =  -660.345750495     A.U. after    7 cycles
 SCF Done:  E(RB3LYP) =  -660.345750587     A.U. after    6 cycles
 SCF Done:  E(RB3LYP) =  -660.345750618     A.U. after    6 cycles
 Optimization completed.
    -- Stationary point found.
 Normal termination of Gaussian 16 at Thu Dec 10 17:42:22 2020.

 --------------------------------------------------------------------
 #N Geom=AllCheck Guess=TCheck SCRF=Check GenChk RB3LYP/6-31G(d) Freq
 --------------------------------------------------------------------

 Structure from the checkpoint file:  "JID_5922.chk"
 -------------------------------
 CID_123819835_JID_5922_neutraal
 -------------------------------
 Charge =  0 Multiplicity = 1

 SCF Done:  E(RB3LYP) =  -660.345750618     A.U. after    1 cycles

  Exact polarizability: 142.212  -1.725 141.414  -5.200   4.645 133.212
 Approx polarizability: 179.805  -0.481 199.919 -10.334  12.093 208.780

                      1                      2                      3
                      A                      A                      A
 Frequencies --     28.8831                47.2593                95.1906
 Red. masses --      4.2267                 3.5319                 2.7602
 Frc consts  --      0.0021                 0.0046                 0.0147
 IR Inten    --      1.5248                 0.3324                 0.1872

                      4                      5                      6
                      A                      A                      A
 Frequencies --    110.2441               113.2824               134.8268
 Red. masses --      2.4227                 2.5637                 1.6972
 Frc consts  --      0.0173                 0.0194                 0.0182
 IR Inten    --      0.4413                 0.5146                 0.8311

                      7                      8                      9
                      A                      A                      A
 Frequencies --    152.8454               158.5782               182.0499
 Red. masses --      1.8483                 2.2403                 1.5914
 Frc consts  --      0.0254                 0.0332                 0.0311
 IR Inten    --      0.0941                 0.0416                 0.4084

                     10                     11                     12
                      A                      A                      A
 Frequencies --    189.3556               208.5668               219.1982
 Red. masses --      2.6169                 2.4726                 1.6628
 Frc consts  --      0.0553                 0.0634                 0.0471
 IR Inten    --      0.1681                 1.9922                 0.1785

                     13                     14                     15
                      A                      A                      A
 Frequencies --    227.3234               258.7720               263.9396
 Red. masses --      2.0997                 2.5903                 1.7612
 Frc consts  --      0.0639                 0.1022                 0.0723
 IR Inten    --      4.8183                 1.8886                 0.7537

                     16                     17                     18
                      A                      A                      A
 Frequencies --    289.2416               292.5872               307.9794
 Red. masses --      1.6565                 1.5265                 1.1987
 Frc consts  --      0.0816                 0.0770                 0.0670
 IR Inten    --      0.7862                 0.6251                 0.1443

                     19                     20                     21
                      A                      A                      A
 Frequencies --    315.1626               329.4818               349.8993
 Red. masses --      2.2754                 1.6403                 3.1295
 Frc consts  --      0.1332                 0.1049                 0.2257
 IR Inten    --      0.6882                 0.4573                 8.5004

                     22                     23                     24
                      A                      A                      A
 Frequencies --    359.0586               391.3401               413.1740
 Red. masses --      2.0702                 3.1128                 2.0353
 Frc consts  --      0.1573                 0.2809                 0.2047
 IR Inten    --      2.6635                 3.7290                 1.8361

                     25                     26                     27
                      A                      A                      A
 Frequencies --    422.0273               471.4638               541.3511
 Red. masses --      3.0091                 2.6179                 3.6800
 Frc consts  --      0.3158                 0.3429                 0.6354
 IR Inten    --      0.3815                 1.3652                 4.2560

                     28                     29                     30
                      A                      A                      A
 Frequencies --    583.2183               600.3584               699.1712
 Red. masses --      2.3860                 2.9903                 2.4316
 Frc consts  --      0.4782                 0.6350                 0.7003
 IR Inten    --      0.4678                 2.4799                 2.8437

                     31                     32                     33
                      A                      A                      A
 Frequencies --    720.7108               761.9101               800.9729
 Red. masses --      2.3413                 3.2541                 2.1468
 Frc consts  --      0.7165                 1.1130                 0.8115
 IR Inten    --      2.2579                10.4963                 3.5997

                     34                     35                     36
                      A                      A                      A
 Frequencies --    812.2679               813.9694               854.7031
 Red. masses --      1.5587                 1.5071                 2.2864
 Frc consts  --      0.6059                 0.5883                 0.9841
 IR Inten    --      3.1870                 5.3158                 6.8996

                     37                     38                     39
                      A                      A                      A
 Frequencies --    896.8666               913.2070               932.9953
 Red. masses --      2.1441                 2.0442                 1.3586
 Frc consts  --      1.0161                 1.0044                 0.6968
 IR Inten    --      2.3767                 0.9265                37.1598

                     40                     41                     42
                      A                      A                      A
 Frequencies --    968.4877               981.2432              1006.6346
 Red. masses --      1.6321                 1.8262                 2.0194
 Frc consts  --      0.9019                 1.0360                 1.2057
 IR Inten    --      2.5030                 5.9463                 1.0334

                     43                     44                     45
                      A                      A                      A
 Frequencies --   1025.0836              1031.9911              1032.5932
 Red. masses --      4.0666                 1.5899                 1.6309
 Frc consts  --      2.5177                 0.9977                 1.0246
 IR Inten    --     11.1396                 7.3384                 6.7353

                     46                     47                     48
                      A                      A                      A
 Frequencies --   1049.8534              1057.2959              1075.5617
 Red. masses --      1.1588                 1.7132                 2.3907
 Frc consts  --      0.7525                 1.1284                 1.6295
 IR Inten    --     14.3522                 4.6991                 5.6441

                     49                     50                     51
                      A                      A                      A
 Frequencies --   1090.7560              1101.3369              1149.4080
 Red. masses --      1.4787                 1.6471                 2.2420
 Frc consts  --      1.0366                 1.1771                 1.7452
 IR Inten    --      1.4088                 5.9510                 2.0639

                     52                     53                     54
                      A                      A                      A
 Frequencies --   1173.7546              1182.2194              1186.2616
 Red. masses --      1.9768                 2.4398                 1.2974
 Frc consts  --      1.6046                 2.0091                 1.0757
 IR Inten    --     41.0987                14.0009                 1.4475

                     55                     56                     57
                      A                      A                      A
 Frequencies --   1211.6357              1218.8434              1223.5383
 Red. masses --      1.9661                 2.4124                 2.2455
 Frc consts  --      1.7006                 2.1115                 1.9806
 IR Inten    --     62.8599                 5.0546               106.3980

                     58                     59                     60
                      A                      A                      A
 Frequencies --   1255.6794              1285.6348              1326.0768
 Red. masses --      2.8498                 2.1457                 1.2365
 Frc consts  --      2.6474                 2.0895                 1.2811
 IR Inten    --     75.3476                94.1881                 1.6428

                     61                     62                     63
                      A                      A                      A
 Frequencies --   1353.8772              1355.4811              1378.7883
 Red. masses --      1.2764                 1.4372                 1.3694
 Frc consts  --      1.3785                 1.5558                 1.5338
 IR Inten    --      1.8668                18.5654                 5.8052

                     64                     65                     66
                      A                      A                      A
 Frequencies --   1394.0618              1401.0332              1403.5634
 Red. masses --      1.3870                 1.3717                 1.4329
 Frc consts  --      1.5882                 1.5863                 1.6631
 IR Inten    --      4.7934                 1.1692                 3.0994

                     67                     68                     69
                      A                      A                      A
 Frequencies --   1433.6249              1441.8656              1447.3844
 Red. masses --      1.2278                 1.2290                 1.2433
 Frc consts  --      1.4867                 1.5053                 1.5346
 IR Inten    --      4.0500                 2.4702                 8.6349

                     70                     71                     72
                      A                      A                      A
 Frequencies --   1451.7223              1476.6372              1490.3243
 Red. masses --      1.2223                 1.2012                 1.2033
 Frc consts  --      1.5177                 1.5431                 1.5747
 IR Inten    --      5.6349                 3.2347                 5.3668

                     73                     74                     75
                      A                      A                      A
 Frequencies --   1505.0105              1512.0454              1512.9762
 Red. masses --      1.0805                 1.0489                 1.0674
 Frc consts  --      1.4420                 1.4130                 1.4396
 IR Inten    --      3.6197                 6.3396                 0.8243

                     76                     77                     78
                      A                      A                      A
 Frequencies --   1520.4632              1521.8077              1523.9873
 Red. masses --      1.0555                 1.0542                 1.0469
 Frc consts  --      1.4376                 1.4384                 1.4326
 IR Inten    --      8.0980                 1.3990                 8.1399

                     79                     80                     81
                      A                      A                      A
 Frequencies --   1525.3100              1531.2831              1536.1726
 Red. masses --      1.0461                 1.0439                 1.0648
 Frc consts  --      1.4340                 1.4422                 1.4805
 IR Inten    --      6.1195                 6.0673                14.4887

                     82                     83                     84
                      A                      A                      A
 Frequencies --   1536.5530              1542.9393              1543.7171
 Red. masses --      1.0453                 1.0581                 1.0737
 Frc consts  --      1.4541                 1.4841                 1.5075
 IR Inten    --      2.9736                 4.9910                11.5375

                     85                     86                     87
                      A                      A                      A
 Frequencies --   1550.0736              1729.1239              1794.8567
 Red. masses --      1.0597                 4.5314                11.0786
 Frc consts  --      1.5002                 7.9824                21.0278
 IR Inten    --      0.5584                 8.5654               144.8295

                     88                     89                     90
                      A                      A                      A
 Frequencies --   3032.4218              3034.9527              3045.8444
 Red. masses --      1.0622                 1.0644                 1.0423
 Frc consts  --      5.7549                 5.7766                 5.6970
 IR Inten    --     15.7256                27.9874                41.0404

                     91                     92                     93
                      A                      A                      A
 Frequencies --   3049.3722              3058.9573              3060.8689
 Red. masses --      1.0615                 1.0378                 1.0388
 Frc consts  --      5.8154                 5.7214                 5.7343
 IR Inten    --     17.5297                30.6689                26.9641

                     94                     95                     96
                      A                      A                      A
 Frequencies --   3068.8938              3072.6168              3075.7464
 Red. masses --      1.1019                 1.0398                 1.0294
 Frc consts  --      6.1147                 5.7837                 5.7378
 IR Inten    --     22.3513                22.5455                31.4529

                     97                     98                     99
                      A                      A                      A
 Frequencies --   3102.3820              3107.1036              3110.8108
 Red. masses --      1.0952                 1.0990                 1.0971
 Frc consts  --      6.2107                 6.2510                 6.2551
 IR Inten    --      1.7645                 7.4743                20.8979

                    100                    101                    102
                      A                      A                      A
 Frequencies --   3117.6327              3117.8126              3121.9951
 Red. masses --      1.0938                 1.0939                 1.0993
 Frc consts  --      6.2639                 6.2652                 6.3131
 IR Inten    --     54.6158                 9.7904                41.9676

                    103                    104                    105
                      A                      A                      A
 Frequencies --   3134.2950              3134.5629              3139.6885
 Red. masses --      1.1003                 1.1027                 1.1010
 Frc consts  --      6.3687                 6.3837                 6.3947
 IR Inten    --     24.2125                40.9427                27.2175

                    106                    107                    108
                      A                      A                      A
 Frequencies --   3147.2987              3150.2482              3168.6957
 Red. masses --      1.1016                 1.1073                 1.0627
 Frc consts  --      6.4288                 6.4745                 6.2864
 IR Inten    --     20.3420                20.7923                 8.2964

                    109                    110                    111
                      A                      A                      A
 Frequencies --   3176.5061              3182.1055              3241.8582
 Red. masses --      1.0978                 1.1073                 1.1152
 Frc consts  --      6.5266                 6.6059                 6.9057
 IR Inten    --     20.4769                17.6495                19.2019

 - Thermochemistry -
 -------------------
 Temperature   298.150 Kelvin.  Pressure   1.00000 Atm.
 Atom     1 has atomic number  6 and mass  12.00000

 Molecular mass:   212.17763 amu.
 Principal axes and moments of inertia in atomic units:
                           1         2         3
     Eigenvalues --  2413.229314080.308814676.95121
           X            0.99968  -0.02387   0.00852
           Y            0.02377   0.99964   0.01225
           Z           -0.00881  -0.01205   0.99989
 This molecule is an asymmetric top.
 Rotational symmetry number  1.
 Warning -- assumption of classical behavior for rotation
           may cause significant error
 Rotational temperatures (Kelvin)      0.03589     0.02123     0.01852
 Rotational constants (GHZ):           0.74785     0.44231     0.38588
 Zero-point vibrational energy     926894.6 (Joules/Mol)
                                  221.53313 (Kcal/Mol)
 Warning -- explicit consideration of  29 degrees of freedom as
           vibrations may cause significant error
 Vibrational temperatures:     41.56    68.00   136.96   158.62   162.99
          (Kelvin)            193.99   219.91   228.16   261.93   272.44
                              300.08   315.38   327.07   372.32   379.75
                              416.15   420.97   443.11   453.45   474.05
                              503.43   516.61   563.05   594.47   607.20
                              678.33   778.88   839.12   863.78  1005.95
                             1036.94  1096.22  1152.42  1168.67  1171.12
                             1229.73  1290.39  1313.90  1342.37  1393.44
                             1411.79  1448.32  1474.87  1484.81  1485.67
                             1510.50  1521.21  1547.49  1569.35  1584.58
                             1653.74  1688.77  1700.95  1706.77  1743.27
                             1753.64  1760.40  1806.64  1849.74  1907.93
                             1947.93  1950.23  1983.77  2005.74  2015.77
                             2019.41  2062.67  2074.52  2082.46  2088.70
                             2124.55  2144.24  2165.37  2175.50  2176.84
                             2187.61  2189.54  2192.68  2194.58  2203.17
                             2210.21  2210.76  2219.95  2221.06  2230.21
                             2487.82  2582.40  4362.98  4366.62  4382.29
                             4387.37  4401.16  4403.91  4415.45  4420.81
                             4425.31  4463.64  4470.43  4475.76  4485.58
                             4485.84  4491.85  4509.55  4509.94  4517.31
                             4528.26  4532.50  4559.05  4570.28  4578.34
                             4664.31

 Zero-point correction=                           0.353036 (Hartree/Particle)
 Thermal correction to Energy=                    0.371254
 Thermal correction to Enthalpy=                  0.372198
 Thermal correction to Gibbs Free Energy=         0.308194
 Sum of electronic and zero-point Energies=           -659.992715
 Sum of electronic and thermal Energies=              -659.974497
 Sum of electronic and thermal Enthalpies=            -659.973552
 Sum of electronic and thermal Free Energies=         -660.037557

                     E (Thermal)             CV                S
                      KCal/Mol        Cal/Mol-Kelvin    Cal/Mol-Kelvin
 Total                  232.965             68.535            134.709
 Electronic               0.000              0.000              0.000
 Translational            0.889              2.981             41.960
 Rotational               0.889              2.981             32.199
 Vibrational            231.188             62.574             60.550
 Vibration     1          0.593              1.984              5.905
 Vibration     2          0.595              1.979              4.929
 Vibration     3          0.603              1.953              3.550
 Vibration     4          0.606              1.941              3.265
 Vibration     5          0.607              1.938              3.212
 Vibration     6          0.613              1.919              2.876
 Vibration     7          0.619              1.900              2.637
 Vibration     8          0.621              1.893              2.567
 Vibration     9          0.630              1.864              2.307
 Vibration    10          0.633              1.855              2.234
 Vibration    11          0.642              1.828              2.056
 Vibration    12          0.647              1.812              1.966
 Vibration    13          0.651              1.799              1.900
 Vibration    14          0.668              1.748              1.670
 Vibration    15          0.670              1.739              1.636
 Vibration    16          0.686              1.694              1.478
 Vibration    17          0.688              1.688              1.459
 Vibration    18          0.698              1.659              1.373
 Vibration    19          0.703              1.645              1.335
 Vibration    20          0.712              1.617              1.263
 Vibration    21          0.727              1.575              1.167
 Vibration    22          0.734              1.557              1.126
 Vibration    23          0.759              1.489              0.995
 Vibration    24          0.777              1.442              0.915
 Vibration    25          0.784              1.422              0.885
 Vibration    26          0.828              1.313              0.733
 Vibration    27          0.896              1.159              0.562
 Vibration    28          0.940              1.068              0.479
 Vibration    29          0.959              1.031              0.449

 Optimization completed.
    -- Stationary point found.
 Normal termination of Gaussian 16 at Thu Dec 10 17:59:35 2020.

 ----------------------------------------------------------------------
 # B3LYP/6-311++G(d,p) empiricaldispersion=gd3bj scf=xqc pop=npa geom=c
 heck
 ----------------------------------------------------------------------

 ---------------------------------------
 CID_123819835_JID_5922_Energie_neutraal
 ---------------------------------------
 Structure from the checkpoint file:  "JID_5922.chk"
 Charge =  0 Multiplicity = 1

 SCF Done:  E(RB3LYP) =  -660.534685734     A.U. after   15 cycles
 Normal termination of Gaussian 16 at Thu Dec 10 18:08:23 2020.

 ----------------------------------------------------------------------
 # B3LYP/6-311++G(d,p) empiricaldispersion=gd3bj scf=xqc pop=npa geom=c
 heck
 ----------------------------------------------------------------------

 -------------------------------------
 CID_123819835_JID_5922_Energie_kation
 -------------------------------------
 Structure from the checkpoint file:  "JID_5922.chk"
 Charge =  1 Multiplicity = 2

 SCF Done:  E(UB3LYP) =  -660.210862977     A.U. after   22 cycles
 Normal termination of Gaussian 16 at Thu Dec 10 18:26:20 2020.
 Gaussian 16:  ES64L-G16RevA.03 25-Dec-2016

 ----------------------------------------------------------------------
 # B3LYP/6-311++G(d,p) empiricaldispersion=gd3bj scf=xqc pop=npa geom=c
 heck
 ----------------------------------------------------------------------

 ------------------------------------
 CID_123819835_JID_5922_Energie_anion
 ------------------------------------
 Structure from the checkpoint file:  "JID_5922.chk"
 Charge = -1 Multiplicity = 2

                         Standard orientation:
 ---------------------------------------------------------------------
 Center     Atomic      Atomic             Coordinates (Angstroms)
 Number     Number       Type             X           Y           Z
 ---------------------------------------------------------------------
      1          6           0       -2.785432    1.833413   -0.926500
      2          6           0       -1.499927    1.066606   -0.587448
      3          6           0       -1.660748   -0.450701   -0.338359
      4          6           0       -2.482108   -1.084767   -1.488704
      5          6           0       -0.280182   -1.180225   -0.368626
      6          6           0        0.918771   -0.668149    0.469179
      7          6           0        0.577347   -0.423438    1.947209
      8          6           0        2.048650   -1.753453    0.440527
      9          6           0        2.503787   -2.260776   -0.929658
     10          6           0        1.517311    0.569979   -0.198385
     11          8           0        1.644357    0.721036   -1.398052
     12          8           0        1.966055    1.480420    0.693783
     13          6           0        2.593907    2.637310    0.121083
     14          6           0       -2.397480   -0.783765    0.945731
     15          6           0       -2.852245    0.043094    1.886560
     16          1           0       -3.172421    1.546029   -1.909348
     17          1           0       -2.584862    2.910255   -0.958183
     18          1           0       -3.579613    1.659933   -0.195083
     19          1           0       -0.794350    1.196720   -1.413756
     20          1           0       -1.024694    1.525672    0.288981
     21          1           0       -2.039975   -0.835384   -2.460436
     22          1           0       -2.497501   -2.177128   -1.396395
     23          1           0       -3.518445   -0.735829   -1.480151
     24          1           0       -0.454575   -2.224309   -0.074477
     25          1           0        0.045902   -1.201015   -1.412242
     26          1           0        0.084382   -1.308224    2.361467
     27          1           0        1.487233   -0.232315    2.523070
     28          1           0       -0.094345    0.423109    2.087094
     29          1           0        2.911705   -1.345926    0.983413
     30          1           0        1.682710   -2.597730    1.039764
     31          1           0        2.836362   -1.441493   -1.572380
     32          1           0        3.336563   -2.962179   -0.806688
     33          1           0        1.701889   -2.790571   -1.453289
     34          1           0        3.464891    2.347243   -0.472219
     35          1           0        1.891362    3.173047   -0.522528
     36          1           0        2.891749    3.257083    0.967104
     37          1           0       -2.580658   -1.853324    1.073508
     38          1           0       -3.379780   -0.334362    2.758253
     39          1           0       -2.706723    1.118292    1.843017
 ---------------------------------------------------------------------

 SCF Done:  E(UB3LYP) =  -660.519243116     A.U. after   33 cycles
 SCF Done:  E(UB3LYP) =  -660.519243115     a.u. after    1 cycles

 The electronic state is 2-A.
 Alpha  occ. eigenvalues --  -19.07291 -19.01354 -10.20156 -10.12438 -10.10263
 Alpha  occ. eigenvalues --  -10.09551 -10.08019 -10.07914 -10.07355 -10.06813
 Alpha  occ. eigenvalues --  -10.06745 -10.06726 -10.06329 -10.06254 -10.05930
 Alpha  occ. eigenvalues --   -1.01283  -0.92309  -0.75277  -0.72151  -0.65688
 Alpha  occ. eigenvalues --   -0.64908  -0.64218  -0.62245  -0.58824  -0.55167
 Alpha  occ. eigenvalues --   -0.53282  -0.51372  -0.50081  -0.45658  -0.43150
 Alpha  occ. eigenvalues --   -0.40470  -0.39308  -0.38241  -0.37751  -0.36677
 Alpha  occ. eigenvalues --   -0.35488  -0.35254  -0.33313  -0.33065  -0.32331
 Alpha  occ. eigenvalues --   -0.31918  -0.29948  -0.29621  -0.29266  -0.29016
 Alpha  occ. eigenvalues --   -0.28765  -0.27640  -0.27048  -0.26423  -0.26206
 Alpha  occ. eigenvalues --   -0.25133  -0.24828  -0.23983  -0.22281  -0.22036
 Alpha  occ. eigenvalues --   -0.21834  -0.20932  -0.17863  -0.16308   0.04306
 Alpha virt. eigenvalues --    0.06079   0.06568   0.07275   0.07788   0.08520
 Alpha virt. eigenvalues --    0.08706   0.08874   0.09297   0.09625   0.10195
 Alpha virt. eigenvalues --    0.10330   0.10838   0.11094   0.11851   0.11976

  Beta  occ. eigenvalues --  -19.07285 -19.01346 -10.20154 -10.12392 -10.10262
  Beta  occ. eigenvalues --  -10.09551 -10.08003 -10.07904 -10.07343 -10.06801
  Beta  occ. eigenvalues --  -10.06730 -10.06708 -10.06311 -10.06238 -10.05918
  Beta  occ. eigenvalues --   -1.01271  -0.92296  -0.75263  -0.72135  -0.65666
  Beta  occ. eigenvalues --   -0.64875  -0.64192  -0.62199  -0.58792  -0.55130
  Beta  occ. eigenvalues --   -0.53237  -0.51325  -0.50036  -0.45628  -0.43116
  Beta  occ. eigenvalues --   -0.40447  -0.39283  -0.38213  -0.37731  -0.36643
  Beta  occ. eigenvalues --   -0.35460  -0.35221  -0.33287  -0.33039  -0.32313
  Beta  occ. eigenvalues --   -0.31890  -0.29926  -0.29601  -0.29240  -0.28989
  Beta  occ. eigenvalues --   -0.28739  -0.27610  -0.27016  -0.26399  -0.26184
  Beta  occ. eigenvalues --   -0.25107  -0.24805  -0.23962  -0.22262  -0.22013
  Beta  occ. eigenvalues --   -0.21817  -0.20911  -0.17845  -0.16292
  Beta virt. eigenvalues --    0.06304   0.07078   0.07192   0.07645   0.08156
  Beta virt. eigenvalues --    0.08749   0.09038   0.09239   0.09578   0.09960
  Beta virt. eigenvalues --    0.10313   0.10874   0.11252   0.11417   0.12011

 Mulliken charges and spin densities:
               1          2
     1  C    0.581237  -1.292884
     2  C   -2.075352   1.399260
     3  C    1.272917   0.158161
     4  C    0.878298  -1.515307
     5  C    0.097856  -1.529419
     6  C    1.044308   0.391487
     7  C    0.534423  -0.861476
     8  C   -0.782918   0.483818
     9  C   -0.029385  -0.552612
    10  C   -1.624129   0.374633
    11  O   -0.151995   0.013973
    12  O    0.063327   0.053447
    13  C    1.174411  -1.331222
    14  C   -2.013474   1.779065
    15  C    1.450719  -1.968921
    16  H    0.043199   0.107414
    17  H   -0.250290   0.394025
    18  H    0.101878   0.042911
    19  H    0.165330   0.032211
    20  H    0.202963  -0.064774
    21  H   -0.001254   0.152280
    22  H   -0.113350   0.257227
    23  H    0.076563   0.077383
    24  H    0.032285   0.181506
    25  H    0.361398  -0.073301
    26  H    0.172981  -0.016521
    27  H   -0.055538   0.253871
    28  H    0.043642   0.126971
    29  H    0.018503   0.136617
    30  H   -0.126574   0.300768
    31  H    0.069506   0.106220
    32  H   -0.228563   0.376761
    33  H   -0.080759   0.204114
    34  H   -0.267702   0.433091
    35  H   -0.241978   0.411859
    36  H   -0.476975   0.635133
    37  H   -0.622758   0.803485
    38  H   -0.201599   0.343154
    39  H   -0.041152   0.175593
 Sum of Mulliken charges =  -1.00000   1.00000

 Dipole moment (field-independent basis, Debye):
    X=             -1.4630    Y=             -1.0531    Z=             -0.9680  Tot=              2.0460
 Quadrupole moment (field-independent basis, Debye-Ang):
   XX=           -160.9033   YY=           -158.5121   ZZ=           -135.9616
   XY=             -9.7563   XZ=              1.6292   YZ=              0.1135

 Summary of Natural Population Analysis:

                                       Natural Population
                Natural  -----------------------------------------------
    Atom  No    Charge         Core      Valence    Rydberg      Total
 -----------------------------------------------------------------------
      C    1   -0.28704      0.99966     2.28253    0.00485     3.28704
      C    2   -0.19922      0.99960     2.18988    0.00975     3.19922
      C    3   -0.05759      0.99954     2.04455    0.01351     3.05759
      C    4   -0.28148      0.99963     2.27446    0.00738     3.28148
      C    5   -0.18358      0.99957     2.17086    0.01314     3.18358
      C    6   -0.07895      0.99951     2.06591    0.01353     3.07895
      C    7   -0.28385      0.99963     2.27632    0.00790     3.28385
      C    8   -0.17971      0.99961     2.17064    0.00946     3.17971
      C    9   -0.28919      0.99966     2.28490    0.00463     3.28919
      C   10    0.42222      0.99960     1.55025    0.02793     2.57778
      O   11   -0.31494      0.99987     3.30961    0.00547     4.31494
      O   12   -0.27817      0.99986     3.26874    0.00958     4.27817
      C   13   -0.10356      0.99959     2.09468    0.00929     3.10356
      C   14   -0.07606      0.99953     2.06298    0.01354     3.07606
      C   15   -0.19779      0.99954     2.19137    0.00688     3.19779
      H   16    0.09601      0.00000     0.40317    0.00082     0.40399
      H   17    0.10013      0.00000     0.39909    0.00078     0.39987
      H   18    0.09885      0.00000     0.40020    0.00095     0.40115
      H   19    0.10818      0.00000     0.39000    0.00182     0.39182
      H   20    0.09786      0.00000     0.39979    0.00235     0.40214
      H   21    0.10064      0.00000     0.39858    0.00078     0.39936
      H   22    0.10127      0.00000     0.39773    0.00100     0.39873
      H   23    0.10237      0.00000     0.39678    0.00086     0.39763
      H   24    0.10097      0.00000     0.39747    0.00156     0.39903
      H   25    0.11088      0.00000     0.38729    0.00183     0.38912
      H   26    0.10140      0.00000     0.39751    0.00109     0.39860
      H   27    0.10450      0.00000     0.39412    0.00138     0.39550
      H   28    0.10617      0.00000     0.39220    0.00164     0.39383
      H   29    0.09879      0.00000     0.39993    0.00128     0.40121
      H   30    0.09920      0.00000     0.39951    0.00129     0.40080
      H   31    0.10612      0.00000     0.39270    0.00118     0.39388
      H   32    0.09835      0.00000     0.40078    0.00087     0.40165
      H   33    0.09751      0.00000     0.40144    0.00105     0.40249
      H   34    0.09146      0.00000     0.40711    0.00144     0.40854
      H   35    0.09241      0.00000     0.40603    0.00156     0.40759
      H   36    0.09402      0.00000     0.40412    0.00185     0.40598
      H   37    0.09474      0.00000     0.40379    0.00148     0.40526
      H   38    0.09511      0.00000     0.40385    0.00103     0.40489
      H   39    0.09199      0.00000     0.40663    0.00138     0.40801
 =======================================================================
   * Total *    0.00000     14.99439    43.81751    0.18810    59.00000

 Normal termination of Gaussian 16 at Thu Dec 10 18:52:27 2020.
