 Gaussian 16, Revision A.03,

 ----------------------------------------------------------------------
 # opt=(cartesian,calcfc) freq B3LYP/6-31G(d) empiricaldispersion=gd3bj
  scf=xqc
 ----------------------------------------------------------------------

 -------------------------------
 CID_115333977_JID_8660_neutraal
 -------------------------------
 Symbolic Z-matrix:
 Charge =  0 Multiplicity = 1

 SCF Done:  E(RB3LYP) =  -1138.29152097     A.U. after   14 cycles
 SCF Done:  E(RB3LYP) =  -1138.29153140     A.U. after   11 cycles
 SCF Done:  E(RB3LYP) =  -1138.29153234     A.U. after    8 cycles
 SCF Done:  E(RB3LYP) =  -1138.29153059     A.U. after   10 cycles
 SCF Done:  E(RB3LYP) =  -1138.29153260     A.U. after    9 cycles
 SCF Done:  E(RB3LYP) =  -1138.29153266     A.U. after    7 cycles
 Optimization completed.
    -- Stationary point found.
 Normal termination of Gaussian 16 at Wed Dec 30 15:13:13 2020.

 --------------------------------------------------------------------
 #N Geom=AllCheck Guess=TCheck SCRF=Check GenChk RB3LYP/6-31G(d) Freq
 --------------------------------------------------------------------

 Structure from the checkpoint file:  "JID_8660.chk"
 -------------------------------
 CID_115333977_JID_8660_neutraal
 -------------------------------
 Charge =  0 Multiplicity = 1

 SCF Done:  E(RB3LYP) =  -1138.29153266     A.U. after    1 cycles

  Exact polarizability: 212.121  -3.738 172.857   9.938   4.288 111.457
 Approx polarizability: 292.406  -8.718 287.488  19.330   9.787 184.806

                      1                      2                      3
                      A                      A                      A
 Frequencies --     20.7774                38.4881                60.7044
 Red. masses --      5.9674                 4.3998                 4.9184
 Frc consts  --      0.0015                 0.0038                 0.0107
 IR Inten    --      1.1954                 4.3687                 1.0115

                      4                      5                      6
                      A                      A                      A
 Frequencies --     76.0495               118.1195               140.5318
 Red. masses --      4.8569                 1.8468                 3.6798
 Frc consts  --      0.0166                 0.0152                 0.0428
 IR Inten    --      3.9584                 2.8394                 2.2921

                      7                      8                      9
                      A                      A                      A
 Frequencies --    150.3468               167.0371               172.2806
 Red. masses --      2.0365                 3.3372                 2.7873
 Frc consts  --      0.0271                 0.0549                 0.0487
 IR Inten    --      2.0350                 0.2679                 2.0344

                     10                     11                     12
                      A                      A                      A
 Frequencies --    206.6532               214.7189               242.4368
 Red. masses --      3.2980                 1.5225                 6.8127
 Frc consts  --      0.0830                 0.0414                 0.2359
 IR Inten    --      0.4994                 2.2427                 1.9240

                     13                     14                     15
                      A                      A                      A
 Frequencies --    269.1167               296.9323               332.7242
 Red. masses --      2.7133                 3.3281                 2.4467
 Frc consts  --      0.1158                 0.1729                 0.1596
 IR Inten    --      2.4440                 2.4283                 3.2562

                     16                     17                     18
                      A                      A                      A
 Frequencies --    359.4396               375.2173               435.5783
 Red. masses --      3.8125                 4.5771                 3.3938
 Frc consts  --      0.2902                 0.3797                 0.3794
 IR Inten    --      1.6066                 3.4517                 2.0344

                     19                     20                     21
                      A                      A                      A
 Frequencies --    460.8224               491.4378               529.9635
 Red. masses --      4.9415                 3.8865                 3.7544
 Frc consts  --      0.6183                 0.5530                 0.6213
 IR Inten    --      0.3291                 2.5914                 6.5313

                     22                     23                     24
                      A                      A                      A
 Frequencies --    568.0181               615.5874               631.0154
 Red. masses --      8.7168                 5.0141                 3.9675
 Frc consts  --      1.6570                 1.1195                 0.9308
 IR Inten    --      3.6713                 1.1798                 6.5236

                     25                     26                     27
                      A                      A                      A
 Frequencies --    647.5518               660.6700               694.7944
 Red. masses --      1.7929                 4.4355                 3.8796
 Frc consts  --      0.4430                 1.1407                 1.1034
 IR Inten    --     46.5388                18.1955                 1.5580

                     28                     29                     30
                      A                      A                      A
 Frequencies --    711.9612               715.5877               726.5076
 Red. masses --      3.0571                 2.7514                 1.6167
 Frc consts  --      0.9130                 0.8301                 0.5027
 IR Inten    --      0.5066                24.1075                23.9157

                     31                     32                     33
                      A                      A                      A
 Frequencies --    735.8555               759.2369               774.9971
 Red. masses --      1.6796                 2.4662                 3.4380
 Frc consts  --      0.5359                 0.8376                 1.2166
 IR Inten    --     20.5947                 1.3541                40.0493

                     34                     35                     36
                      A                      A                      A
 Frequencies --    825.2358               832.1719               834.0420
 Red. masses --      2.1609                 2.2220                 1.6163
 Frc consts  --      0.8670                 0.9066                 0.6625
 IR Inten    --     53.7439                13.2386                 6.4722

                     37                     38                     39
                      A                      A                      A
 Frequencies --    843.3899               869.1650               934.7992
 Red. masses --      1.2478                 4.7550                 2.1339
 Frc consts  --      0.5230                 2.1164                 1.0986
 IR Inten    --      1.2987                18.1245                35.1559

                     40                     41                     42
                      A                      A                      A
 Frequencies --    940.8744              1002.0937              1005.2706
 Red. masses --      5.0580                 3.3849                 2.4897
 Frc consts  --      2.6381                 2.0027                 1.4824
 IR Inten    --     22.3200                 6.2252                 1.1828

                     43                     44                     45
                      A                      A                      A
 Frequencies --   1032.2840              1074.4408              1090.0753
 Red. masses --      2.6338                 1.8579                 1.6530
 Frc consts  --      1.6536                 1.2637                 1.1573
 IR Inten    --     12.0126                 0.5343                 2.5433

                     46                     47                     48
                      A                      A                      A
 Frequencies --   1111.5913              1128.4869              1143.2905
 Red. masses --      1.2413                 2.6951                 1.8977
 Frc consts  --      0.9037                 2.0222                 1.4615
 IR Inten    --     11.5616                21.9712                15.3493

                     49                     50                     51
                      A                      A                      A
 Frequencies --   1166.1178              1172.7215              1177.9671
 Red. masses --      1.3515                 1.8639                 1.6481
 Frc consts  --      1.0828                 1.5103                 1.3474
 IR Inten    --      3.8810                 9.6118                24.6054

                     52                     53                     54
                      A                      A                      A
 Frequencies --   1180.9995              1193.0338              1213.5303
 Red. masses --      1.4488                 1.7915                 2.2318
 Frc consts  --      1.1905                 1.5024                 1.9364
 IR Inten    --     17.1921                 0.0957                10.1394

                     55                     56                     57
                      A                      A                      A
 Frequencies --   1229.0437              1278.3368              1312.8797
 Red. masses --      1.8568                 2.4265                 1.8286
 Frc consts  --      1.6526                 2.3363                 1.8571
 IR Inten    --     30.4352                 7.3971                28.5848

                     58                     59                     60
                      A                      A                      A
 Frequencies --   1322.8952              1334.8163              1353.9107
 Red. masses --      2.1699                 2.3724                 2.2478
 Frc consts  --      2.2373                 2.4905                 2.4276
 IR Inten    --     24.6863                87.8707                24.3784

                     61                     62                     63
                      A                      A                      A
 Frequencies --   1371.0359              1393.6069              1401.9219
 Red. masses --      1.5003                 2.9028                 2.0862
 Frc consts  --      1.6616                 3.3216                 2.4157
 IR Inten    --      9.1902                 6.3503                 2.3813

                     64                     65                     66
                      A                      A                      A
 Frequencies --   1446.9212              1450.8147              1477.9167
 Red. masses --      4.3862                 1.7435                 1.2069
 Frc consts  --      5.4104                 2.1622                 1.5531
 IR Inten    --      2.2379                13.4252                15.6574

                     67                     68                     69
                      A                      A                      A
 Frequencies --   1486.9178              1499.7972              1508.4611
 Red. masses --      2.4443                 1.1819                 1.2825
 Frc consts  --      3.1840                 1.5663                 1.7193
 IR Inten    --     12.3797                21.7185                25.0225

                     70                     71                     72
                      A                      A                      A
 Frequencies --   1514.5066              1521.2721              1525.7370
 Red. masses --      1.6540                 1.2387                 1.6240
 Frc consts  --      2.2353                 1.6889                 2.2274
 IR Inten    --     60.8228                15.8303                45.2133

                     73                     74                     75
                      A                      A                      A
 Frequencies --   1537.2298              1550.7029              1560.3947
 Red. masses --      3.0569                 1.2246                 1.0572
 Frc consts  --      4.2560                 1.7351                 1.5167
 IR Inten    --     33.6792                 2.6528                 4.0862

                     76                     77                     78
                      A                      A                      A
 Frequencies --   1573.0998              1575.6138              1621.5305
 Red. masses --      3.1200                 6.4620                 5.9772
 Frc consts  --      4.5490                 9.4519                 9.2597
 IR Inten    --      4.2794                 0.5315                48.8949

                     79                     80                     81
                      A                      A                      A
 Frequencies --   3003.7835              3028.9450              3053.3501
 Red. masses --      1.0821                 1.0356                 1.0392
 Frc consts  --      5.7527                 5.5978                 5.7084
 IR Inten    --     32.2463                48.3963                65.4574

                     82                     83                     84
                      A                      A                      A
 Frequencies --   3088.0880              3092.5810              3114.7599
 Red. masses --      1.0773                 1.0841                 1.1022
 Frc consts  --      6.0527                 6.1088                 6.3004
 IR Inten    --     36.9211                17.5940                32.1007

                     85                     86                     87
                      A                      A                      A
 Frequencies --   3127.8199              3135.2765              3169.5050
 Red. masses --      1.0979                 1.1048                 1.1052
 Frc consts  --      6.3284                 6.3986                 6.5413
 IR Inten    --     23.5558                 9.1229                 2.7394

                     88                     89                     90
                      A                      A                      A
 Frequencies --   3256.0829              3268.3465              3284.4520
 Red. masses --      1.0913                 1.0905                 1.1040
 Frc consts  --      6.8168                 6.8636                 7.0171
 IR Inten    --      9.1558                 4.5726                 7.1037

                     91                     92                     93
                      A                      A                      A
 Frequencies --   3294.6790              3325.2455              3482.0131
 Red. masses --      1.1009                 1.0982                 1.0734
 Frc consts  --      7.0408                 7.1546                 7.6675
 IR Inten    --      1.5794                 7.6125                 0.9008

 - Thermochemistry -
 -------------------
 Temperature   298.150 Kelvin.  Pressure   1.00000 Atm.
 Atom     1 has atomic number  6 and mass  12.00000

 Molecular mass:   261.10482 amu.
 Principal axes and moments of inertia in atomic units:
                           1         2         3
     Eigenvalues --  2303.773938262.984649518.74447
           X            0.99989   0.01422  -0.00412
           Y           -0.01421   0.99990   0.00214
           Z            0.00415  -0.00208   0.99999
 This molecule is an asymmetric top.
 Rotational symmetry number  1.
 Warning -- assumption of classical behavior for rotation
           may cause significant error
 Rotational temperatures (Kelvin)      0.03760     0.01048     0.00910
 Rotational constants (GHZ):           0.78338     0.21841     0.18960
 Zero-point vibrational energy     704283.7 (Joules/Mol)
                                  168.32783 (Kcal/Mol)
 Warning -- explicit consideration of  23 degrees of freedom as
           vibrations may cause significant error
 Vibrational temperatures:     29.89    55.38    87.34   109.42   169.95
          (Kelvin)            202.19   216.32   240.33   247.87   297.33
                              308.93   348.81   387.20   427.22   478.72
                              517.15   539.85   626.70   663.02   707.07
                              762.50   817.25   885.69   907.89   931.68
                              950.56   999.65  1024.35  1029.57  1045.28
                             1058.73  1092.37  1115.05  1187.33  1197.31
                             1200.00  1213.45  1250.53  1344.97  1353.71
                             1441.79  1446.36  1485.23  1545.88  1568.38
                             1599.33  1623.64  1644.94  1677.78  1687.28
                             1694.83  1699.19  1716.51  1746.00  1768.32
                             1839.24  1888.94  1903.35  1920.50  1947.98
                             1972.61  2005.09  2017.05  2081.80  2087.40
                             2126.39  2139.34  2157.87  2170.34  2179.04
                             2188.77  2195.20  2211.73  2231.12  2245.06
                             2263.34  2266.96  2333.02  4321.77  4357.98
                             4393.09  4443.07  4449.53  4481.44  4500.24
                             4510.96  4560.21  4684.78  4702.42  4725.59
                             4740.31  4784.29  5009.84

 Zero-point correction=                           0.268247 (Hartree/Particle)
 Thermal correction to Energy=                    0.284523
 Thermal correction to Enthalpy=                  0.285467
 Thermal correction to Gibbs Free Energy=         0.223017
 Sum of electronic and zero-point Energies=          -1138.023285
 Sum of electronic and thermal Energies=             -1138.007010
 Sum of electronic and thermal Enthalpies=           -1138.006065
 Sum of electronic and thermal Free Energies=        -1138.068516

                     E (Thermal)             CV                S
                      KCal/Mol        Cal/Mol-Kelvin    Cal/Mol-Kelvin
 Total                  178.541             62.224            131.439
 Electronic               0.000              0.000              0.000
 Translational            0.889              2.981             42.579
 Rotational               0.889              2.981             33.560
 Vibrational            176.763             56.263             55.300
 Vibration     1          0.593              1.986              6.558
 Vibration     2          0.594              1.982              5.335
 Vibration     3          0.597              1.973              4.434
 Vibration     4          0.599              1.965              3.990
 Vibration     5          0.608              1.934              3.131
 Vibration     6          0.615              1.913              2.797
 Vibration     7          0.618              1.902              2.668
 Vibration     8          0.624              1.883              2.469
 Vibration     9          0.626              1.877              2.410
 Vibration    10          0.641              1.830              2.073
 Vibration    11          0.645              1.819              2.003
 Vibration    12          0.659              1.775              1.785
 Vibration    13          0.674              1.730              1.602
 Vibration    14          0.691              1.679              1.434
 Vibration    15          0.715              1.610              1.247
 Vibration    16          0.734              1.556              1.125
 Vibration    17          0.746              1.523              1.058
 Vibration    18          0.796              1.393              0.841
 Vibration    19          0.819              1.337              0.764
 Vibration    20          0.847              1.269              0.680
 Vibration    21          0.885              1.184              0.587
 Vibration    22          0.924              1.100              0.508
 Vibration    23          0.975              0.999              0.424

 Optimization completed.
    -- Stationary point found.
 Normal termination of Gaussian 16 at Wed Dec 30 15:28:06 2020.

 ----------------------------------------------------------------------
 # B3LYP/6-311++G(d,p) empiricaldispersion=gd3bj scf=xqc pop=npa geom=c
 heck
 ----------------------------------------------------------------------

 ---------------------------------------
 CID_115333977_JID_8660_Energie_neutraal
 ---------------------------------------
 Structure from the checkpoint file:  "JID_8660.chk"
 Charge =  0 Multiplicity = 1

 SCF Done:  E(RB3LYP) =  -1138.51367946     A.U. after   15 cycles
 Normal termination of Gaussian 16 at Wed Dec 30 15:33:44 2020.

 ----------------------------------------------------------------------
 # B3LYP/6-311++G(d,p) empiricaldispersion=gd3bj scf=xqc pop=npa geom=c
 heck
 ----------------------------------------------------------------------

 -------------------------------------
 CID_115333977_JID_8660_Energie_kation
 -------------------------------------
 Structure from the checkpoint file:  "JID_8660.chk"
 Charge =  1 Multiplicity = 2

 SCF Done:  E(UB3LYP) =  -1138.23828897     A.U. after   33 cycles
 SCF Done:  E(UB3LYP) =  -1138.23861686     a.u. after    9 cycles
 Normal termination of Gaussian 16 at Wed Dec 30 17:50:40 2020.
 Gaussian 16:  ES64L-G16RevA.03 25-Dec-2016

 ----------------------------------------------------------------------
 # B3LYP/6-311++G(d,p) empiricaldispersion=gd3bj scf=xqc pop=npa geom=c
 heck
 ----------------------------------------------------------------------

 ------------------------------------
 CID_115333977_JID_8660_Energie_anion
 ------------------------------------
 Structure from the checkpoint file:  "JID_8660.chk"
 Charge = -1 Multiplicity = 2

                         Standard orientation:
 ---------------------------------------------------------------------
 Center     Atomic      Atomic             Coordinates (Angstroms)
 Number     Number       Type             X           Y           Z
 ---------------------------------------------------------------------
      1          6           0        0.783688    3.028722   -0.396028
      2          7           0        1.321380    1.682714   -0.608632
      3          6           0        1.717112    0.996612    0.629454
      4          6           0        0.567792    0.757081    1.648864
      5          6           0       -0.687299    0.229978    1.022862
      6          6           0       -0.966011   -1.053150    0.600301
      7          7           0       -2.247000   -0.991946    0.071487
      8          6           0       -3.177427   -1.836087   -0.519520
      9          6           0       -4.315183   -1.189391   -0.855458
     10         16           0       -4.278007    0.527640   -0.441424
     11          6           0       -2.658788    0.322633    0.200418
     12          7           0       -1.754954    1.088811    0.762267
     13          6           0        2.420475   -0.293886    0.287096
     14          7           0        2.101390   -1.497047    0.741133
     15          6           0        3.025473   -2.363525    0.203767
     16          6           0        3.915554   -1.677869   -0.582364
     17          7           0        3.522850   -0.355217   -0.531000
     18          6           0        4.224292    0.760245   -1.150598
     19          1           0        1.543676    3.637463    0.108570
     20          1           0       -0.141960    3.056095    0.194820
     21          1           0        0.584694    3.485644   -1.371023
     22          1           0        0.612463    1.109386   -1.065168
     23          1           0        2.447819    1.658749    1.119184
     24          1           0        0.929474    0.073667    2.421486
     25          1           0        0.322543    1.708504    2.128223
     26          1           0       -0.367552   -1.948128    0.623527
     27          1           0       -2.947756   -2.882640   -0.662638
     28          1           0       -5.189546   -1.614113   -1.325633
     29          1           0        2.991580   -3.424608    0.410232
     30          1           0        4.768799   -1.989009   -1.166767
     31          1           0        4.731848    0.405379   -2.050890
     32          1           0        3.487677    1.520671   -1.414030
     33          1           0        4.970613    1.181326   -0.466663
 ---------------------------------------------------------------------

 SCF Done:  E(UB3LYP) =  -1138.49874115     A.U. after   33 cycles
 SCF Done:  E(UB3LYP) =  -1138.50054745     a.u. after    9 cycles

 The electronic state is 2-A.
 Alpha  occ. eigenvalues --  -88.80300 -14.30293 -14.28100 -14.21590 -14.21407
 Alpha  occ. eigenvalues --  -14.20449 -10.16964 -10.14331 -10.13707 -10.12863
 Alpha  occ. eigenvalues --  -10.12649 -10.11136 -10.11134 -10.10928 -10.10769
 Alpha  occ. eigenvalues --  -10.09833 -10.09573 -10.08558  -7.88853  -5.85185
 Alpha  occ. eigenvalues --   -5.84839  -5.84343  -0.95607  -0.93003  -0.83290
 Alpha  occ. eigenvalues --   -0.82204  -0.79630  -0.75606  -0.69925  -0.66741
 Alpha  occ. eigenvalues --   -0.65422  -0.63418  -0.61653  -0.59091  -0.54742
 Alpha  occ. eigenvalues --   -0.53055  -0.51379  -0.49028  -0.48180  -0.46216
 Alpha  occ. eigenvalues --   -0.44003  -0.42537  -0.39707  -0.39057  -0.38408
 Alpha  occ. eigenvalues --   -0.37996  -0.37357  -0.35586  -0.35181  -0.34769
 Alpha  occ. eigenvalues --   -0.34103  -0.33512  -0.31887  -0.30885  -0.30703
 Alpha  occ. eigenvalues --   -0.30098  -0.29362  -0.28705  -0.27321  -0.26776
 Alpha  occ. eigenvalues --   -0.25684  -0.23736  -0.20112  -0.18933  -0.18479
 Alpha  occ. eigenvalues --   -0.15353  -0.14544  -0.13958  -0.13315   0.03936
 Alpha virt. eigenvalues --    0.04762   0.06347   0.06589   0.06965   0.07636
 Alpha virt. eigenvalues --    0.07919   0.08563   0.08994   0.09079   0.09769
 Alpha virt. eigenvalues --    0.09921   0.10487   0.10636   0.11444   0.11807

  Beta  occ. eigenvalues --  -88.80296 -14.30294 -14.28099 -14.21588 -14.21409
  Beta  occ. eigenvalues --  -14.20448 -10.16957 -10.14317 -10.13706 -10.12855
  Beta  occ. eigenvalues --  -10.12584 -10.11134 -10.11085 -10.10922 -10.10754
  Beta  occ. eigenvalues --  -10.09823 -10.09572 -10.08557  -7.88849  -5.85174
  Beta  occ. eigenvalues --   -5.84836  -5.84338  -0.95596  -0.92996  -0.83282
  Beta  occ. eigenvalues --   -0.82197  -0.79621  -0.75569  -0.69912  -0.66718
  Beta  occ. eigenvalues --   -0.65396  -0.63374  -0.61607  -0.59066  -0.54710
  Beta  occ. eigenvalues --   -0.53005  -0.51365  -0.48996  -0.48150  -0.46187
  Beta  occ. eigenvalues --   -0.43962  -0.42499  -0.39687  -0.39030  -0.38370
  Beta  occ. eigenvalues --   -0.37954  -0.37324  -0.35565  -0.35161  -0.34744
  Beta  occ. eigenvalues --   -0.34065  -0.33477  -0.31868  -0.30852  -0.30686
  Beta  occ. eigenvalues --   -0.30074  -0.29341  -0.28643  -0.27310  -0.26762
  Beta  occ. eigenvalues --   -0.25639  -0.23716  -0.20110  -0.18928  -0.18467
  Beta  occ. eigenvalues --   -0.15328  -0.14514  -0.13947  -0.13292
  Beta virt. eigenvalues --    0.06076   0.06545   0.06662   0.06997   0.07400
  Beta virt. eigenvalues --    0.07861   0.08380   0.08688   0.09111   0.09383
  Beta virt. eigenvalues --    0.09884   0.10175   0.10744   0.10915   0.11554

 Mulliken charges and spin densities:
               1          2
     1  C   -0.072892  -0.319321
     2  N   -0.052628   0.005614
     3  C    1.839126  -0.902194
     4  C   -0.771507  -0.114942
     5  C   -0.492942   0.247450
     6  C   -0.127938   0.094878
     7  N    0.283769   0.039309
     8  C    0.389452  -0.616697
     9  C    0.583321  -0.832429
    10  S    0.108899  -0.278663
    11  C    0.070974  -0.083271
    12  N    0.060691   0.006815
    13  C   -2.070410   0.447721
    14  N   -0.087222   0.033158
    15  C    0.187070  -0.258210
    16  C   -0.039597   0.033195
    17  N   -0.103571   0.230572
    18  C    1.272497  -1.560762
    19  H   -0.041667   0.186677
    20  H    0.159086   0.014310
    21  H    0.094316   0.046441
    22  H    0.248969  -0.023339
    23  H    0.066462   0.140949
    24  H    0.163659   0.022010
    25  H    0.191666   0.016088
    26  H    0.238967   0.018857
    27  H   -0.077749   0.225601
    28  H   -1.565246   1.849525
    29  H    0.124445   0.019708
    30  H   -0.549050   0.726237
    31  H   -0.439137   0.592154
    32  H   -0.081413   0.291441
    33  H   -0.510397   0.701120
 Sum of Mulliken charges =  -1.00000   1.00000

 Dipole moment (field-independent basis, Debye):
    X=             -0.1940    Y=              1.2374    Z=              3.9371  Tot=              4.1315
 Quadrupole moment (field-independent basis, Debye-Ang):
   XX=           -260.2488   YY=           -152.4265   ZZ=           -149.9094
   XY=            -24.2961   XZ=             -3.1947   YZ=             -6.6262

 Summary of Natural Population Analysis:

                                       Natural Population
                Natural  -----------------------------------------------
    Atom  No    Charge         Core      Valence    Rydberg      Total
 -----------------------------------------------------------------------
      C    1   -0.18539      0.99966     2.17759    0.00814     3.18539
      N    2   -0.34147      0.99975     2.83158    0.01014     3.84147
      C    3   -0.02293      0.99956     2.01070    0.01268     3.02293
      C    4   -0.21260      0.99958     2.20273    0.01029     3.21260
      C    5    0.05736      0.99954     1.92720    0.01589     2.94264
      C    6   -0.04050      0.99948     2.03023    0.01078     3.04050
      N    7   -0.20427      0.99959     2.69595    0.00873     3.70427
      C    8   -0.01339      0.99951     2.00121    0.01266     3.01339
      C    9   -0.18610      0.99953     2.17476    0.01180     3.18610
      S   10    0.18729      4.99947     2.79190    0.02135     7.81271
      C   11    0.10926      0.99954     1.87036    0.02084     2.89074
      N   12   -0.27474      0.99965     2.76577    0.00932     3.77474
      C   13    0.19417      0.99958     1.78811    0.01814     2.80583
      N   14   -0.27031      0.99969     2.76156    0.00906     3.77031
      C   15   -0.03824      0.99958     2.02509    0.01357     3.03824
      C   16   -0.03142      0.99955     2.02025    0.01162     3.03142
      N   17   -0.19995      0.99961     2.68959    0.01074     3.69995
      C   18   -0.18042      0.99963     2.17263    0.00817     3.18042
      H   19    0.08969      0.00000     0.40947    0.00084     0.41031
      H   20    0.09446      0.00000     0.40418    0.00137     0.40554
      H   21    0.09368      0.00000     0.40568    0.00064     0.40632
      H   22    0.17691      0.00000     0.32113    0.00196     0.32309
      H   23    0.10071      0.00000     0.39794    0.00135     0.39929
      H   24    0.11720      0.00000     0.38188    0.00092     0.38280
      H   25    0.10797      0.00000     0.39102    0.00100     0.39203
      H   26    0.12060      0.00000     0.37851    0.00090     0.37940
      H   27    0.11178      0.00000     0.38729    0.00093     0.38822
      H   28    0.12222      0.00000     0.36748    0.01030     0.37778
      H   29    0.09479      0.00000     0.40444    0.00076     0.40521
      H   30    0.10483      0.00000     0.39405    0.00112     0.39517
      H   31    0.10198      0.00000     0.39576    0.00226     0.39802
      H   32    0.11839      0.00000     0.37991    0.00169     0.38161
      H   33    0.09845      0.00000     0.39900    0.00255     0.40155
 =======================================================================
   * Total *   -0.00000     21.99251    46.75495    0.25254    69.00000

 Normal termination of Gaussian 16 at Wed Dec 30 19:46:03 2020.
