 Gaussian 16, Revision A.03,

 -----------------------------------------------------------
 # opt freq B3LYP/6-31G(d) empiricaldispersion=gd3bj scf=xqc
 -----------------------------------------------------------

 -----------------------------
 CID_891970_JID_10448_neutraal
 -----------------------------
 Symbolic Z-matrix:
 Charge =  0 Multiplicity = 1

 SCF Done:  E(RB3LYP) =  -1528.91352324     A.U. after   17 cycles
 SCF Done:  E(RB3LYP) =  -1528.91965929     A.U. after   14 cycles
 SCF Done:  E(RB3LYP) =  -1528.91910682     A.U. after   13 cycles
 SCF Done:  E(RB3LYP) =  -1528.92101892     A.U. after   13 cycles
 SCF Done:  E(RB3LYP) =  -1528.92323082     A.U. after   13 cycles
 SCF Done:  E(RB3LYP) =  -1528.92416350     A.U. after   14 cycles
 SCF Done:  E(RB3LYP) =  -1528.92496401     A.U. after   13 cycles
 SCF Done:  E(RB3LYP) =  -1528.92420671     A.U. after   14 cycles
 SCF Done:  E(RB3LYP) =  -1528.92534914     A.U. after   14 cycles
 SCF Done:  E(RB3LYP) =  -1528.92559875     A.U. after   13 cycles
 SCF Done:  E(RB3LYP) =  -1528.92796756     A.U. after   10 cycles
 SCF Done:  E(RB3LYP) =  -1528.92797589     A.U. after    9 cycles
 SCF Done:  E(RB3LYP) =  -1528.92797923     A.U. after   10 cycles
 SCF Done:  E(RB3LYP) =  -1528.92797992     A.U. after    9 cycles
 SCF Done:  E(RB3LYP) =  -1528.92798003     A.U. after    8 cycles
 Optimization completed.
    -- Stationary point found.
 Normal termination of Gaussian 16 at Sat Dec 12 16:22:39 2020.

 --------------------------------------------------------------------
 #N Geom=AllCheck Guess=TCheck SCRF=Check GenChk RB3LYP/6-31G(d) Freq
 --------------------------------------------------------------------

 Structure from the checkpoint file:  "JID_10448.chk"
 -----------------------------
 CID_891970_JID_10448_neutraal
 -----------------------------
 Charge =  0 Multiplicity = 1

 SCF Done:  E(RB3LYP) =  -1528.92798003     A.U. after    1 cycles

  Exact polarizability: 230.263  27.031 201.324  13.196 -14.252 182.169
 Approx polarizability: 351.724  50.822 320.033  39.987 -46.439 333.185

                      1                      2                      3
                      A                      A                      A
 Frequencies --     28.9026                35.0466                46.2458
 Red. masses --      3.8041                 5.1440                 3.5735
 Frc consts  --      0.0019                 0.0037                 0.0045
 IR Inten    --      0.2567                 0.9333                 0.0637

                      4                      5                      6
                      A                      A                      A
 Frequencies --     63.1796                65.9678               101.9525
 Red. masses --      6.1978                 4.3588                 3.5485
 Frc consts  --      0.0146                 0.0112                 0.0217
 IR Inten    --      5.4779                 0.2140                 0.5385

                      7                      8                      9
                      A                      A                      A
 Frequencies --    113.3749               122.9369               151.7182
 Red. masses --      1.6613                 2.0596                 2.0053
 Frc consts  --      0.0126                 0.0183                 0.0272
 IR Inten    --      0.0267                 0.1783                 2.2454

                     10                     11                     12
                      A                      A                      A
 Frequencies --    170.9607               181.1699               188.1442
 Red. masses --      1.1447                 2.8850                 1.3306
 Frc consts  --      0.0197                 0.0558                 0.0278
 IR Inten    --      0.1475                 0.4993                 1.7492

                     13                     14                     15
                      A                      A                      A
 Frequencies --    199.2277               229.6014               232.5524
 Red. masses --      3.5974                 2.5750                 1.4004
 Frc consts  --      0.0841                 0.0800                 0.0446
 IR Inten    --      0.8572                 0.8365                 0.3096

                     16                     17                     18
                      A                      A                      A
 Frequencies --    243.1965               269.8380               280.9800
 Red. masses --      2.7233                 1.2408                 2.0663
 Frc consts  --      0.0949                 0.0532                 0.0961
 IR Inten    --      0.2578                 0.3179                 0.3047

                     19                     20                     21
                      A                      A                      A
 Frequencies --    298.6660               314.7083               337.2233
 Red. masses --      2.9160                 2.4300                 1.0817
 Frc consts  --      0.1533                 0.1418                 0.0725
 IR Inten    --      2.1363                 0.3937                 0.0639

                     22                     23                     24
                      A                      A                      A
 Frequencies --    343.7523               344.9605               351.1156
 Red. masses --      3.3186                 4.3318                 2.6393
 Frc consts  --      0.2310                 0.3037                 0.1917
 IR Inten    --      0.3786                 1.9397                 0.8089

                     25                     26                     27
                      A                      A                      A
 Frequencies --    366.0613               390.4223               419.6022
 Red. masses --      3.3064                 3.0574                 2.5486
 Frc consts  --      0.2610                 0.2746                 0.2644
 IR Inten    --      0.5561                 1.0117                 0.0989

                     28                     29                     30
                      A                      A                      A
 Frequencies --    426.8648               446.2895               508.2699
 Red. masses --      7.1105                 4.1575                 4.0995
 Frc consts  --      0.7634                 0.4879                 0.6240
 IR Inten    --      1.3681                 0.0416                 0.5776

                     31                     32                     33
                      A                      A                      A
 Frequencies --    528.3209               546.4095               556.0634
 Red. masses --      3.1384                 3.0329                 4.7774
 Frc consts  --      0.5161                 0.5335                 0.8703
 IR Inten    --      0.1432                 0.4444                 1.5100

                     34                     35                     36
                      A                      A                      A
 Frequencies --    562.5123               569.9698               605.8485
 Red. masses --      6.1679                 3.1611                 5.9291
 Frc consts  --      1.1499                 0.6050                 1.2822
 IR Inten    --      0.9318                 0.4148                 7.6830

                     37                     38                     39
                      A                      A                      A
 Frequencies --    614.2843               630.2979               661.7834
 Red. masses --      7.4281                11.4701                 7.6220
 Frc consts  --      1.6515                 2.6848                 1.9668
 IR Inten    --      9.9803                 0.2378                 4.8066

                     40                     41                     42
                      A                      A                      A
 Frequencies --    676.4936               746.9060               764.4815
 Red. masses --      3.5023                 3.7610                 9.4118
 Frc consts  --      0.9443                 1.2362                 3.2408
 IR Inten    --     10.9536                 1.8461                 1.9494

                     43                     44                     45
                      A                      A                      A
 Frequencies --    775.4133               827.4349               891.6626
 Red. masses --      4.3697                 3.0233                 1.7461
 Frc consts  --      1.5480                 1.2195                 0.8179
 IR Inten    --      1.6877                 0.0371                 5.5547

                     46                     47                     48
                      A                      A                      A
 Frequencies --    898.2310               901.5274               941.3946
 Red. masses --      1.5876                 1.3110                 1.7295
 Frc consts  --      0.7547                 0.6278                 0.9031
 IR Inten    --      8.0197                 0.1972                 1.4646

                     49                     50                     51
                      A                      A                      A
 Frequencies --    948.6578               958.4688               973.8391
 Red. masses --      2.1747                 2.5148                 1.1977
 Frc consts  --      1.1531                 1.3612                 0.6692
 IR Inten    --      1.9575                 5.6818                 0.1129

                     52                     53                     54
                      A                      A                      A
 Frequencies --    983.6554              1003.9319              1037.3000
 Red. masses --      2.2467                 1.9048                 1.6405
 Frc consts  --      1.2808                 1.1311                 1.0400
 IR Inten    --      3.0925                11.0981                 3.0204

                     55                     56                     57
                      A                      A                      A
 Frequencies --   1040.1254              1060.2313              1063.3454
 Red. masses --      5.8102                 1.4201                 1.3964
 Frc consts  --      3.7035                 0.9405                 0.9303
 IR Inten    --     40.6695                 0.4823                 0.0281

                     58                     59                     60
                      A                      A                      A
 Frequencies --   1067.1357              1068.1270              1074.9548
 Red. masses --      1.4268                 1.5063                 1.5169
 Frc consts  --      0.9573                 1.0126                 1.0328
 IR Inten    --      1.5381                 0.4755                 5.6978

                     61                     62                     63
                      A                      A                      A
 Frequencies --   1082.1206              1118.2298              1155.0581
 Red. masses --      1.4962                 9.0957                 2.1771
 Frc consts  --      1.0323                 6.7011                 1.7113
 IR Inten    --      3.7818                 4.8738                 0.7307

                     64                     65                     66
                      A                      A                      A
 Frequencies --   1182.2966              1228.0306              1229.6567
 Red. masses --      1.2510                 3.4592                 2.7968
 Frc consts  --      1.0303                 3.0736                 2.4916
 IR Inten    --      0.1557                24.4400                11.1814

                     67                     68                     69
                      A                      A                      A
 Frequencies --   1242.9120              1247.4749              1276.5364
 Red. masses --      2.7058                 2.6747                 2.1236
 Frc consts  --      2.4628                 2.4524                 2.0389
 IR Inten    --      2.7950                 1.4005                20.8669

                     70                     71                     72
                      A                      A                      A
 Frequencies --   1280.2526              1313.6849              1337.6172
 Red. masses --      1.3263                 1.5069                 4.2191
 Frc consts  --      1.2808                 1.5322                 4.4477
 IR Inten    --     18.1852                 0.7571                 6.5221

                     73                     74                     75
                      A                      A                      A
 Frequencies --   1359.1001              1424.6228              1425.9959
 Red. masses --      4.8921                 1.2457                 1.2464
 Frc consts  --      5.3241                 1.4896                 1.4932
 IR Inten    --      0.8826                 3.8921                 3.8345

                     76                     77                     78
                      A                      A                      A
 Frequencies --   1431.1920              1433.0018              1444.1262
 Red. masses --      7.8087                 1.2845                 1.2613
 Frc consts  --      9.4237                 1.5540                 1.5498
 IR Inten    --     19.7168                 3.2558                 2.9587

                     79                     80                     81
                      A                      A                      A
 Frequencies --   1450.3418              1458.5185              1465.9474
 Red. masses --      1.2784                 1.2253                 3.0001
 Frc consts  --      1.5844                 1.5357                 3.7986
 IR Inten    --      2.9402                 2.7285                 7.5790

                     82                     83                     84
                      A                      A                      A
 Frequencies --   1485.6429              1489.6018              1506.2773
 Red. masses --      1.9482                 1.5677                 1.0456
 Frc consts  --      2.5335                 2.0495                 1.3977
 IR Inten    --     13.4825                 4.5455                 6.6698

                     85                     86                     87
                      A                      A                      A
 Frequencies --   1511.5222              1514.8255              1516.2485
 Red. masses --      1.0500                 1.0578                 1.0660
 Frc consts  --      1.4135                 1.4301                 1.4439
 IR Inten    --      0.6110                 1.3693                 1.8448

                     88                     89                     90
                      A                      A                      A
 Frequencies --   1519.5189              1521.3667              1525.7604
 Red. masses --      1.0719                 1.0606                 1.2640
 Frc consts  --      1.4582                 1.4463                 1.7336
 IR Inten    --      2.9183                 5.1963                 4.6814

                     91                     92                     93
                      A                      A                      A
 Frequencies --   1532.5186              1533.2692              1536.5356
 Red. masses --      1.5987                 1.1535                 1.1344
 Frc consts  --      2.2122                 1.5977                 1.5779
 IR Inten    --     11.4812                10.1544                 6.0960

                     94                     95                     96
                      A                      A                      A
 Frequencies --   1537.6041              1549.3465              1552.7391
 Red. masses --      1.0562                 1.0931                 1.2184
 Frc consts  --      1.4713                 1.5459                 1.7307
 IR Inten    --      3.4104                 1.2956                13.9388

                     97                     98                     99
                      A                      A                      A
 Frequencies --   1630.2707              1665.9365              3042.3046
 Red. masses --      6.8481                 5.3714                 1.0395
 Frc consts  --     10.7235                 8.7832                 5.6689
 IR Inten    --     10.6403                22.8825                26.9381

                    100                    101                    102
                      A                      A                      A
 Frequencies --   3044.5732              3045.5322              3046.3383
 Red. masses --      1.0352                 1.0351                 1.0420
 Frc consts  --      5.6535                 5.6565                 5.6973
 IR Inten    --     23.9040                29.4946                27.3110

                    103                    104                    105
                      A                      A                      A
 Frequencies --   3053.0730              3060.5443              3095.9582
 Red. masses --      1.0364                 1.0365                 1.0981
 Frc consts  --      5.6916                 5.7205                 6.2010
 IR Inten    --     22.0562                12.5598                13.3248

                    106                    107                    108
                      A                      A                      A
 Frequencies --   3107.7402              3108.9880              3110.8347
 Red. masses --      1.0651                 1.1025                 1.0928
 Frc consts  --      6.0607                 6.2785                 6.2307
 IR Inten    --     18.5992                12.0230                 3.2444

                    109                    110                    111
                      A                      A                      A
 Frequencies --   3112.2616              3117.3697              3119.2231
 Red. masses --      1.1021                 1.1021                 1.1013
 Frc consts  --      6.2897                 6.3106                 6.3132
 IR Inten    --      6.7957                65.6093                 5.1333

                    112                    113                    114
                      A                      A                      A
 Frequencies --   3120.0209              3125.1995              3127.8024
 Red. masses --      1.1018                 1.1018                 1.1008
 Frc consts  --      6.3196                 6.3404                 6.3451
 IR Inten    --     58.2863                16.5413                43.9792

                    115                    116                    117
                      A                      A                      A
 Frequencies --   3131.1047              3136.2374              3159.6549
 Red. masses --      1.1007                 1.1023                 1.1016
 Frc consts  --      6.3579                 6.3882                 6.4799
 IR Inten    --     15.0521                10.0891                 2.7680

                    118                    119                    120
                      A                      A                      A
 Frequencies --   3177.6652              3185.6510              3217.2634
 Red. masses --      1.1026                 1.0888                 1.0886
 Frc consts  --      6.5596                 6.5103                 6.6390
 IR Inten    --      3.6838                20.4541                 8.7435

 - Thermochemistry -
 -------------------
 Temperature   298.150 Kelvin.  Pressure   1.00000 Atm.
 Atom     1 has atomic number  6 and mass  12.00000

 Molecular mass:   306.12244 amu.
 Principal axes and moments of inertia in atomic units:
                           1         2         3
     Eigenvalues --  4413.609347124.252938723.11572
           X            0.99950   0.03009   0.00996
           Y           -0.02996   0.99946  -0.01321
           Z           -0.01035   0.01291   0.99986
 This molecule is an asymmetric top.
 Rotational symmetry number  1.
 Warning -- assumption of classical behavior for rotation
           may cause significant error
 Rotational temperatures (Kelvin)      0.01962     0.01216     0.00993
 Rotational constants (GHZ):           0.40890     0.25332     0.20689
 Zero-point vibrational energy     923593.5 (Joules/Mol)
                                  220.74415 (Kcal/Mol)
 Warning -- explicit consideration of  37 degrees of freedom as
           vibrations may cause significant error
 Vibrational temperatures:     41.58    50.42    66.54    90.90    94.91
          (Kelvin)            146.69   163.12   176.88   218.29   245.97
                              260.66   270.70   286.64   330.35   334.59
                              349.91   388.24   404.27   429.71   452.80
                              485.19   494.58   496.32   505.18   526.68
                              561.73   603.71   614.16   642.11   731.29
                              760.14   786.16   800.05   809.33   820.06
                              871.68   883.82   906.86   952.16   973.32
                             1074.63  1099.92  1115.65  1190.49  1282.90
                             1292.35  1297.10  1354.46  1364.91  1379.02
                             1401.14  1415.26  1444.43  1492.44  1496.51
                             1525.44  1529.92  1535.37  1536.80  1546.62
                             1556.93  1608.88  1661.87  1701.06  1766.86
                             1769.20  1788.27  1794.84  1836.65  1842.00
                             1890.10  1924.53  1955.44  2049.71  2051.69
                             2059.17  2061.77  2077.78  2086.72  2098.48
                             2109.17  2137.51  2143.20  2167.20  2174.74
                             2179.50  2181.54  2186.25  2188.91  2195.23
                             2204.95  2206.03  2210.73  2212.27  2229.16
                             2234.05  2345.60  2396.91  4377.20  4380.46
                             4381.84  4383.00  4392.69  4403.44  4454.39
                             4471.35  4473.14  4475.80  4477.85  4485.20
                             4487.87  4489.01  4496.47  4500.21  4504.96
                             4512.35  4546.04  4571.95  4583.44  4628.92

 Zero-point correction=                           0.351778 (Hartree/Particle)
 Thermal correction to Energy=                    0.373294
 Thermal correction to Enthalpy=                  0.374239
 Thermal correction to Gibbs Free Energy=         0.301585
 Sum of electronic and zero-point Energies=          -1528.576202
 Sum of electronic and thermal Energies=             -1528.554686
 Sum of electronic and thermal Enthalpies=           -1528.553741
 Sum of electronic and thermal Free Energies=        -1528.626395

                     E (Thermal)             CV                S
                      KCal/Mol        Cal/Mol-Kelvin    Cal/Mol-Kelvin
 Total                  234.246             81.675            152.912
 Electronic               0.000              0.000              0.000
 Translational            0.889              2.981             43.053
 Rotational               0.889              2.981             33.972
 Vibrational            232.468             75.713             75.887
 Vibration     1          0.593              1.984              5.903
 Vibration     2          0.594              1.982              5.521
 Vibration     3          0.595              1.979              4.972
 Vibration     4          0.597              1.972              4.355
 Vibration     5          0.597              1.971              4.270
 Vibration     6          0.604              1.948              3.417
 Vibration     7          0.607              1.938              3.210
 Vibration     8          0.610              1.930              3.054
 Vibration     9          0.619              1.901              2.651
 Vibration    10          0.626              1.878              2.425
 Vibration    11          0.630              1.865              2.316
 Vibration    12          0.633              1.856              2.246
 Vibration    13          0.637              1.841              2.140
 Vibration    14          0.652              1.796              1.882
 Vibration    15          0.653              1.791              1.859
 Vibration    16          0.659              1.774              1.779
 Vibration    17          0.674              1.729              1.597
 Vibration    18          0.681              1.709              1.528
 Vibration    19          0.692              1.676              1.424
 Vibration    20          0.702              1.646              1.337
 Vibration    21          0.718              1.601              1.225
 Vibration    22          0.722              1.588              1.195
 Vibration    23          0.723              1.586              1.189
 Vibration    24          0.728              1.573              1.161
 Vibration    25          0.739              1.542              1.096
 Vibration    26          0.758              1.491              0.999
 Vibration    27          0.782              1.428              0.893
 Vibration    28          0.789              1.412              0.869
 Vibration    29          0.806              1.369              0.807
 Vibration    30          0.863              1.232              0.638
 Vibration    31          0.883              1.187              0.591
 Vibration    32          0.902              1.148              0.552
 Vibration    33          0.912              1.126              0.532
 Vibration    34          0.918              1.112              0.519
 Vibration    35          0.926              1.096              0.504
 Vibration    36          0.964              1.019              0.440
 Vibration    37          0.974              1.002              0.426

                           ! Non-Optimized Parameters !
 Normal termination of Gaussian 16 at Sat Dec 12 16:49:50 2020.

 ----------------------------------------------------------------------
 # B3LYP/6-311++G(d,p) empiricaldispersion=gd3bj scf=xqc pop=npa geom=c
 heck
 ----------------------------------------------------------------------

 -------------------------------------
 CID_891970_JID_10448_Energie_neutraal
 -------------------------------------
 Structure from the checkpoint file:  "JID_10448.chk"
 Charge =  0 Multiplicity = 1

 SCF Done:  E(RB3LYP) =  -1529.16901465     A.U. after   17 cycles
 Normal termination of Gaussian 16 at Sat Dec 12 17:02:27 2020.

 ----------------------------------------------------------------------
 # B3LYP/6-311++G(d,p) empiricaldispersion=gd3bj scf=xqc pop=npa geom=c
 heck
 ----------------------------------------------------------------------

 -----------------------------------
 CID_891970_JID_10448_Energie_kation
 -----------------------------------
 Structure from the checkpoint file:  "JID_10448.chk"
 Charge =  1 Multiplicity = 2

 SCF Done:  E(UB3LYP) =  -1528.87326695     A.U. after   32 cycles
 Normal termination of Gaussian 16 at Sat Dec 12 17:34:52 2020.
 Gaussian 16:  ES64L-G16RevA.03 25-Dec-2016

 ----------------------------------------------------------------------
 # B3LYP/6-311++G(d,p) empiricaldispersion=gd3bj scf=xqc pop=npa geom=c
 heck
 ----------------------------------------------------------------------

 ----------------------------------
 CID_891970_JID_10448_Energie_anion
 ----------------------------------
 Structure from the checkpoint file:  "JID_10448.chk"
 Charge = -1 Multiplicity = 2

                         Standard orientation:
 ---------------------------------------------------------------------
 Center     Atomic      Atomic             Coordinates (Angstroms)
 Number     Number       Type             X           Y           Z
 ---------------------------------------------------------------------
      1          6           0       -0.419516   -2.850872    1.691525
      2          6           0        0.128033   -1.962782    0.600210
      3          6           0        1.409135   -1.429307    0.727229
      4          6           0        1.958833   -0.566735   -0.229756
      5          6           0        1.189035   -0.292242   -1.360983
      6          6           0       -0.097779   -0.815844   -1.536522
      7          6           0       -0.644972   -1.638161   -0.534058
      8          6           0       -2.077504   -2.070137   -0.617920
      9         16           0       -3.221764   -0.984616    0.421569
     10          6           0       -2.415781    0.574550    0.240405
     11          7           0       -2.617382    1.398120   -0.752333
     12          7           0       -1.826266    2.509196   -0.702049
     13          6           0       -1.030017    2.533132    0.337458
     14         16           0       -1.198874    1.142728    1.373077
     15          6           0       -0.057054    3.639240    0.587919
     16          6           0       -0.858154   -0.478366   -2.799005
     17          6           0        3.349134    0.038968   -0.000886
     18          6           0        3.334341    0.852520    1.311827
     19          6           0        4.392286   -1.093706    0.110201
     20          6           0        3.773746    0.977804   -1.141627
     21          1           0       -0.678395   -3.847947    1.312749
     22          1           0        0.315554   -2.982619    2.490437
     23          1           0       -1.329670   -2.428585    2.132762
     24          1           0        1.982318   -1.683701    1.614354
     25          1           0        1.579409    0.352692   -2.139690
     26          1           0       -2.459431   -2.047231   -1.636915
     27          1           0       -2.244071   -3.068152   -0.205814
     28          1           0       -0.209010    4.094171    1.572373
     29          1           0        0.974309    3.271448    0.542472
     30          1           0       -0.194332    4.401224   -0.182660
     31          1           0       -1.791363    0.052015   -2.585623
     32          1           0       -0.254796    0.163984   -3.446448
     33          1           0       -1.108110   -1.380834   -3.371088
     34          1           0        3.079929    0.228506    2.173970
     35          1           0        4.318530    1.298857    1.496968
     36          1           0        2.596888    1.661805    1.258118
     37          1           0        4.422585   -1.684568   -0.811759
     38          1           0        5.391699   -0.677143    0.283432
     39          1           0        4.164354   -1.774068    0.936731
     40          1           0        3.832935    0.451068   -2.100131
     41          1           0        3.078835    1.817386   -1.255475
     42          1           0        4.765006    1.392322   -0.928511
 ---------------------------------------------------------------------

 SCF Done:  E(UB3LYP) =  -1529.17318268     A.U. after   33 cycles
 SCF Done:  E(UB3LYP) =  -1529.17318268     a.u. after    1 cycles

 The electronic state is 2-A.
 Alpha  occ. eigenvalues --  -88.73357 -88.71587 -14.19633 -14.18466 -10.09422
 Alpha  occ. eigenvalues --  -10.09319 -10.08984 -10.07047 -10.06956 -10.06724
 Alpha  occ. eigenvalues --  -10.06712 -10.06570 -10.06449 -10.06397 -10.06389
 Alpha  occ. eigenvalues --  -10.06061 -10.05878 -10.05271 -10.05263 -10.04706
 Alpha  occ. eigenvalues --   -7.82077  -7.80098  -5.78332  -5.78022  -5.77696
 Alpha  occ. eigenvalues --   -5.76496  -5.76143  -5.75480  -0.88085  -0.75856
 Alpha  occ. eigenvalues --   -0.72597  -0.70215  -0.67694  -0.67039  -0.65487
 Alpha  occ. eigenvalues --   -0.61863  -0.59956  -0.59688  -0.59420  -0.57880
 Alpha  occ. eigenvalues --   -0.56318  -0.53692  -0.48733  -0.46356  -0.44877
 Alpha  occ. eigenvalues --   -0.43132  -0.40567  -0.38947  -0.38109  -0.35143
 Alpha  occ. eigenvalues --   -0.34937  -0.33638  -0.33129  -0.32487  -0.32002
 Alpha  occ. eigenvalues --   -0.31307  -0.30565  -0.30449  -0.30352  -0.29884
 Alpha  occ. eigenvalues --   -0.29402  -0.29073  -0.27942  -0.27840  -0.27571
 Alpha  occ. eigenvalues --   -0.27143  -0.26587  -0.26068  -0.25390  -0.24711
 Alpha  occ. eigenvalues --   -0.24320  -0.22841  -0.21787  -0.21369  -0.20712
 Alpha  occ. eigenvalues --   -0.16066  -0.15021  -0.13313  -0.13068  -0.12524
 Alpha  occ. eigenvalues --   -0.11872  -0.10498   0.04365
 Alpha virt. eigenvalues --    0.05958   0.07741   0.08192   0.08210   0.08918
 Alpha virt. eigenvalues --    0.09013   0.09377   0.09668   0.10273   0.10878
 Alpha virt. eigenvalues --    0.11334   0.11495   0.11554   0.12288   0.12778

  Beta  occ. eigenvalues --  -88.73297 -88.71562 -14.19738 -14.18220 -10.09425
  Beta  occ. eigenvalues --  -10.09004 -10.08667 -10.06948 -10.06824 -10.06707
  Beta  occ. eigenvalues --  -10.06703 -10.06593 -10.06393 -10.06376 -10.06348
  Beta  occ. eigenvalues --  -10.06058 -10.05840 -10.05279 -10.05253 -10.04706
  Beta  occ. eigenvalues --   -7.82022  -7.80067  -5.78308  -5.77999  -5.77489
  Beta  occ. eigenvalues --   -5.76444  -5.76119  -5.75459  -0.87790  -0.75775
  Beta  occ. eigenvalues --   -0.72509  -0.69782  -0.67320  -0.66967  -0.65281
  Beta  occ. eigenvalues --   -0.61685  -0.59935  -0.59569  -0.59386  -0.57778
  Beta  occ. eigenvalues --   -0.56290  -0.53428  -0.48576  -0.46317  -0.44541
  Beta  occ. eigenvalues --   -0.43061  -0.40274  -0.38874  -0.38048  -0.35049
  Beta  occ. eigenvalues --   -0.34896  -0.33554  -0.32689  -0.32261  -0.31783
  Beta  occ. eigenvalues --   -0.31260  -0.30430  -0.30325  -0.30303  -0.29851
  Beta  occ. eigenvalues --   -0.29263  -0.29021  -0.27792  -0.27629  -0.27374
  Beta  occ. eigenvalues --   -0.26800  -0.26500  -0.25963  -0.24985  -0.24646
  Beta  occ. eigenvalues --   -0.24288  -0.22668  -0.21673  -0.21286  -0.20413
  Beta  occ. eigenvalues --   -0.15956  -0.14101  -0.12840  -0.12306  -0.11986
  Beta  occ. eigenvalues --   -0.11425  -0.10369
  Beta virt. eigenvalues --    0.06103   0.07588   0.08089   0.08168   0.08770
  Beta virt. eigenvalues --    0.09051   0.09339   0.09645   0.09882   0.10711
  Beta virt. eigenvalues --    0.10957   0.11334   0.11479   0.11634   0.12330

 Mulliken charges and spin densities:
               1          2
     1  C   -0.246946  -0.132471
     2  C    0.158564   0.069907
     3  C   -0.424279  -0.036794
     4  C    0.627724  -0.122369
     5  C   -0.148596  -0.220160
     6  C    0.184793  -0.081901
     7  C    0.538617   0.044145
     8  C   -0.921548  -0.101660
     9  S   -0.224145   0.153742
    10  C   -0.109534   0.205807
    11  N   -0.058646   0.095734
    12  N    0.024866  -0.047828
    13  C   -0.483242   0.142172
    14  S    0.416691   0.172421
    15  C   -0.550090  -0.076569
    16  C   -0.853119  -0.004912
    17  C   -0.053207   0.559859
    18  C   -0.192275  -0.393709
    19  C   -0.523146  -0.157934
    20  C   -0.505367  -0.010610
    21  H    0.098197   0.060109
    22  H    0.123280  -0.004715
    23  H    0.185325  -0.006442
    24  H    0.213349  -0.068920
    25  H    0.185482  -0.022858
    26  H    0.185702   0.039366
    27  H    0.008848   0.160918
    28  H    0.146969   0.006006
    29  H    0.028388   0.096273
    30  H    0.144417   0.003470
    31  H    0.178417   0.001089
    32  H    0.101021   0.001294
    33  H    0.119704   0.032918
    34  H    0.061384   0.079297
    35  H   -0.068284   0.210963
    36  H    0.224801  -0.066384
    37  H    0.147637  -0.003834
    38  H    0.055746   0.080330
    39  H    0.055025   0.078933
    40  H    0.101290   0.034500
    41  H    0.092073   0.023195
    42  H   -0.045887   0.207624
 Sum of Mulliken charges =  -1.00000   1.00000

 Dipole moment (field-independent basis, Debye):
    X=              5.1703    Y=             -2.0821    Z=              0.9763  Tot=              5.6587
 Quadrupole moment (field-independent basis, Debye-Ang):
   XX=           -195.8790   YY=           -166.3958   ZZ=           -153.9939
   XY=              4.1195   XZ=             -3.8048   YZ=              1.7714

 Summary of Natural Population Analysis:

                                       Natural Population
                Natural  -----------------------------------------------
    Atom  No    Charge         Core      Valence    Rydberg      Total
 -----------------------------------------------------------------------
      C    1   -0.31149      0.99968     2.30116    0.01065     3.31149
      C    2    0.06159      0.99947     1.92843    0.01050     2.93841
      C    3   -0.12350      0.99952     2.10727    0.01671     3.12350
      C    4    0.00053      0.99948     1.98747    0.01252     2.99947
      C    5   -0.11053      0.99946     2.10157    0.00950     3.11053
      C    6    0.00424      0.99947     1.98575    0.01054     2.99576
      C    7   -0.04559      0.99947     2.02838    0.01775     3.04559
      C    8   -0.21966      0.99954     2.20808    0.01203     3.21966
      S    9    0.10524      4.99949     2.87580    0.01948     7.89476
      C   10   -0.02715      0.99961     2.00930    0.01825     3.02715
      N   11   -0.13186      0.99959     2.61264    0.01962     3.63186
      N   12   -0.18401      0.99964     2.66943    0.01494     3.68401
      C   13    0.06602      0.99965     1.91646    0.01787     2.93398
      S   14    0.19394      4.99933     2.78701    0.01972     7.80606
      C   15   -0.30500      0.99961     2.30058    0.00481     3.30500
      C   16   -0.30052      0.99963     2.29536    0.00553     3.30052
      C   17   -0.05153      0.99956     2.04274    0.00924     3.05153
      C   18   -0.27938      0.99963     2.27217    0.00758     3.27938
      C   19   -0.27790      0.99964     2.27270    0.00556     3.27790
      C   20   -0.28641      0.99964     2.27927    0.00749     3.28641
      H   21    0.09992      0.00000     0.39906    0.00102     0.40008
      H   22    0.09639      0.00000     0.40279    0.00082     0.40361
      H   23    0.11198      0.00000     0.38669    0.00133     0.38802
      H   24    0.09142      0.00000     0.40715    0.00143     0.40858
      H   25    0.09662      0.00000     0.40191    0.00147     0.40338
      H   26    0.10234      0.00000     0.39622    0.00144     0.39766
      H   27    0.10158      0.00000     0.39678    0.00164     0.39842
      H   28    0.10254      0.00000     0.39664    0.00083     0.39746
      H   29    0.10488      0.00000     0.39370    0.00142     0.39512
      H   30    0.10896      0.00000     0.38997    0.00107     0.39104
      H   31    0.12326      0.00000     0.37545    0.00129     0.37674
      H   32    0.09754      0.00000     0.40172    0.00073     0.40246
      H   33    0.09685      0.00000     0.40210    0.00105     0.40315
      H   34    0.09938      0.00000     0.39989    0.00073     0.40062
      H   35    0.09415      0.00000     0.40498    0.00087     0.40585
      H   36    0.10342      0.00000     0.39572    0.00085     0.39658
      H   37    0.09945      0.00000     0.39982    0.00072     0.40055
      H   38    0.09419      0.00000     0.40499    0.00082     0.40581
      H   39    0.09909      0.00000     0.40007    0.00084     0.40091
      H   40    0.09924      0.00000     0.40004    0.00073     0.40076
      H   41    0.10342      0.00000     0.39570    0.00089     0.39658
      H   42    0.09784      0.00000     0.40146    0.00070     0.40216
 =======================================================================
   * Total *    0.00150     27.99111    53.73444    0.27295    81.99850

 Normal termination of Gaussian 16 at Sat Dec 12 18:07:39 2020.
