 Gaussian 16, Revision A.03,

 -----------------------------------------------------------
 # opt freq B3LYP/6-31G(d) empiricaldispersion=gd3bj scf=xqc
 -----------------------------------------------------------

 ------------------------------
 CID_43113296_JID_3331_neutraal
 ------------------------------
 Symbolic Z-matrix:
 Charge =  0 Multiplicity = 1

 SCF Done:  E(RB3LYP) =  -576.585264434     A.U. after   15 cycles
 SCF Done:  E(RB3LYP) =  -576.604005959     A.U. after   12 cycles
 SCF Done:  E(RB3LYP) =  -576.605053855     A.U. after   12 cycles
 SCF Done:  E(RB3LYP) =  -576.603897164     A.U. after   13 cycles
 SCF Done:  E(RB3LYP) =  -576.606075629     A.U. after   12 cycles
 SCF Done:  E(RB3LYP) =  -576.606848557     A.U. after   12 cycles
 SCF Done:  E(RB3LYP) =  -576.606543881     A.U. after   12 cycles
 SCF Done:  E(RB3LYP) =  -576.606690710     A.U. after   12 cycles
 SCF Done:  E(RB3LYP) =  -576.607039788     A.U. after    9 cycles
 SCF Done:  E(RB3LYP) =  -576.607128021     A.U. after   11 cycles
 SCF Done:  E(RB3LYP) =  -576.616364827     A.U. after   11 cycles
 SCF Done:  E(RB3LYP) =  -576.616367001     A.U. after    8 cycles
 SCF Done:  E(RB3LYP) =  -576.616367405     A.U. after    9 cycles
 SCF Done:  E(RB3LYP) =  -576.616367907     A.U. after    8 cycles
 SCF Done:  E(RB3LYP) =  -576.616367955     A.U. after    7 cycles
 Optimization completed.
    -- Stationary point found.
 Normal termination of Gaussian 16 at Wed Dec  9 23:22:36 2020.

 --------------------------------------------------------------------
 #N Geom=AllCheck Guess=TCheck SCRF=Check GenChk RB3LYP/6-31G(d) Freq
 --------------------------------------------------------------------

 Structure from the checkpoint file:  "JID_3331.chk"
 ------------------------------
 CID_43113296_JID_3331_neutraal
 ------------------------------
 Charge =  0 Multiplicity = 1

 SCF Done:  E(RB3LYP) =  -576.616367955     A.U. after    1 cycles

  Exact polarizability: 148.775  -9.713 105.103   2.746  -0.968  99.040
 Approx polarizability: 196.444 -25.184 151.100   6.272  -8.994 148.134

                      1                      2                      3
                      A                      A                      A
 Frequencies --     34.0737                41.8034                48.2051
 Red. masses --      3.8917                 4.1165                 3.5323
 Frc consts  --      0.0027                 0.0042                 0.0048
 IR Inten    --      0.0423                 0.3319                 0.2838

                      4                      5                      6
                      A                      A                      A
 Frequencies --     62.5578                78.0828               107.6961
 Red. masses --      6.2291                 2.0802                 3.3432
 Frc consts  --      0.0144                 0.0075                 0.0228
 IR Inten    --      1.1514                 0.2655                 1.0124

                      7                      8                      9
                      A                      A                      A
 Frequencies --    140.4019               169.9188               218.7000
 Red. masses --      2.9461                 2.7521                 1.1012
 Frc consts  --      0.0342                 0.0468                 0.0310
 IR Inten    --      0.0429                 0.1550                 0.0437

                     10                     11                     12
                      A                      A                      A
 Frequencies --    228.3765               238.9583               260.0302
 Red. masses --      1.8213                 1.1649                 2.7633
 Frc consts  --      0.0560                 0.0392                 0.1101
 IR Inten    --      0.3161                 0.1629                 2.5070

                     13                     14                     15
                      A                      A                      A
 Frequencies --    270.0198               279.2706               324.9337
 Red. masses --      2.4289                 1.7978                 3.0559
 Frc consts  --      0.1043                 0.0826                 0.1901
 IR Inten    --      1.0777                 0.2949                 0.2135

                     16                     17                     18
                      A                      A                      A
 Frequencies --    352.2048               362.5919               411.4056
 Red. masses --      2.7099                 3.1052                 3.0591
 Frc consts  --      0.1981                 0.2405                 0.3051
 IR Inten    --      9.6741                 2.3555                 1.8817

                     19                     20                     21
                      A                      A                      A
 Frequencies --    423.8885               464.7623               530.8768
 Red. masses --      3.5961                 2.4952                 4.3646
 Frc consts  --      0.3807                 0.3176                 0.7247
 IR Inten    --      3.4101                 1.9729                15.5842

                     22                     23                     24
                      A                      A                      A
 Frequencies --    599.2235               601.9705               606.4220
 Red. masses --      1.2579                 3.0652                 2.7192
 Frc consts  --      0.2661                 0.6544                 0.5892
 IR Inten    --     50.2948                 6.0363                27.2963

                     25                     26                     27
                      A                      A                      A
 Frequencies --    638.1287               657.5531               755.0719
 Red. masses --      1.2231                 1.7055                 2.3152
 Frc consts  --      0.2934                 0.4345                 0.7777
 IR Inten    --     56.2759                25.6764                40.6088

                     28                     29                     30
                      A                      A                      A
 Frequencies --    758.7465               793.2641               813.4081
 Red. masses --      2.6565                 1.3153                 2.2323
 Frc consts  --      0.9011                 0.4877                 0.8702
 IR Inten    --     11.9946                 7.5961                53.0798

                     31                     32                     33
                      A                      A                      A
 Frequencies --    858.0035               908.5543               942.1595
 Red. masses --      1.8339                 1.7543                 3.6552
 Frc consts  --      0.7954                 0.8532                 1.9117
 IR Inten    --      7.8862                 6.3280                36.6423

                     34                     35                     36
                      A                      A                      A
 Frequencies --    959.8828               994.5486              1009.5860
 Red. masses --      1.6392                 1.2201                 1.8111
 Frc consts  --      0.8898                 0.7111                 1.0876
 IR Inten    --      6.9413                 9.4987                17.5997

                     37                     38                     39
                      A                      A                      A
 Frequencies --   1032.1861              1038.1646              1064.2751
 Red. masses --      1.6028                 2.4263                 2.7605
 Frc consts  --      1.0061                 1.5407                 1.8422
 IR Inten    --      2.6954                15.8977                 3.4935

                     40                     41                     42
                      A                      A                      A
 Frequencies --   1110.6419              1145.4605              1168.1877
 Red. masses --      1.9749                 3.3958                 2.3044
 Frc consts  --      1.4353                 2.6252                 1.8528
 IR Inten    --     30.6816                26.6349                 9.6680

                     43                     44                     45
                      A                      A                      A
 Frequencies --   1176.8590              1187.5036              1203.7481
 Red. masses --      2.0466                 2.1750                 2.2426
 Frc consts  --      1.6700                 1.8071                 1.9146
 IR Inten    --     14.9155                50.7654                 3.3677

                     46                     47                     48
                      A                      A                      A
 Frequencies --   1280.9899              1305.4359              1341.8297
 Red. masses --      1.1664                 1.2473                 1.1946
 Frc consts  --      1.1277                 1.2524                 1.2672
 IR Inten    --     25.8532                 1.6891                 7.0814

                     49                     50                     51
                      A                      A                      A
 Frequencies --   1372.7912              1377.6521              1386.1260
 Red. masses --      1.3539                 1.2898                 1.3217
 Frc consts  --      1.5033                 1.4423                 1.4962
 IR Inten    --     15.4176                31.6630                 8.2531

                     52                     53                     54
                      A                      A                      A
 Frequencies --   1393.1661              1401.7459              1404.7787
 Red. masses --      1.6798                 1.3586                 1.9382
 Frc consts  --      1.9209                 1.5728                 2.2535
 IR Inten    --     44.1350                 1.4234                77.3512

                     55                     56                     57
                      A                      A                      A
 Frequencies --   1434.1369              1438.9424              1443.3840
 Red. masses --      1.2666                 1.2872                 1.2276
 Frc consts  --      1.5349                 1.5703                 1.5069
 IR Inten    --      9.6934                13.1158                 5.5270

                     58                     59                     60
                      A                      A                      A
 Frequencies --   1497.8851              1503.6016              1507.2585
 Red. masses --      1.2551                 1.2135                 1.1558
 Frc consts  --      1.6592                 1.6164                 1.5470
 IR Inten    --     11.1944                18.2155                 9.7197

                     61                     62                     63
                      A                      A                      A
 Frequencies --   1512.6237              1525.3479              1528.9497
 Red. masses --      1.0700                 1.0480                 1.1073
 Frc consts  --      1.4425                 1.4366                 1.5251
 IR Inten    --      2.2028                 9.2578                 0.5038

                     64                     65                     66
                      A                      A                      A
 Frequencies --   1530.5334              1534.2868              1537.0196
 Red. masses --      1.0582                 1.1146                 1.0874
 Frc consts  --      1.4605                 1.5459                 1.5136
 IR Inten    --      3.7426                19.3985                13.2614

                     67                     68                     69
                      A                      A                      A
 Frequencies --   1540.7532              1776.3451              2232.9946
 Red. masses --      1.0640                 7.6569                 5.9386
 Frc consts  --      1.4883                14.2350                17.4465
 IR Inten    --      0.7930               336.1992                 0.1460

                     70                     71                     72
                      A                      A                      A
 Frequencies --   3026.6181              3027.7792              3044.9837
 Red. masses --      1.0672                 1.0819                 1.0410
 Frc consts  --      5.7596                 5.8438                 5.6867
 IR Inten    --     21.4225                23.3614                26.0482

                     73                     74                     75
                      A                      A                      A
 Frequencies --   3048.5045              3054.0957              3054.8081
 Red. masses --      1.0380                 1.0574                 1.0410
 Frc consts  --      5.6835                 5.8110                 5.7235
 IR Inten    --     25.2772                25.8290                13.0440

                     76                     77                     78
                      A                      A                      A
 Frequencies --   3072.2592              3091.5808              3110.1317
 Red. masses --      1.0964                 1.1032                 1.0956
 Frc consts  --      6.0973                 6.2125                 6.2439
 IR Inten    --     20.5294                 8.8833                45.6894

                     79                     80                     81
                      A                      A                      A
 Frequencies --   3113.0343              3121.7274              3123.7396
 Red. masses --      1.0988                 1.0983                 1.1012
 Frc consts  --      6.2741                 6.3061                 6.3310
 IR Inten    --     16.5665                28.6721                46.2960

                     82                     83                     84
                      A                      A                      A
 Frequencies --   3138.1787              3141.7374              3147.0850
 Red. masses --      1.1024                 1.0889                 1.1016
 Frc consts  --      6.3964                 6.3326                 6.4285
 IR Inten    --     30.6123                 6.7026                22.2449

                     85                     86                     87
                      A                      A                      A
 Frequencies --   3484.3777              3494.7447              3545.0317
 Red. masses --      1.0741                 1.1601                 1.0744
 Frc consts  --      7.6833                 8.3480                 7.9555
 IR Inten    --      0.1768                56.3041                 8.6938

 - Thermochemistry -
 -------------------
 Temperature   298.150 Kelvin.  Pressure   1.00000 Atm.
 Atom     1 has atomic number  6 and mass  12.00000

 Molecular mass:   182.14191 amu.
 Principal axes and moments of inertia in atomic units:
                           1         2         3
     Eigenvalues --  1485.042214095.952664331.33353
           X            0.99993  -0.01148   0.00121
           Y            0.01108   0.98391   0.17835
           Z           -0.00324  -0.17832   0.98397
 This molecule is an asymmetric top.
 Rotational symmetry number  1.
 Warning -- assumption of classical behavior for rotation
           may cause significant error
 Rotational temperatures (Kelvin)      0.05832     0.02115     0.02000
 Rotational constants (GHZ):           1.21528     0.44062     0.41667
 Zero-point vibrational energy     716092.4 (Joules/Mol)
                                  171.15020 (Kcal/Mol)
 Warning -- explicit consideration of  24 degrees of freedom as
           vibrations may cause significant error
 Vibrational temperatures:     49.02    60.15    69.36    90.01   112.34
          (Kelvin)            154.95   202.01   244.48   314.66   328.58
                              343.81   374.13   388.50   401.81   467.51
                              506.74   521.69   591.92   609.88   668.69
                              763.81   862.15   866.10   872.51   918.12
                              946.07  1086.38  1091.67  1141.33  1170.31
                             1234.48  1307.21  1355.56  1381.06  1430.93
                             1452.57  1485.09  1493.69  1531.25  1597.97
                             1648.06  1680.76  1693.24  1708.55  1731.93
                             1843.06  1878.23  1930.59  1975.14  1982.13
                             1994.33  2004.46  2016.80  2021.16  2063.40
                             2070.32  2076.71  2155.12  2163.35  2168.61
                             2176.33  2194.64  2199.82  2202.10  2207.50
                             2211.43  2216.80  2555.76  3212.78  4354.63
                             4356.30  4381.05  4386.12  4394.16  4395.19
                             4420.30  4448.10  4474.79  4478.96  4491.47
                             4494.36  4515.14  4520.26  4527.95  5013.24
                             5028.16  5100.51

 Zero-point correction=                           0.272745 (Hartree/Particle)
 Thermal correction to Energy=                    0.288496
 Thermal correction to Enthalpy=                  0.289440
 Thermal correction to Gibbs Free Energy=         0.228920
 Sum of electronic and zero-point Energies=           -576.343623
 Sum of electronic and thermal Energies=              -576.327872
 Sum of electronic and thermal Enthalpies=            -576.326928
 Sum of electronic and thermal Free Energies=         -576.387448

                     E (Thermal)             CV                S
                      KCal/Mol        Cal/Mol-Kelvin    Cal/Mol-Kelvin
 Total                  181.034             57.089            127.375
 Electronic               0.000              0.000              0.000
 Translational            0.889              2.981             41.505
 Rotational               0.889              2.981             31.644
 Vibrational            179.256             51.127             54.226
 Vibration     1          0.594              1.983              5.577
 Vibration     2          0.594              1.980              5.172
 Vibration     3          0.595              1.978              4.890
 Vibration     4          0.597              1.972              4.375
 Vibration     5          0.599              1.964              3.938
 Vibration     6          0.606              1.943              3.310
 Vibration     7          0.615              1.913              2.798
 Vibration     8          0.625              1.880              2.436
 Vibration     9          0.646              1.813              1.970
 Vibration    10          0.651              1.798              1.892
 Vibration    11          0.657              1.781              1.811
 Vibration    12          0.668              1.746              1.662
 Vibration    13          0.674              1.728              1.596
 Vibration    14          0.680              1.712              1.538
 Vibration    15          0.709              1.626              1.285
 Vibration    16          0.729              1.571              1.156
 Vibration    17          0.736              1.549              1.111
 Vibration    18          0.775              1.445              0.922
 Vibration    19          0.786              1.418              0.879
 Vibration    20          0.822              1.328              0.752
 Vibration    21          0.886              1.182              0.585
 Vibration    22          0.957              1.033              0.451
 Vibration    23          0.960              1.028              0.446
 Vibration    24          0.965              1.018              0.439

                           ! Non-Optimized Parameters !
 Normal termination of Gaussian 16 at Wed Dec  9 23:31:18 2020.

 ----------------------------------------------------------------------
 # B3LYP/6-311++G(d,p) empiricaldispersion=gd3bj scf=xqc pop=npa geom=c
 heck
 ----------------------------------------------------------------------

 --------------------------------------
 CID_43113296_JID_3331_Energie_neutraal
 --------------------------------------
 Structure from the checkpoint file:  "JID_3331.chk"
 Charge =  0 Multiplicity = 1

 SCF Done:  E(RB3LYP) =  -576.792669186     A.U. after   15 cycles
 Normal termination of Gaussian 16 at Wed Dec  9 23:35:31 2020.

 ----------------------------------------------------------------------
 # B3LYP/6-311++G(d,p) empiricaldispersion=gd3bj scf=xqc pop=npa geom=c
 heck
 ----------------------------------------------------------------------

 ------------------------------------
 CID_43113296_JID_3331_Energie_kation
 ------------------------------------
 Structure from the checkpoint file:  "JID_3331.chk"
 Charge =  1 Multiplicity = 2

 SCF Done:  E(UB3LYP) =  -576.477462532     A.U. after   29 cycles
 Normal termination of Gaussian 16 at Wed Dec  9 23:46:55 2020.
 Gaussian 16:  ES64L-G16RevA.03 25-Dec-2016

 ----------------------------------------------------------------------
 # B3LYP/6-311++G(d,p) empiricaldispersion=gd3bj scf=xqc pop=npa geom=c
 heck
 ----------------------------------------------------------------------

 -----------------------------------
 CID_43113296_JID_3331_Energie_anion
 -----------------------------------
 Structure from the checkpoint file:  "JID_3331.chk"
 Charge = -1 Multiplicity = 2

                         Standard orientation:
 ---------------------------------------------------------------------
 Center     Atomic      Atomic             Coordinates (Angstroms)
 Number     Number       Type             X           Y           Z
 ---------------------------------------------------------------------
      1          6           0       -3.865149    0.120008   -1.099005
      2          6           0       -2.934320   -0.356142    0.019615
      3          6           0       -1.683484    0.521466    0.207376
      4          6           0       -2.014524    1.942891    0.669677
      5          7           0       -0.772794   -0.094898    1.178566
      6          6           0        0.314242   -0.903944    0.976914
      7          8           0        0.754313   -1.603270    1.883487
      8          6           0        1.013387   -0.930744   -0.393992
      9          6           0        0.310842   -1.912398   -1.338302
     10          7           0        1.098870    0.391761   -1.024362
     11          6           0        1.952175    1.342191   -0.298388
     12          6           0        3.363833    0.943147   -0.186195
     13          6           0        4.512601    0.573298   -0.136711
     14          1           0       -4.305656    1.097629   -0.877206
     15          1           0       -4.689028   -0.586072   -1.247766
     16          1           0       -3.324185    0.206215   -2.049523
     17          1           0       -3.485892   -0.403652    0.969989
     18          1           0       -2.601671   -1.379624   -0.192773
     19          1           0       -1.133531    0.585486   -0.732098
     20          1           0       -2.530482    1.930752    1.638804
     21          1           0       -1.097105    2.528853    0.779608
     22          1           0       -2.663154    2.453322   -0.048680
     23          1           0       -1.146582   -0.215461    2.115655
     24          1           0        2.008156   -1.334133   -0.157203
     25          1           0       -0.683708   -1.556438   -1.623703
     26          1           0        0.900384   -2.046053   -2.253318
     27          1           0        0.210612   -2.888669   -0.855543
     28          1           0        1.473909    0.271370   -1.964293
     29          1           0        1.881733    2.312364   -0.804895
     30          1           0        1.523972    1.480504    0.701332
     31          1           0        5.527571    0.253091   -0.071639
 ---------------------------------------------------------------------

 SCF Done:  E(UB3LYP) =  -576.780020366     A.U. after   33 cycles
 SCF Done:  E(UB3LYP) =  -576.780020366     a.u. after    1 cycles

 The electronic state is 2-A.
 Alpha  occ. eigenvalues --  -18.99129 -14.23787 -14.21890 -10.17525 -10.12990
 Alpha  occ. eigenvalues --  -10.11586 -10.11090 -10.08774 -10.07780 -10.07582
 Alpha  occ. eigenvalues --  -10.07379 -10.06569 -10.06281  -0.94288  -0.83614
 Alpha  occ. eigenvalues --   -0.82168  -0.69701  -0.69108  -0.65663  -0.63125
 Alpha  occ. eigenvalues --   -0.59112  -0.56279  -0.55042  -0.49515  -0.48198
 Alpha  occ. eigenvalues --   -0.45179  -0.41156  -0.40422  -0.39016  -0.37653
 Alpha  occ. eigenvalues --   -0.36544  -0.35817  -0.34578  -0.33177  -0.32111
 Alpha  occ. eigenvalues --   -0.31238  -0.30722  -0.29249  -0.28608  -0.28057
 Alpha  occ. eigenvalues --   -0.27335  -0.26689  -0.26183  -0.24286  -0.23994
 Alpha  occ. eigenvalues --   -0.19729  -0.18865  -0.16522  -0.15649  -0.15056
 Alpha  occ. eigenvalues --    0.04225
 Alpha virt. eigenvalues --    0.06116   0.06900   0.07193   0.07977   0.08662
 Alpha virt. eigenvalues --    0.09200   0.09858   0.10312   0.10643   0.10880
 Alpha virt. eigenvalues --    0.11151   0.11538   0.12009   0.12497   0.12641

  Beta  occ. eigenvalues --  -18.99120 -14.23786 -14.21869 -10.17520 -10.12967
  Beta  occ. eigenvalues --  -10.11582 -10.11083 -10.08775 -10.07761 -10.07552
  Beta  occ. eigenvalues --  -10.07363 -10.06533 -10.06237  -0.94274  -0.83590
  Beta  occ. eigenvalues --   -0.82149  -0.69671  -0.69079  -0.65634  -0.63074
  Beta  occ. eigenvalues --   -0.59054  -0.56219  -0.54974  -0.49444  -0.48175
  Beta  occ. eigenvalues --   -0.45144  -0.41113  -0.40398  -0.38982  -0.37606
  Beta  occ. eigenvalues --   -0.36514  -0.35791  -0.34546  -0.33147  -0.32074
  Beta  occ. eigenvalues --   -0.31199  -0.30675  -0.29206  -0.28577  -0.28023
  Beta  occ. eigenvalues --   -0.27279  -0.26653  -0.26142  -0.24245  -0.23960
  Beta  occ. eigenvalues --   -0.19698  -0.18843  -0.16510  -0.15626  -0.15035
  Beta virt. eigenvalues --    0.06400   0.06868   0.07644   0.07989   0.08403
  Beta virt. eigenvalues --    0.09048   0.09736   0.10108   0.10507   0.10688
  Beta virt. eigenvalues --    0.11233   0.11483   0.11714   0.12393   0.12941

 Mulliken charges and spin densities:
               1          2
     1  C    1.421851  -2.060077
     2  C   -1.952353   1.934146
     3  C   -0.236969  -0.085000
     4  C    1.352357  -1.951683
     5  N   -0.074102   0.069505
     6  C    0.309724  -0.448063
     7  O   -0.315670   0.005356
     8  C   -0.880538   0.901702
     9  C    0.486892  -1.112352
    10  N   -0.050059   0.010522
    11  C   -0.783238   0.227056
    12  C    2.219736  -1.746263
    13  C   -0.854881   0.392061
    14  H   -0.125425   0.267692
    15  H   -0.432833   0.581793
    16  H   -0.465595   0.610165
    17  H   -0.142417   0.271670
    18  H    0.062382   0.097721
    19  H    0.596978  -0.340555
    20  H   -0.209566   0.346588
    21  H   -0.165783   0.300134
    22  H   -0.257003   0.411266
    23  H    0.335586  -0.035174
    24  H    0.161019   0.086503
    25  H    0.007778   0.173238
    26  H   -0.362859   0.509568
    27  H    0.066786   0.089239
    28  H    0.028530   0.230060
    29  H   -0.616394   0.826830
    30  H    0.262184  -0.116117
    31  H   -0.386120   0.552468
 Sum of Mulliken charges =  -1.00000   1.00000

 Dipole moment (field-independent basis, Debye):
    X=              1.8237    Y=             -1.4679    Z=              2.7617  Tot=              3.6205
 Quadrupole moment (field-independent basis, Debye-Ang):
   XX=           -157.5035   YY=           -125.6075   ZZ=           -124.5473
   XY=              2.2380   XZ=             -6.0740   YZ=              3.7889

 Summary of Natural Population Analysis:

                                       Natural Population
                Natural  -----------------------------------------------
    Atom  No    Charge         Core      Valence    Rydberg      Total
 -----------------------------------------------------------------------
      C    1   -0.28682      0.99966     2.28218    0.00497     3.28682
      C    2   -0.19089      0.99962     2.18302    0.00826     3.19089
      C    3   -0.02580      0.99957     2.01424    0.01199     3.02580
      C    4   -0.28593      0.99964     2.28013    0.00616     3.28593
      N    5   -0.31778      0.99965     2.80764    0.01048     3.81778
      C    6    0.34366      0.99964     1.63267    0.02404     2.65634
      O    7   -0.32607      0.99988     3.32064    0.00555     4.32607
      C    8   -0.05123      0.99956     2.03901    0.01267     3.05123
      C    9   -0.28444      0.99964     2.27885    0.00595     3.28444
      N   10   -0.33400      0.99974     2.82060    0.01366     3.83400
      C   11   -0.13150      0.99955     2.11915    0.01280     3.13150
      C   12   -0.00755      0.99936     2.00019    0.00801     3.00755
      C   13   -0.12129      0.99927     2.11852    0.00349     3.12129
      H   14    0.09851      0.00000     0.40010    0.00139     0.40149
      H   15    0.10098      0.00000     0.39777    0.00125     0.39902
      H   16    0.09908      0.00000     0.39933    0.00159     0.40092
      H   17    0.09199      0.00000     0.40674    0.00127     0.40801
      H   18    0.09818      0.00000     0.40051    0.00131     0.40182
      H   19    0.11561      0.00000     0.38082    0.00356     0.38439
      H   20    0.09464      0.00000     0.40416    0.00120     0.40536
      H   21    0.10298      0.00000     0.39568    0.00134     0.39702
      H   22    0.10456      0.00000     0.39432    0.00111     0.39544
      H   23    0.18872      0.00000     0.30889    0.00239     0.31128
      H   24    0.10155      0.00000     0.39610    0.00235     0.39845
      H   25    0.10243      0.00000     0.39607    0.00149     0.39757
      H   26    0.10211      0.00000     0.39665    0.00124     0.39789
      H   27    0.10555      0.00000     0.39359    0.00086     0.39445
      H   28    0.17870      0.00000     0.31753    0.00377     0.32130
      H   29    0.11342      0.00000     0.38486    0.00172     0.38658
      H   30    0.11012      0.00000     0.38810    0.00178     0.38988
      H   31    0.11050      0.00000     0.38824    0.00125     0.38950
 =======================================================================
   * Total *   -0.00000     12.99478    36.84631    0.15890    50.00000

 Normal termination of Gaussian 16 at Thu Dec 10 00:00:09 2020.
