 Gaussian 16, Revision A.03,

 -----------------------------------------------------------
 # opt freq B3LYP/6-31G(d) empiricaldispersion=gd3bj scf=xqc
 -----------------------------------------------------------

 ------------------------------
 CID_148551146_JID_580_neutraal
 ------------------------------
 Symbolic Z-matrix:
 Charge =  0 Multiplicity = 1

 SCF Done:  E(RB3LYP) =  -482.175768348     A.U. after   13 cycles
 SCF Done:  E(RB3LYP) =  -482.178516248     A.U. after   11 cycles
 SCF Done:  E(RB3LYP) =  -482.178994834     A.U. after   11 cycles
 SCF Done:  E(RB3LYP) =  -482.179107423     A.U. after   10 cycles
 SCF Done:  E(RB3LYP) =  -482.179147939     A.U. after   10 cycles
 SCF Done:  E(RB3LYP) =  -482.179204706     A.U. after   10 cycles
 SCF Done:  E(RB3LYP) =  -482.179224203     A.U. after   11 cycles
 SCF Done:  E(RB3LYP) =  -482.179348885     A.U. after   11 cycles
 SCF Done:  E(RB3LYP) =  -482.179258431     A.U. after   11 cycles
 SCF Done:  E(RB3LYP) =  -482.179253206     A.U. after   12 cycles
 SCF Done:  E(RB3LYP) =  -482.179726856     A.U. after   10 cycles
 SCF Done:  E(RB3LYP) =  -482.179732803     A.U. after    9 cycles
 SCF Done:  E(RB3LYP) =  -482.179735580     A.U. after    9 cycles
 SCF Done:  E(RB3LYP) =  -482.179737963     A.U. after    9 cycles
 SCF Done:  E(RB3LYP) =  -482.179738595     A.U. after    7 cycles
 SCF Done:  E(RB3LYP) =  -482.179738653     A.U. after    6 cycles
 Optimization completed.
    -- Stationary point found.
 Normal termination of Gaussian 16 at Tue Dec  8 12:43:20 2020.

 --------------------------------------------------------------------
 #N Geom=AllCheck Guess=TCheck SCRF=Check GenChk RB3LYP/6-31G(d) Freq
 --------------------------------------------------------------------

 Structure from the checkpoint file:  "JID_580.chk"
 ------------------------------
 CID_148551146_JID_580_neutraal
 ------------------------------
 Charge =  0 Multiplicity = 1

 SCF Done:  E(RB3LYP) =  -482.179738653     A.U. after    1 cycles

  Exact polarizability:  98.494  -0.061  84.960   3.823   0.915  79.296
 Approx polarizability: 121.494   0.388 117.071   3.309  -0.714 119.714

                      1                      2                      3
                      A                      A                      A
 Frequencies --     35.9454                58.1336                98.8476
 Red. masses --      4.3858                 3.7382                 3.2267
 Frc consts  --      0.0033                 0.0074                 0.0186
 IR Inten    --      0.9239                 0.3306                 4.0407

                      4                      5                      6
                      A                      A                      A
 Frequencies --    132.0187               135.3558               178.4681
 Red. masses --      2.6404                 3.0901                 2.6989
 Frc consts  --      0.0271                 0.0334                 0.0506
 IR Inten    --      5.7668                 5.4834                 5.0085

                      7                      8                      9
                      A                      A                      A
 Frequencies --    191.7177               215.6323               239.0726
 Red. masses --      1.5461                 1.2993                 1.9857
 Frc consts  --      0.0335                 0.0356                 0.0669
 IR Inten    --      0.0696               157.5622                 4.1461

                     10                     11                     12
                      A                      A                      A
 Frequencies --    259.6739               289.7658               313.2798
 Red. masses --      1.7332                 1.8407                 1.3601
 Frc consts  --      0.0689                 0.0911                 0.0786
 IR Inten    --     17.6599                11.7979               115.9822

                     13                     14                     15
                      A                      A                      A
 Frequencies --    343.2138               380.7735               402.6549
 Red. masses --      2.5969                 1.8630                 1.9921
 Frc consts  --      0.1802                 0.1591                 0.1903
 IR Inten    --      7.3581                10.9509                 1.5859

                     16                     17                     18
                      A                      A                      A
 Frequencies --    473.9714               576.7792               626.9448
 Red. masses --      2.9493                 2.6180                 3.2866
 Frc consts  --      0.3904                 0.5131                 0.7611
 IR Inten    --      1.7093                 3.0258                 8.0041

                     19                     20                     21
                      A                      A                      A
 Frequencies --    725.2068               793.0876               831.7330
 Red. masses --      1.5128                 1.8751                 1.8791
 Frc consts  --      0.4688                 0.6949                 0.7659
 IR Inten    --     18.6215                69.1375                38.9701

                     22                     23                     24
                      A                      A                      A
 Frequencies --    873.2511               915.2467               925.4901
 Red. masses --      2.2055                 1.6686                 1.6802
 Frc consts  --      0.9909                 0.8235                 0.8479
 IR Inten    --     14.7975                13.0739                33.5496

                     25                     26                     27
                      A                      A                      A
 Frequencies --    952.3353              1009.1218              1021.2257
 Red. masses --      1.8671                 1.5432                 1.9520
 Frc consts  --      0.9977                 0.9259                 1.1994
 IR Inten    --      2.3467                12.9694                15.6922

                     28                     29                     30
                      A                      A                      A
 Frequencies --   1054.4557              1065.4608              1080.1468
 Red. masses --      4.5705                 2.5108                 2.0060
 Frc consts  --      2.9941                 1.6793                 1.3789
 IR Inten    --     49.4015                55.5175                21.0165

                     31                     32                     33
                      A                      A                      A
 Frequencies --   1109.5609              1127.8199              1152.8887
 Red. masses --      2.4493                 1.7733                 1.4764
 Frc consts  --      1.7766                 1.3290                 1.1562
 IR Inten    --     36.9580                 7.9501                32.3106

                     34                     35                     36
                      A                      A                      A
 Frequencies --   1159.3546              1188.9066              1218.4561
 Red. masses --      1.3099                 1.6190                 1.6151
 Frc consts  --      1.0373                 1.3483                 1.4128
 IR Inten    --      3.2267                25.3358                17.5780

                     37                     38                     39
                      A                      A                      A
 Frequencies --   1228.1910              1260.8748              1287.9920
 Red. masses --      1.5635                 1.2743                 1.4327
 Frc consts  --      1.3896                 1.1936                 1.4003
 IR Inten    --      7.1280                11.5341                 2.7430

                     40                     41                     42
                      A                      A                      A
 Frequencies --   1326.6045              1340.8236              1371.5407
 Red. masses --      1.4000                 1.2988                 1.2487
 Frc consts  --      1.4516                 1.3758                 1.3839
 IR Inten    --      2.7975                 1.1224                 9.8780

                     43                     44                     45
                      A                      A                      A
 Frequencies --   1392.7908              1401.0562              1403.4309
 Red. masses --      1.3209                 1.2647                 1.2309
 Frc consts  --      1.5098                 1.4627                 1.4284
 IR Inten    --      3.4813                 6.2641                 3.4864

                     46                     47                     48
                      A                      A                      A
 Frequencies --   1411.2454              1420.9640              1433.3173
 Red. masses --      1.2400                 1.3401                 1.3866
 Frc consts  --      1.4550                 1.5943                 1.6784
 IR Inten    --     36.5149                19.3974                14.6351

                     49                     50                     51
                      A                      A                      A
 Frequencies --   1443.9384              1481.3834              1509.3350
 Red. masses --      1.2949                 1.1582                 1.0828
 Frc consts  --      1.5907                 1.4976                 1.4534
 IR Inten    --     10.5873                 0.1680                 2.1300

                     52                     53                     54
                      A                      A                      A
 Frequencies --   1518.2404              1525.0542              1526.6169
 Red. masses --      1.0743                 1.0882                 1.0864
 Frc consts  --      1.4589                 1.4911                 1.4917
 IR Inten    --      7.6360                 7.2374                 0.7735

                     55                     56                     57
                      A                      A                      A
 Frequencies --   1530.6842              1534.7747              1540.2484
 Red. masses --      1.0854                 1.0866                 1.1117
 Frc consts  --      1.4983                 1.5080                 1.5538
 IR Inten    --      6.6405                 0.3517                 3.7420

                     58                     59                     60
                      A                      A                      A
 Frequencies --   1562.4296              2945.4253              3006.1175
 Red. masses --      1.1121                 1.0620                 1.0700
 Frc consts  --      1.5996                 5.4283                 5.6972
 IR Inten    --      9.2815                82.0045                52.3466

                     61                     62                     63
                      A                      A                      A
 Frequencies --   3022.4406              3031.8985              3042.2416
 Red. masses --      1.0687                 1.0641                 1.0645
 Frc consts  --      5.7519                 5.7632                 5.8048
 IR Inten    --     17.2164                35.0514                44.3382

                     64                     65                     66
                      A                      A                      A
 Frequencies --   3048.9921              3055.3725              3062.8449
 Red. masses --      1.0663                 1.0751                 1.0820
 Frc consts  --      5.8404                 5.9135                 5.9804
 IR Inten    --     14.4033                79.0673                37.2900

                     67                     68                     69
                      A                      A                      A
 Frequencies --   3063.6049              3080.3005              3088.3197
 Red. masses --      1.0870                 1.0930                 1.0996
 Frc consts  --      6.0110                 6.1104                 6.1794
 IR Inten    --     29.3068                29.1283                84.4238

                     70                     71                     72
                      A                      A                      A
 Frequencies --   3093.7602              3102.7051              3111.9394
 Red. masses --      1.0972                 1.1054                 1.1019
 Frc consts  --      6.1874                 6.2698                 6.2873
 IR Inten    --     11.3844                71.0281                31.8962

                     73                     74                     75
                      A                      A                      A
 Frequencies --   3490.5091              3754.7676              3779.1840
 Red. masses --      1.0750                 1.0659                 1.0669
 Frc consts  --      7.7170                 8.8537                 8.9779
 IR Inten    --     18.1869                 8.2688                17.9721

 - Thermochemistry -
 -------------------
 Temperature   298.150 Kelvin.  Pressure   1.00000 Atm.
 Atom     1 has atomic number  6 and mass  12.00000

 Molecular mass:   147.12593 amu.
 Principal axes and moments of inertia in atomic units:
                           1         2         3
     Eigenvalues --   970.974352395.472602963.18696
           X            0.99989  -0.00627   0.01371
           Y            0.00603   0.99983   0.01713
           Z           -0.01381  -0.01705   0.99976
 This molecule is an asymmetric top.
 Rotational symmetry number  1.
 Warning -- assumption of classical behavior for rotation
           may cause significant error
 Rotational temperatures (Kelvin)      0.08920     0.03616     0.02923
 Rotational constants (GHZ):           1.85869     0.75340     0.60905
 Zero-point vibrational energy     648304.0 (Joules/Mol)
                                  154.94836 (Kcal/Mol)
 Warning -- explicit consideration of  17 degrees of freedom as
           vibrations may cause significant error
 Vibrational temperatures:     51.72    83.64   142.22   189.95   194.75
          (Kelvin)            256.78   275.84   310.25   343.97   373.61
                              416.91   450.74   493.81   547.85   579.33
                              681.94   829.86   902.03  1043.41  1141.08
                             1196.68  1256.41  1316.84  1331.57  1370.20
                             1451.90  1469.32  1517.13  1532.96  1554.09
                             1596.41  1622.68  1658.75  1668.05  1710.57
                             1753.09  1767.09  1814.12  1853.13  1908.69
                             1929.15  1973.34  2003.92  2015.81  2019.22
                             2030.47  2044.45  2062.22  2077.51  2131.38
                             2171.60  2184.41  2194.21  2196.46  2202.31
                             2208.20  2216.07  2247.99  4237.81  4325.13
                             4348.62  4362.23  4377.11  4386.82  4396.00
                             4406.75  4407.84  4431.87  4443.40  4451.23
                             4464.10  4477.39  5022.06  5402.27  5437.40

 Zero-point correction=                           0.246926 (Hartree/Particle)
 Thermal correction to Energy=                    0.259495
 Thermal correction to Enthalpy=                  0.260439
 Thermal correction to Gibbs Free Energy=         0.208007
 Sum of electronic and zero-point Energies=           -481.932813
 Sum of electronic and thermal Energies=              -481.920244
 Sum of electronic and thermal Enthalpies=            -481.919299
 Sum of electronic and thermal Free Energies=         -481.971732

                     E (Thermal)             CV                S
                      KCal/Mol        Cal/Mol-Kelvin    Cal/Mol-Kelvin
 Total                  162.836             45.274            110.353
 Electronic               0.000              0.000              0.000
 Translational            0.889              2.981             40.869
 Rotational               0.889              2.981             30.312
 Vibrational            161.058             39.312             39.173
 Vibration     1          0.594              1.982              5.471
 Vibration     2          0.596              1.974              4.520
 Vibration     3          0.604              1.950              3.477
 Vibration     4          0.612              1.921              2.916
 Vibration     5          0.613              1.918              2.869
 Vibration     6          0.629              1.869              2.344
 Vibration     7          0.634              1.851              2.211
 Vibration     8          0.645              1.817              1.995
 Vibration     9          0.657              1.781              1.810
 Vibration    10          0.668              1.746              1.664
 Vibration    11          0.686              1.693              1.475
 Vibration    12          0.701              1.648              1.345
 Vibration    13          0.722              1.589              1.197
 Vibration    14          0.751              1.511              1.036
 Vibration    15          0.768              1.464              0.953
 Vibration    16          0.831              1.308              0.727
 Vibration    17          0.933              1.081              0.491

                           ! Non-Optimized Parameters !
 Normal termination of Gaussian 16 at Tue Dec  8 13:04:02 2020.

 ----------------------------------------------------------------------
 # B3LYP/6-311++G(d,p) empiricaldispersion=gd3bj scf=xqc pop=npa geom=c
 heck
 ----------------------------------------------------------------------

 --------------------------------------
 CID_148551146_JID_580_Energie_neutraal
 --------------------------------------
 Structure from the checkpoint file:  "JID_580.chk"
 Charge =  0 Multiplicity = 1

 SCF Done:  E(RB3LYP) =  -482.344328298     A.U. after   13 cycles
 Normal termination of Gaussian 16 at Tue Dec  8 13:09:01 2020.

 ----------------------------------------------------------------------
 # B3LYP/6-311++G(d,p) empiricaldispersion=gd3bj scf=xqc pop=npa geom=c
 heck
 ----------------------------------------------------------------------

 ------------------------------------
 CID_148551146_JID_580_Energie_kation
 ------------------------------------
 Structure from the checkpoint file:  "JID_580.chk"
 Charge =  1 Multiplicity = 2

 SCF Done:  E(UB3LYP) =  -482.039038724     A.U. after   22 cycles
 Normal termination of Gaussian 16 at Tue Dec  8 13:17:17 2020.
 Gaussian 16:  ES64L-G16RevA.03 25-Dec-2016

 ----------------------------------------------------------------------
 # B3LYP/6-311++G(d,p) empiricaldispersion=gd3bj scf=xqc pop=npa geom=c
 heck
 ----------------------------------------------------------------------

 -----------------------------------
 CID_148551146_JID_580_Energie_anion
 -----------------------------------
 Structure from the checkpoint file:  "JID_580.chk"
 Charge = -1 Multiplicity = 2

                         Standard orientation:
 ---------------------------------------------------------------------
 Center     Atomic      Atomic             Coordinates (Angstroms)
 Number     Number       Type             X           Y           Z
 ---------------------------------------------------------------------
      1          6           0        3.248540    0.305878    0.653649
      2          7           0        2.454885    0.241194   -0.563419
      3          6           0        1.822911   -1.048611   -0.813883
      4          6           0        0.835676   -1.570436    0.258869
      5          6           0       -0.162879   -0.507268    0.734037
      6          6           0       -1.071737    0.067053   -0.370031
      7          6           0       -2.348586   -0.759645   -0.569809
      8          8           0       -3.242462   -0.702948    0.539854
      9          6           0       -1.409964    1.540307   -0.116017
     10          8           0       -0.235453    2.361984   -0.098097
     11          1           0        4.059728   -0.430426    0.594632
     12          1           0        2.698561    0.110904    1.593758
     13          1           0        3.706905    1.297440    0.733739
     14          1           0        1.755840    0.982542   -0.573751
     15          1           0        1.310795   -0.973697   -1.780247
     16          1           0        2.617312   -1.795132   -0.948887
     17          1           0        0.306097   -2.442019   -0.150964
     18          1           0        1.394680   -1.936554    1.129248
     19          1           0       -0.776758   -0.913562    1.550810
     20          1           0        0.410681    0.309105    1.186704
     21          1           0       -0.529467    0.039861   -1.324048
     22          1           0       -2.917477   -0.362084   -1.417111
     23          1           0       -2.087004   -1.801549   -0.812131
     24          1           0       -2.843046   -1.205659    1.265489
     25          1           0       -2.036826    1.919732   -0.930512
     26          1           0       -1.981813    1.646342    0.814099
     27          1           0        0.067142    2.430431    0.818149
 ---------------------------------------------------------------------

 SCF Done:  E(UB3LYP) =  -482.332815821     A.U. after   25 cycles

 The electronic state is 2-A.
 Alpha  occ. eigenvalues --  -19.01963 -19.01554 -14.18375 -10.11339 -10.10874
 Alpha  occ. eigenvalues --  -10.08358 -10.07454 -10.06736 -10.05521 -10.05492
 Alpha  occ. eigenvalues --   -0.91929  -0.91557  -0.79270  -0.70072  -0.64327
 Alpha  occ. eigenvalues --   -0.58593  -0.56907  -0.54202  -0.48919  -0.45260
 Alpha  occ. eigenvalues --   -0.41610  -0.40394  -0.38440  -0.36565  -0.35163
 Alpha  occ. eigenvalues --   -0.33811  -0.33600  -0.31539  -0.30379  -0.28748
 Alpha  occ. eigenvalues --   -0.28294  -0.26775  -0.25940  -0.23966  -0.23528
 Alpha  occ. eigenvalues --   -0.22882  -0.22435  -0.21117  -0.18347  -0.16349
 Alpha  occ. eigenvalues --   -0.11313   0.04711
 Alpha virt. eigenvalues --    0.07167   0.07793   0.08075   0.09843   0.09994
 Alpha virt. eigenvalues --    0.10575   0.11048   0.11501   0.12520   0.13041
 Alpha virt. eigenvalues --    0.13678   0.14196   0.14639   0.15424   0.15545

  Beta  occ. eigenvalues --  -19.01926 -19.01507 -14.18370 -10.11322 -10.10858
  Beta  occ. eigenvalues --  -10.08352 -10.07414 -10.06736 -10.05495 -10.05442
  Beta  occ. eigenvalues --   -0.91845  -0.91460  -0.79255  -0.70025  -0.64277
  Beta  occ. eigenvalues --   -0.58526  -0.56830  -0.54125  -0.48868  -0.45175
  Beta  occ. eigenvalues --   -0.41520  -0.40321  -0.38404  -0.36502  -0.35125
  Beta  occ. eigenvalues --   -0.33750  -0.33553  -0.31498  -0.30343  -0.28702
  Beta  occ. eigenvalues --   -0.28261  -0.26737  -0.25904  -0.23928  -0.23479
  Beta  occ. eigenvalues --   -0.22819  -0.22391  -0.21078  -0.18306  -0.16304
  Beta  occ. eigenvalues --   -0.11296
  Beta virt. eigenvalues --    0.07320   0.08057   0.08358   0.08817   0.10115
  Beta virt. eigenvalues --    0.10311   0.11213   0.11605   0.11858   0.12724
  Beta virt. eigenvalues --    0.13205   0.14150   0.14601   0.14894   0.15719

 Mulliken charges and spin densities:
               1          2
     1  C    0.881439  -1.334588
     2  N   -0.262219   0.052752
     3  C   -0.908107   0.449628
     4  C    1.337870  -1.710088
     5  C   -0.390133   0.478129
     6  C   -0.200636   0.281163
     7  C    0.762911  -1.328618
     8  O   -0.238891   0.014279
     9  C    0.350060  -0.790426
    10  O   -0.242230  -0.028034
    11  H   -0.101824   0.243666
    12  H   -0.322503   0.460615
    13  H   -0.256800   0.395060
    14  H    0.275339   0.025291
    15  H    0.079491   0.068947
    16  H   -0.012847   0.160110
    17  H   -0.247372   0.368354
    18  H   -0.193420   0.367372
    19  H   -0.876335   1.024910
    20  H   -0.448903   0.544706
    21  H    0.181227  -0.056752
    22  H    0.136983   0.016836
    23  H   -0.121829   0.271992
    24  H   -0.090545   0.338449
    25  H    0.108860   0.048253
    26  H   -0.144740   0.318394
    27  H   -0.054847   0.319602
 Sum of Mulliken charges =  -1.00000   1.00000

 Dipole moment (field-independent basis, Debye):
    X=             -0.5360    Y=              0.2150    Z=             -5.8836  Tot=              5.9119
 Quadrupole moment (field-independent basis, Debye-Ang):
   XX=           -119.2192   YY=           -104.6075   ZZ=            -99.3502
   XY=             -6.5406   XZ=              4.5056   YZ=              3.2927

 Summary of Natural Population Analysis:

                                       Natural Population
                Natural  -----------------------------------------------
    Atom  No    Charge         Core      Valence    Rydberg      Total
 -----------------------------------------------------------------------
      C    1   -0.18092      0.99966     2.17253    0.00873     3.18092
      N    2   -0.34902      0.99976     2.83769    0.01157     3.84902
      C    3   -0.08666      0.99963     2.07500    0.01203     3.08666
      C    4   -0.20011      0.99962     2.19095    0.00953     3.20011
      C    5   -0.19914      0.99960     2.18652    0.01302     3.19914
      C    6   -0.13969      0.99958     2.12942    0.01069     3.13969
      C    7   -0.00516      0.99956     1.99240    0.01320     3.00516
      O    8   -0.37333      0.99990     3.36677    0.00666     4.37333
      C    9   -0.00658      0.99955     1.99397    0.01306     3.00658
      O   10   -0.37677      0.99990     3.37010    0.00677     4.37677
      H   11    0.08816      0.00000     0.41073    0.00111     0.41184
      H   12    0.08236      0.00000     0.41571    0.00194     0.41764
      H   13    0.09387      0.00000     0.40505    0.00108     0.40613
      H   14    0.18205      0.00000     0.31423    0.00372     0.31795
      H   15    0.08821      0.00000     0.41053    0.00126     0.41179
      H   16    0.08994      0.00000     0.40910    0.00096     0.41006
      H   17    0.09564      0.00000     0.40300    0.00136     0.40436
      H   18    0.10006      0.00000     0.39852    0.00142     0.39994
      H   19    0.10151      0.00000     0.39361    0.00488     0.39849
      H   20    0.09919      0.00000     0.39730    0.00351     0.40081
      H   21    0.09663      0.00000     0.40125    0.00213     0.40337
      H   22    0.08216      0.00000     0.41667    0.00117     0.41784
      H   23    0.07979      0.00000     0.41909    0.00112     0.42021
      H   24    0.23397      0.00000     0.25994    0.00609     0.26603
      H   25    0.08080      0.00000     0.41806    0.00114     0.41920
      H   26    0.08817      0.00000     0.41055    0.00128     0.41183
      H   27    0.23487      0.00000     0.26052    0.00461     0.26513
 =======================================================================
   * Total *    0.00000      9.99676    30.85922    0.14402    41.00000

 Normal termination of Gaussian 16 at Tue Dec  8 13:24:23 2020.
