 Gaussian 16, Revision A.03,

 -----------------------------------------------------------
 # opt freq B3LYP/6-31G(d) empiricaldispersion=gd3bj scf=xqc
 -----------------------------------------------------------

 ------------------------------
 CID_23510517_JID_3329_neutraal
 ------------------------------
 Symbolic Z-matrix:
 Charge =  0 Multiplicity = 1

 SCF Done:  E(RB3LYP) =  -955.355434957     A.U. after   15 cycles
 SCF Done:  E(RB3LYP) =  -955.356144767     A.U. after   14 cycles
 SCF Done:  E(RB3LYP) =  -955.362455934     A.U. after   14 cycles
 SCF Done:  E(RB3LYP) =  -955.362558514     A.U. after   14 cycles
 SCF Done:  E(RB3LYP) =  -955.365170999     A.U. after   15 cycles
 SCF Done:  E(RB3LYP) =  -955.366429555     A.U. after   13 cycles
 SCF Done:  E(RB3LYP) =  -955.367284184     A.U. after   13 cycles
 SCF Done:  E(RB3LYP) =  -955.367919746     A.U. after   13 cycles
 SCF Done:  E(RB3LYP) =  -955.368250690     A.U. after   12 cycles
 SCF Done:  E(RB3LYP) =  -955.368324715     A.U. after   12 cycles
 SCF Done:  E(RB3LYP) =  -955.368446298     A.U. after   11 cycles
 SCF Done:  E(RB3LYP) =  -955.368436957     A.U. after   11 cycles
 SCF Done:  E(RB3LYP) =  -955.368416560     A.U. after   12 cycles
 SCF Done:  E(RB3LYP) =  -955.368445457     A.U. after   12 cycles
 SCF Done:  E(RB3LYP) =  -955.368445293     A.U. after    7 cycles
 Optimization completed.
    -- Stationary point found.
 Normal termination of Gaussian 16 at Mon Dec 14 13:26:09 2020.

 --------------------------------------------------------------------
 #N Geom=AllCheck Guess=TCheck SCRF=Check GenChk RB3LYP/6-31G(d) Freq
 --------------------------------------------------------------------

 Structure from the checkpoint file:  "JID_3329.chk"
 ------------------------------
 CID_23510517_JID_3329_neutraal
 ------------------------------
 Charge =  0 Multiplicity = 1

 SCF Done:  E(RB3LYP) =  -955.368445293     A.U. after    1 cycles

  Exact polarizability: 145.974  26.491 107.448   3.875  -7.530 116.415
 Approx polarizability: 206.228  45.414 156.362   6.332 -22.006 211.228

 ******    1 imaginary frequencies (negative Signs) ******

                      1                      2                      3
                      A                      A                      A
 Frequencies --    -19.4620                 7.1288                20.1362
 Red. masses --      1.5870                 2.9573                 3.9045
 Frc consts  --      0.0004                 0.0001                 0.0009
 IR Inten    --      0.5920                 0.3136                 0.1142

                      4                      5                      6
                      A                      A                      A
 Frequencies --     35.4582                45.2724                55.8512
 Red. masses --      4.1974                 1.8445                 2.0267
 Frc consts  --      0.0031                 0.0022                 0.0037
 IR Inten    --      1.4719                 0.3646                 0.6600

                      7                      8                      9
                      A                      A                      A
 Frequencies --     76.4239                95.5925               100.9736
 Red. masses --      3.5809                 3.3978                 4.2439
 Frc consts  --      0.0123                 0.0183                 0.0255
 IR Inten    --      0.1205                 0.6454                 0.2250

                     10                     11                     12
                      A                      A                      A
 Frequencies --    165.3623               212.0463               269.4743
 Red. masses --      5.9661                 3.1517                 1.0437
 Frc consts  --      0.0961                 0.0835                 0.0447
 IR Inten    --      3.3518                 8.1953                 4.7392

                     13                     14                     15
                      A                      A                      A
 Frequencies --    284.2558               306.0057               319.6044
 Red. masses --      3.1579                 3.7094                 1.1370
 Frc consts  --      0.1503                 0.2047                 0.0684
 IR Inten    --     12.9795                10.0651                40.5567

                     16                     17                     18
                      A                      A                      A
 Frequencies --    342.5228               389.7477               404.5486
 Red. masses --      2.9796                 3.8454                 2.1735
 Frc consts  --      0.2060                 0.3442                 0.2096
 IR Inten    --      8.3478                 2.8899                 4.1596

                     19                     20                     21
                      A                      A                      A
 Frequencies --    413.5483               455.9755               466.7091
 Red. masses --      3.0148                 2.9580                 3.3285
 Frc consts  --      0.3038                 0.3623                 0.4272
 IR Inten    --      4.5226               106.2154                30.8964

                     22                     23                     24
                      A                      A                      A
 Frequencies --    542.3277               627.8790               649.7182
 Red. masses --      3.7979                 5.4453                 6.8999
 Frc consts  --      0.6581                 1.2648                 1.7161
 IR Inten    --     42.8998                30.5600                 2.3901

                     25                     26                     27
                      A                      A                      A
 Frequencies --    708.0610               714.4251               785.4846
 Red. masses --      9.7925                 4.8204                 1.0945
 Frc consts  --      2.8926                 1.4496                 0.3979
 IR Inten    --    127.4875                46.4873                 0.7728

                     28                     29                     30
                      A                      A                      A
 Frequencies --    816.5458               825.4381               863.0012
 Red. masses --      3.7849                 1.4548                 1.2503
 Frc consts  --      1.4869                 0.5840                 0.5486
 IR Inten    --      4.8536                30.6384                 3.4060

                     31                     32                     33
                      A                      A                      A
 Frequencies --    881.6079               927.7457               965.2662
 Red. masses --      2.6806                 1.1861                 1.2744
 Frc consts  --      1.2275                 0.6015                 0.6996
 IR Inten    --     38.0485               104.6316                 0.4456

                     34                     35                     36
                      A                      A                      A
 Frequencies --    982.7066              1020.0224              1023.5973
 Red. masses --      1.3033                 1.4614                 1.1242
 Frc consts  --      0.7416                 0.8959                 0.6940
 IR Inten    --      0.1762                 2.2268                 0.9363

                     37                     38                     39
                      A                      A                      A
 Frequencies --   1039.4380              1072.0991              1074.8377
 Red. masses --      3.2215                 3.3139                 1.5402
 Frc consts  --      2.0507                 2.2442                 1.0484
 IR Inten    --      3.0203                25.5565                 8.3826

                     40                     41                     42
                      A                      A                      A
 Frequencies --   1102.7311              1127.2612              1148.0855
 Red. masses --      3.2387                 2.6335                 1.3457
 Frc consts  --      2.3204                 1.9717                 1.0451
 IR Inten    --     16.4980               125.8987                15.4628

                     43                     44                     45
                      A                      A                      A
 Frequencies --   1172.8552              1190.0698              1215.6164
 Red. masses --      1.9828                 1.8017                 1.1793
 Frc consts  --      1.6070                 1.5034                 1.0267
 IR Inten    --     17.6712                86.8892                 3.6965

                     46                     47                     48
                      A                      A                      A
 Frequencies --   1242.3483              1289.8103              1338.4712
 Red. masses --      2.9977                 1.3707                 1.3207
 Frc consts  --      2.7260                 1.3435                 1.3941
 IR Inten    --      1.3079                 0.0432                 0.5871

                     49                     50                     51
                      A                      A                      A
 Frequencies --   1358.9970              1399.1211              1412.5733
 Red. masses --      7.5889                 1.2858                 1.1652
 Frc consts  --      8.2579                 1.4829                 1.3698
 IR Inten    --      0.6011                11.3444                 0.2510

                     52                     53                     54
                      A                      A                      A
 Frequencies --   1436.4521              1442.2839              1445.7087
 Red. masses --      1.2620                 1.2989                 2.3730
 Frc consts  --      1.5342                 1.5919                 2.9222
 IR Inten    --      2.3618                 1.4351                 6.6509

                     55                     56                     57
                      A                      A                      A
 Frequencies --   1513.7776              1514.3530              1521.4779
 Red. masses --      1.0492                 1.0493                 1.1016
 Frc consts  --      1.4166                 1.4178                 1.5025
 IR Inten    --      2.9123                 6.1893                12.5273

                     58                     59                     60
                      A                      A                      A
 Frequencies --   1526.6414              1534.5730              1542.4877
 Red. masses --      1.0490                 1.0787                 2.2766
 Frc consts  --      1.4404                 1.4967                 3.1914
 IR Inten    --      4.7917                 1.9856                 7.2802

                     61                     62                     63
                      A                      A                      A
 Frequencies --   1631.5192              1657.9458              1704.8360
 Red. masses --      5.9832                 5.5398                 1.0845
 Frc consts  --      9.3836                 8.9720                 1.8571
 IR Inten    --      0.1807                12.4660                32.1795

                     64                     65                     66
                      A                      A                      A
 Frequencies --   3037.2629              3046.6509              3047.9002
 Red. masses --      1.0373                 1.0605                 1.0392
 Frc consts  --      5.6381                 5.7997                 5.6880
 IR Inten    --     20.0857                42.6103                20.9865

                     67                     68                     69
                      A                      A                      A
 Frequencies --   3078.9581              3101.1142              3102.6544
 Red. masses --      1.1036                 1.1021                 1.0988
 Frc consts  --      6.1640                 6.2444                 6.2320
 IR Inten    --     17.3912                53.1294                12.9974

                     70                     71                     72
                      A                      A                      A
 Frequencies --   3125.5531              3136.4285              3185.6972
 Red. masses --      1.1009                 1.1015                 1.0881
 Frc consts  --      6.3364                 6.3842                 6.5065
 IR Inten    --     41.3000                11.7595                 9.1186

                     73                     74                     75
                      A                      A                      A
 Frequencies --   3186.4325              3206.9937              3218.7864
 Red. masses --      1.0894                 1.0937                 1.0919
 Frc consts  --      6.5168                 6.6273                 6.6652
 IR Inten    --     10.6028                 5.5301                 3.7276

                     76                     77                     78
                      A                      A                      A
 Frequencies --   3452.4018              3538.4756              3643.0660
 Red. masses --      1.0496                 1.0907                 1.0661
 Frc consts  --      7.3709                 8.0459                 8.3364
 IR Inten    --      2.8260                 5.5726                31.5877

 - Thermochemistry -
 -------------------
 Temperature   298.150 Kelvin.  Pressure   1.00000 Atm.
 Atom     1 has atomic number  6 and mass  12.00000

 Molecular mass:   201.08235 amu.
 Principal axes and moments of inertia in atomic units:
                           1         2         3
     Eigenvalues --  1990.475594480.152355343.37033
           X            0.99990  -0.01372  -0.00266
           Y            0.01377   0.99968   0.02139
           Z            0.00236  -0.02142   0.99977
 This molecule is an asymmetric top.
 Rotational symmetry number  1.
 Warning -- assumption of classical behavior for rotation
           may cause significant error
 Rotational temperatures (Kelvin)      0.04351     0.01933     0.01621
 Rotational constants (GHZ):           0.90669     0.40283     0.33775
    1 imaginary frequencies ignored.
 Zero-point vibrational energy     607494.9 (Joules/Mol)
                                  145.19476 (Kcal/Mol)
 Warning -- explicit consideration of  21 degrees of freedom as
           vibrations may cause significant error
 Vibrational temperatures:     10.26    28.97    51.02    65.14    80.36
          (Kelvin)            109.96   137.54   145.28   237.92   305.09
                              387.71   408.98   440.27   459.84   492.81
                              560.76   582.06   595.00   656.05   671.49
                              780.29   903.38   934.80  1018.74  1027.90
                             1130.14  1174.83  1187.62  1241.67  1268.44
                             1334.82  1388.80  1413.90  1467.58  1472.73
                             1495.52  1542.51  1546.45  1586.58  1621.88
                             1651.84  1687.48  1712.24  1749.00  1787.46
                             1855.75  1925.76  1955.29  2013.02  2032.38
                             2066.73  2075.12  2080.05  2177.99  2178.82
                             2189.07  2196.50  2207.91  2219.30  2347.39
                             2385.41  2452.88  4369.94  4383.45  4385.25
                             4429.93  4461.81  4464.03  4496.97  4512.62
                             4583.51  4584.57  4614.15  4631.12  4967.24
                             5091.08  5241.56

 Zero-point correction=                           0.231383 (Hartree/Particle)
 Thermal correction to Energy=                    0.247054
 Thermal correction to Enthalpy=                  0.247998
 Thermal correction to Gibbs Free Energy=         0.183649
 Sum of electronic and zero-point Energies=           -955.137063
 Sum of electronic and thermal Energies=              -955.121392
 Sum of electronic and thermal Enthalpies=            -955.120447
 Sum of electronic and thermal Free Energies=         -955.184796

                     E (Thermal)             CV                S
                      KCal/Mol        Cal/Mol-Kelvin    Cal/Mol-Kelvin
 Total                  155.028             54.429            135.434
 Electronic               0.000              0.000              0.000
 Translational            0.889              2.981             41.800
 Rotational               0.889              2.981             32.233
 Vibrational            153.251             48.468             61.401
 Vibration     1          0.593              1.987              8.683
 Vibration     2          0.593              1.986              6.621
 Vibration     3          0.594              1.982              5.498
 Vibration     4          0.595              1.979              5.014
 Vibration     5          0.596              1.975              4.599
 Vibration     6          0.599              1.965              3.981
 Vibration     7          0.603              1.952              3.542
 Vibration     8          0.604              1.948              3.435
 Vibration     9          0.624              1.885              2.488
 Vibration    10          0.643              1.823              2.026
 Vibration    11          0.674              1.729              1.600
 Vibration    12          0.683              1.703              1.508
 Vibration    13          0.696              1.662              1.384
 Vibration    14          0.706              1.636              1.312
 Vibration    15          0.722              1.590              1.200
 Vibration    16          0.758              1.492              1.001
 Vibration    17          0.770              1.460              0.946
 Vibration    18          0.777              1.441              0.914
 Vibration    19          0.814              1.348              0.778
 Vibration    20          0.824              1.324              0.747
 Vibration    21          0.897              1.156              0.560

                           ! Non-Optimized Parameters !
 Normal termination of Gaussian 16 at Mon Dec 14 13:32:55 2020.

 ----------------------------------------------------------------------
 # B3LYP/6-311++G(d,p) empiricaldispersion=gd3bj scf=xqc pop=npa geom=c
 heck
 ----------------------------------------------------------------------

 --------------------------------------
 CID_23510517_JID_3329_Energie_neutraal
 --------------------------------------
 Structure from the checkpoint file:  "JID_3329.chk"
 Charge =  0 Multiplicity = 1

 SCF Done:  E(RB3LYP) =  -955.569847619     A.U. after   16 cycles
 Normal termination of Gaussian 16 at Mon Dec 14 13:36:02 2020.

 ----------------------------------------------------------------------
 # B3LYP/6-311++G(d,p) empiricaldispersion=gd3bj scf=xqc pop=npa geom=c
 heck
 ----------------------------------------------------------------------

 ------------------------------------
 CID_23510517_JID_3329_Energie_kation
 ------------------------------------
 Structure from the checkpoint file:  "JID_3329.chk"
 Charge =  1 Multiplicity = 2

 SCF Done:  E(UB3LYP) =  -955.253230167     A.U. after   31 cycles
 Normal termination of Gaussian 16 at Mon Dec 14 13:43:40 2020.
 Gaussian 16:  ES64L-G16RevA.03 25-Dec-2016

 ----------------------------------------------------------------------
 # B3LYP/6-311++G(d,p) empiricaldispersion=gd3bj scf=xqc pop=npa geom=c
 heck
 ----------------------------------------------------------------------

 -----------------------------------
 CID_23510517_JID_3329_Energie_anion
 -----------------------------------
 Structure from the checkpoint file:  "JID_3329.chk"
 Charge = -1 Multiplicity = 2

                         Standard orientation:
 ---------------------------------------------------------------------
 Center     Atomic      Atomic             Coordinates (Angstroms)
 Number     Number       Type             X           Y           Z
 ---------------------------------------------------------------------
      1          6           0        1.930039   -2.020925   -1.173054
      2          6           0        2.910074   -2.314051   -0.031312
      3          7           0        3.421190   -1.140305    0.685780
      4          6           0        2.562040    2.504942    0.134746
      5          6           0        1.265895    1.735439    0.090217
      6          6           0        0.732026    1.151534    1.245672
      7          6           0       -0.445233    0.403314    1.196628
      8          6           0       -1.104403    0.257469   -0.019848
      9          6           0       -0.597317    0.834463   -1.187349
     10          6           0        0.581130    1.569973   -1.123817
     11         16           0       -2.599920   -0.769796   -0.091013
     12          8           0       -2.961340   -1.022284    1.334151
     13          8           0       -3.599896    0.408057   -0.764808
     14          1           0        2.392721   -1.375404   -1.930673
     15          1           0        1.038711   -1.505332   -0.799199
     16          1           0        1.605069   -2.943434   -1.670605
     17          1           0        2.428061   -2.966642    0.707380
     18          1           0        3.773861   -2.871342   -0.414765
     19          1           0        2.630032   -0.597688    1.030715
     20          1           0        3.901388   -0.528841    0.025106
     21          1           0        2.902188    2.659623    1.162540
     22          1           0        3.353842    1.965771   -0.400395
     23          1           0        2.461184    3.486010   -0.342915
     24          1           0        1.245526    1.282077    2.195044
     25          1           0       -0.865204   -0.058086    2.084899
     26          1           0       -1.126190    0.717976   -2.128799
     27          1           0        0.980956    2.022085   -2.027945
     28          1           0       -3.587385    1.192956   -0.180669
 ---------------------------------------------------------------------

 SCF Done:  E(UB3LYP) =  -955.574332073     A.U. after   33 cycles
 SCF Done:  E(UB3LYP) =  -955.574332073     a.u. after    1 cycles

 The electronic state is 2-A.
 Alpha  occ. eigenvalues --  -88.84020 -19.01520 -18.96453 -14.18103 -10.08688
 Alpha  occ. eigenvalues --  -10.05559 -10.04972 -10.04898 -10.04754 -10.04546
 Alpha  occ. eigenvalues --  -10.04538 -10.04269 -10.04162  -7.91281  -5.87732
 Alpha  occ. eigenvalues --   -5.87402  -5.86810  -0.93715  -0.86746  -0.77253
 Alpha  occ. eigenvalues --   -0.73409  -0.65801  -0.62205  -0.61899  -0.58722
 Alpha  occ. eigenvalues --   -0.53190  -0.50325  -0.48488  -0.45591  -0.40562
 Alpha  occ. eigenvalues --   -0.38925  -0.36029  -0.34250  -0.33144  -0.32768
 Alpha  occ. eigenvalues --   -0.31629  -0.31025  -0.30404  -0.30181  -0.29970
 Alpha  occ. eigenvalues --   -0.29819  -0.27492  -0.25707  -0.24695  -0.24101
 Alpha  occ. eigenvalues --   -0.23220  -0.22624  -0.21759  -0.20230  -0.17268
 Alpha  occ. eigenvalues --   -0.13860  -0.13477  -0.12899  -0.11667   0.04643
 Alpha virt. eigenvalues --    0.07139   0.08345   0.09127   0.09388   0.10301
 Alpha virt. eigenvalues --    0.10372   0.10897   0.11235   0.11725   0.12151
 Alpha virt. eigenvalues --    0.13506   0.14063   0.14106   0.14307   0.14774

  Beta  occ. eigenvalues --  -88.83965 -19.01297 -18.96352 -14.18093 -10.08684
  Beta  occ. eigenvalues --  -10.05586 -10.04812 -10.04757 -10.04745 -10.04594
  Beta  occ. eigenvalues --  -10.04579 -10.04125 -10.03757  -7.91226  -5.87617
  Beta  occ. eigenvalues --   -5.87318  -5.86780  -0.93294  -0.86391  -0.77236
  Beta  occ. eigenvalues --   -0.73039  -0.65320  -0.62009  -0.61803  -0.58448
  Beta  occ. eigenvalues --   -0.52897  -0.50300  -0.48380  -0.45093  -0.40299
  Beta  occ. eigenvalues --   -0.38906  -0.35773  -0.34074  -0.33113  -0.32513
  Beta  occ. eigenvalues --   -0.31133  -0.30669  -0.30261  -0.30102  -0.29886
  Beta  occ. eigenvalues --   -0.29729  -0.27416  -0.25605  -0.24419  -0.23863
  Beta  occ. eigenvalues --   -0.23046  -0.22260  -0.21642  -0.19882  -0.16656
  Beta  occ. eigenvalues --   -0.13690  -0.12836  -0.11928  -0.10934
  Beta virt. eigenvalues --    0.07261   0.08267   0.09010   0.09424   0.09665
  Beta virt. eigenvalues --    0.10526   0.10694   0.10911   0.11219   0.11926
  Beta virt. eigenvalues --    0.12201   0.13519   0.14040   0.14095   0.14321

 Mulliken charges and spin densities:
               1          2
     1  C   -0.262076  -0.122642
     2  C   -0.317067  -0.101068
     3  N   -0.334342   0.017813
     4  C   -0.182646  -0.476152
     5  C    0.354941   0.226638
     6  C   -0.718572   0.226362
     7  C    0.614223   0.007497
     8  C   -0.384374  -0.080347
     9  C   -1.032498   0.551145
    10  C   -0.368557  -0.054484
    11  S    0.722856  -0.156559
    12  O   -0.421674   0.018343
    13  O   -0.205532  -0.035764
    14  H   -0.076054   0.190970
    15  H    0.306805  -0.111097
    16  H    0.114562  -0.002982
    17  H    0.104808   0.028256
    18  H    0.034037   0.088153
    19  H    0.286895  -0.013255
    20  H    0.140723   0.048297
    21  H    0.101045   0.020793
    22  H   -0.106591   0.276566
    23  H    0.139491  -0.011865
    24  H    0.119978   0.021800
    25  H    0.190006   0.029378
    26  H    0.022276   0.127740
    27  H    0.078807   0.077218
    28  H    0.078533   0.209246
 Sum of Mulliken charges =  -1.00000   1.00000

 Dipole moment (field-independent basis, Debye):
    X=              2.6632    Y=              1.0442    Z=             -1.0166  Tot=              3.0359
 Quadrupole moment (field-independent basis, Debye-Ang):
   XX=           -150.7161   YY=           -104.2963   ZZ=           -105.7696
   XY=             -1.7300   XZ=              0.2766   YZ=              4.5010

 Summary of Natural Population Analysis:

                                       Natural Population
                Natural  -----------------------------------------------
    Atom  No    Charge         Core      Valence    Rydberg      Total
 -----------------------------------------------------------------------
      C    1   -0.29878      0.99966     2.29350    0.00562     3.29878
      C    2   -0.09148      0.99967     2.07968    0.01213     3.09148
      N    3   -0.42477      0.99978     2.91513    0.00986     3.92477
      C    4   -0.29616      0.99964     2.29101    0.00550     3.29616
      C    5    0.04916      0.99952     1.94166    0.00966     2.95084
      C    6   -0.12866      0.99952     2.12014    0.00900     3.12866
      C    7   -0.07290      0.99949     2.06305    0.01035     3.07290
      C    8   -0.11433      0.99936     2.09822    0.01675     3.11433
      C    9   -0.07611      0.99950     2.06646    0.01014     3.07611
      C   10   -0.11886      0.99952     2.10971    0.00964     3.11886
      S   11    0.73159      4.99939     2.20368    0.06534     7.26841
      O   12   -0.47049      0.99992     3.46348    0.00708     4.47049
      O   13   -0.43209      0.99992     3.42393    0.00824     4.43209
      H   14    0.09415      0.00000     0.40431    0.00154     0.40585
      H   15    0.10898      0.00000     0.38916    0.00186     0.39102
      H   16    0.09230      0.00000     0.40689    0.00080     0.40770
      H   17    0.08588      0.00000     0.41309    0.00103     0.41412
      H   18    0.08154      0.00000     0.41740    0.00106     0.41846
      H   19    0.18056      0.00000     0.31697    0.00247     0.31944
      H   20    0.16920      0.00000     0.32866    0.00214     0.33080
      H   21    0.09698      0.00000     0.40231    0.00072     0.40302
      H   22    0.10417      0.00000     0.39404    0.00178     0.39583
      H   23    0.09972      0.00000     0.39950    0.00078     0.40028
      H   24    0.09424      0.00000     0.40485    0.00091     0.40576
      H   25    0.11073      0.00000     0.38812    0.00115     0.38927
      H   26    0.10013      0.00000     0.39825    0.00162     0.39987
      H   27    0.09360      0.00000     0.40550    0.00090     0.40640
      H   28    0.23171      0.00000     0.26312    0.00518     0.26829
 =======================================================================
   * Total *   -0.00000     16.99492    36.80183    0.20325    54.00000

 Normal termination of Gaussian 16 at Mon Dec 14 13:51:33 2020.
