 Gaussian 16, Revision A.03,

 -----------------------------------------------------------
 # opt freq B3LYP/6-31G(d) empiricaldispersion=gd3bj scf=xqc
 -----------------------------------------------------------

 ------------------------------
 CID_96595799_JID_6271_neutraal
 ------------------------------
 Symbolic Z-matrix:
 Charge =  0 Multiplicity = 1

 SCF Done:  E(RB3LYP) =  -1099.41948737     A.U. after   15 cycles
 SCF Done:  E(RB3LYP) =  -1099.42699445     A.U. after   12 cycles
 SCF Done:  E(RB3LYP) =  -1099.42749806     A.U. after   11 cycles
 SCF Done:  E(RB3LYP) =  -1099.42753352     A.U. after    9 cycles
 SCF Done:  E(RB3LYP) =  -1099.42753733     A.U. after    9 cycles
 SCF Done:  E(RB3LYP) =  -1099.42753876     A.U. after    8 cycles
 SCF Done:  E(RB3LYP) =  -1099.42754033     A.U. after    8 cycles
 SCF Done:  E(RB3LYP) =  -1099.42755520     A.U. after   10 cycles
 SCF Done:  E(RB3LYP) =  -1099.39326581     A.U. after   14 cycles
 SCF Done:  E(RB3LYP) =  -1099.40043770     A.U. after   14 cycles
 SCF Done:  E(RB3LYP) =  -1099.42879258     A.U. after    8 cycles
 SCF Done:  E(RB3LYP) =  -1099.42879289     A.U. after    8 cycles
 SCF Done:  E(RB3LYP) =  -1099.42879308     A.U. after    7 cycles
 SCF Done:  E(RB3LYP) =  -1099.42879324     A.U. after    7 cycles
 SCF Done:  E(RB3LYP) =  -1099.42879339     A.U. after    7 cycles
 SCF Done:  E(RB3LYP) =  -1099.42879344     A.U. after    7 cycles
 Optimization completed.
    -- Stationary point found.
 Normal termination of Gaussian 16 at Thu Dec 10 22:05:30 2020.

 --------------------------------------------------------------------
 #N Geom=AllCheck Guess=TCheck SCRF=Check GenChk RB3LYP/6-31G(d) Freq
 --------------------------------------------------------------------

 Structure from the checkpoint file:  "JID_6271.chk"
 ------------------------------
 CID_96595799_JID_6271_neutraal
 ------------------------------
 Charge =  0 Multiplicity = 1

 SCF Done:  E(RB3LYP) =  -1099.42879344     A.U. after    1 cycles

  Exact polarizability: 251.406   0.752 157.409   1.342  -0.675  65.280
 Approx polarizability: 416.010  12.153 283.490   2.551  -7.127 106.011

                      1                      2                      3
                      A                      A                      A
 Frequencies --     58.0630                66.4999                96.5089
 Red. masses --      7.6175                 5.8366                 6.8398
 Frc consts  --      0.0151                 0.0152                 0.0375
 IR Inten    --      0.7956                 2.8849                 0.3681

                      4                      5                      6
                      A                      A                      A
 Frequencies --    110.2782               121.8761               146.2844
 Red. masses --      5.5003                 1.3587                 2.2496
 Frc consts  --      0.0394                 0.0119                 0.0284
 IR Inten    --      2.0463                 1.1411                 2.1933

                      7                      8                      9
                      A                      A                      A
 Frequencies --    174.9156               198.9219               243.3013
 Red. masses --      3.7346                 4.3676                 5.6801
 Frc consts  --      0.0673                 0.1018                 0.1981
 IR Inten    --      3.7292                 0.6985                 0.5756

                     10                     11                     12
                      A                      A                      A
 Frequencies --    278.2930               298.9785               323.9144
 Red. masses --      3.5840                 5.2493                 8.5166
 Frc consts  --      0.1635                 0.2765                 0.5265
 IR Inten    --      3.8879                 0.6912                 5.3662

                     13                     14                     15
                      A                      A                      A
 Frequencies --    338.0207               437.1598               446.2985
 Red. masses --      8.0583                 3.6567                 4.9313
 Frc consts  --      0.5425                 0.4117                 0.5787
 IR Inten    --      1.4945                27.6966                 8.6058

                     16                     17                     18
                      A                      A                      A
 Frequencies --    455.5940               496.0236               502.6396
 Red. masses --      4.1810                 2.2977                 5.8113
 Frc consts  --      0.5113                 0.3331                 0.8650
 IR Inten    --     12.0601                92.1054                28.2595

                     19                     20                     21
                      A                      A                      A
 Frequencies --    579.5254               582.5097               596.1408
 Red. masses --      1.2774                 4.5235                 3.9385
 Frc consts  --      0.2528                 0.9043                 0.8247
 IR Inten    --     71.5333                 1.0319                 7.7133

                     22                     23                     24
                      A                      A                      A
 Frequencies --    635.0596               652.9028               661.5577
 Red. masses --      3.8053                 4.4655                 4.6280
 Frc consts  --      0.9042                 1.1216                 1.1934
 IR Inten    --      4.0033                15.8030                32.7125

                     25                     26                     27
                      A                      A                      A
 Frequencies --    708.0864               722.9379               746.3792
 Red. masses --      5.6971                 4.4549                 5.7897
 Frc consts  --      1.6830                 1.3718                 1.9003
 IR Inten    --      9.9341                23.7506                12.7227

                     28                     29                     30
                      A                      A                      A
 Frequencies --    750.5032               772.6667               823.0271
 Red. masses --      6.6189                 1.4587                 5.4824
 Frc consts  --      2.1965                 0.5131                 2.1880
 IR Inten    --     60.8188                 7.6928                 8.7007

                     31                     32                     33
                      A                      A                      A
 Frequencies --    853.2498               991.9187              1013.6785
 Red. masses --      1.4680                 6.3770                 5.0275
 Frc consts  --      0.6297                 3.6967                 3.0437
 IR Inten    --     11.3703                 3.7579                 1.6790

                     34                     35                     36
                      A                      A                      A
 Frequencies --   1041.7447              1059.1696              1074.7742
 Red. masses --      1.7774                 5.6631                 2.2236
 Frc consts  --      1.1365                 3.7432                 1.5134
 IR Inten    --      6.8340                89.8129                10.0378

                     37                     38                     39
                      A                      A                      A
 Frequencies --   1093.2008              1138.4840              1160.5537
 Red. masses --      2.5629                 4.3965                 1.3044
 Frc consts  --      1.8046                 3.3575                 1.0351
 IR Inten    --     90.8981                28.2815                 0.1342

                     40                     41                     42
                      A                      A                      A
 Frequencies --   1190.1702              1226.8473              1248.6761
 Red. masses --      1.5493                 1.3575                 1.6373
 Frc consts  --      1.2930                 1.2039                 1.5041
 IR Inten    --    527.5323                 6.9971                94.6711

                     43                     44                     45
                      A                      A                      A
 Frequencies --   1250.3902              1309.4926              1320.6304
 Red. masses --      1.4487                 2.1246                 3.4074
 Frc consts  --      1.3345                 2.1466                 3.5013
 IR Inten    --     20.6960                59.2939                16.5041

                     46                     47                     48
                      A                      A                      A
 Frequencies --   1375.3513              1379.2205              1401.5300
 Red. masses --      3.2754                 3.4952                 3.4794
 Frc consts  --      3.6504                 3.9174                 4.0268
 IR Inten    --     11.1525                77.6566                42.4053

                     49                     50                     51
                      A                      A                      A
 Frequencies --   1439.4001              1463.4026              1473.9736
 Red. masses --      3.6993                 4.6049                 1.6939
 Frc consts  --      4.5158                 5.8103                 2.1682
 IR Inten    --     26.0399               285.4944                 6.0291

                     52                     53                     54
                      A                      A                      A
 Frequencies --   1499.5447              1511.4261              1538.3520
 Red. masses --      2.8188                 1.0427                 1.5144
 Frc consts  --      3.7345                 1.4034                 2.1116
 IR Inten    --    152.4139                11.3073                 1.7757

                     55                     56                     57
                      A                      A                      A
 Frequencies --   1543.3707              1545.7856              1561.0287
 Red. masses --      1.4973                 1.4035                 2.4245
 Frc consts  --      2.1014                 1.9759                 3.4810
 IR Inten    --     32.3562                16.6470                82.4521

                     58                     59                     60
                      A                      A                      A
 Frequencies --   1609.3705              1612.4477              1799.1247
 Red. masses --      5.3468                 6.2792                 9.4836
 Frc consts  --      8.1594                 9.6189                18.0861
 IR Inten    --     77.6650                43.2856               504.5595

                     61                     62                     63
                      A                      A                      A
 Frequencies --   2927.1323              3065.4913              3084.4638
 Red. masses --      1.0754                 1.0333                 1.0871
 Frc consts  --      5.4287                 5.7210                 6.0936
 IR Inten    --    131.0707                22.5820                34.2016

                     64                     65                     66
                      A                      A                      A
 Frequencies --   3130.4364              3161.5400              3236.9324
 Red. masses --      1.1061                 1.1037                 1.0932
 Frc consts  --      6.3861                 6.4999                 6.7486
 IR Inten    --     11.1324                10.4855                 0.9508

                     67                     68                     69
                      A                      A                      A
 Frequencies --   3266.3697              3597.0110              3704.0494
 Red. masses --      1.0962                 1.0757                 1.0642
 Frc consts  --      6.8911                 8.2004                 8.6023
 IR Inten    --      0.7115                12.8929               106.1709

 - Thermochemistry -
 -------------------
 Temperature   298.150 Kelvin.  Pressure   1.00000 Atm.
 Atom     1 has atomic number  6 and mass  12.00000

 Molecular mass:   235.04155 amu.
 Principal axes and moments of inertia in atomic units:
                           1         2         3
     Eigenvalues --  1686.561065823.413397458.74091
           X            0.99988  -0.01579   0.00054
           Y            0.01579   0.99985   0.00697
           Z           -0.00065  -0.00696   0.99998
 This molecule is an asymmetric top.
 Rotational symmetry number  1.
 Warning -- assumption of classical behavior for rotation
           may cause significant error
 Rotational temperatures (Kelvin)      0.05136     0.01487     0.01161
 Rotational constants (GHZ):           1.07007     0.30991     0.24196
 Zero-point vibrational energy     490018.0 (Joules/Mol)
                                  117.11710 (Kcal/Mol)
 Warning -- explicit consideration of  21 degrees of freedom as
           vibrations may cause significant error
 Vibrational temperatures:     83.54    95.68   138.85   158.67   175.35
          (Kelvin)            210.47   251.66   286.20   350.06   400.40
                              430.16   466.04   486.34   628.98   642.12
                              655.50   713.67   723.19   833.81   838.10
                              857.71   913.71   939.38   951.83  1018.78
                             1040.15  1073.87  1079.81  1111.70  1184.15
                             1227.64  1427.15  1458.46  1498.84  1523.91
                             1546.36  1572.87  1638.02  1669.78  1712.39
                             1765.16  1796.57  1799.03  1884.07  1900.09
                             1978.82  1984.39  2016.49  2070.98  2105.51
                             2120.72  2157.51  2174.61  2213.35  2220.57
                             2224.04  2245.97  2315.53  2319.95  2588.54
                             4211.49  4410.56  4437.86  4504.00  4548.75
                             4657.22  4699.58  5175.30  5329.30

 Zero-point correction=                           0.186638 (Hartree/Particle)
 Thermal correction to Energy=                    0.200350
 Thermal correction to Enthalpy=                  0.201295
 Thermal correction to Gibbs Free Energy=         0.145721
 Sum of electronic and zero-point Energies=          -1099.242155
 Sum of electronic and thermal Energies=             -1099.228443
 Sum of electronic and thermal Enthalpies=           -1099.227499
 Sum of electronic and thermal Free Energies=        -1099.283072

                     E (Thermal)             CV                S
                      KCal/Mol        Cal/Mol-Kelvin    Cal/Mol-Kelvin
 Total                  125.722             51.897            116.965
 Electronic               0.000              0.000              0.000
 Translational            0.889              2.981             42.265
 Rotational               0.889              2.981             32.660
 Vibrational            123.944             45.935             42.039
 Vibration     1          0.596              1.974              4.522
 Vibration     2          0.598              1.970              4.254
 Vibration     3          0.603              1.952              3.524
 Vibration     4          0.606              1.941              3.264
 Vibration     5          0.609              1.931              3.070
 Vibration     6          0.617              1.907              2.720
 Vibration     7          0.627              1.873              2.382
 Vibration     8          0.637              1.841              2.143
 Vibration     9          0.659              1.774              1.779
 Vibration    10          0.679              1.714              1.544
 Vibration    11          0.692              1.676              1.423
 Vibration    12          0.708              1.628              1.290
 Vibration    13          0.718              1.600              1.221
 Vibration    14          0.797              1.389              0.836
 Vibration    15          0.806              1.369              0.807
 Vibration    16          0.814              1.349              0.779
 Vibration    17          0.852              1.259              0.668
 Vibration    18          0.858              1.244              0.652
 Vibration    19          0.936              1.076              0.486
 Vibration    20          0.939              1.069              0.481
 Vibration    21          0.954              1.040              0.456

                           ! Non-Optimized Parameters !
 Normal termination of Gaussian 16 at Thu Dec 10 22:13:19 2020.

 ----------------------------------------------------------------------
 # B3LYP/6-311++G(d,p) empiricaldispersion=gd3bj scf=xqc pop=npa geom=c
 heck
 ----------------------------------------------------------------------

 --------------------------------------
 CID_96595799_JID_6271_Energie_neutraal
 --------------------------------------
 Structure from the checkpoint file:  "JID_6271.chk"
 Charge =  0 Multiplicity = 1

 SCF Done:  E(RB3LYP) =  -1099.65339824     A.U. after   16 cycles
 Normal termination of Gaussian 16 at Thu Dec 10 22:16:21 2020.

 ----------------------------------------------------------------------
 # B3LYP/6-311++G(d,p) empiricaldispersion=gd3bj scf=xqc pop=npa geom=c
 heck
 ----------------------------------------------------------------------

 ------------------------------------
 CID_96595799_JID_6271_Energie_kation
 ------------------------------------
 Structure from the checkpoint file:  "JID_6271.chk"
 Charge =  1 Multiplicity = 2

 SCF Done:  E(UB3LYP) =  -1099.40053461     A.U. after   22 cycles
 Normal termination of Gaussian 16 at Thu Dec 10 22:23:06 2020.
 Gaussian 16:  ES64L-G16RevA.03 25-Dec-2016

 ----------------------------------------------------------------------
 # B3LYP/6-311++G(d,p) empiricaldispersion=gd3bj scf=xqc pop=npa geom=c
 heck
 ----------------------------------------------------------------------

 -----------------------------------
 CID_96595799_JID_6271_Energie_anion
 -----------------------------------
 Structure from the checkpoint file:  "JID_6271.chk"
 Charge = -1 Multiplicity = 2

                         Standard orientation:
 ---------------------------------------------------------------------
 Center     Atomic      Atomic             Coordinates (Angstroms)
 Number     Number       Type             X           Y           Z
 ---------------------------------------------------------------------
      1          6           0        2.079975   -2.668536   -0.168688
      2          7           0        2.497535   -1.282720   -0.055999
      3          6           0        3.783416   -0.802687   -0.033350
      4          7           0        3.833078    0.516343    0.055093
      5          6           0        2.525557    0.915480    0.086270
      6          6           0        1.675607   -0.175271    0.023970
      7          6           0        0.255564   -0.014127    0.019016
      8          6           0       -0.228386    1.291609   -0.102352
      9          6           0       -1.644012    1.330844   -0.116831
     10          6           0       -2.217467    0.078909   -0.007725
     11         16           0       -1.021964   -1.186097    0.123214
     12          6           0       -3.624055   -0.292150    0.019917
     13          8           0       -4.048251   -1.429877    0.123625
     14          8           0       -4.447073    0.787869   -0.085552
     15          7           0        0.635229    2.369410   -0.282353
     16          6           0        2.008912    2.314374    0.251636
     17          1           0        1.521876   -2.978923    0.720313
     18          1           0        2.968318   -3.295894   -0.265052
     19          1           0        1.448551   -2.807972   -1.051296
     20          1           0        4.635328   -1.466873   -0.086923
     21          1           0       -2.235859    2.233811   -0.210801
     22          1           0       -5.351272    0.425209   -0.058410
     23          1           0        0.194905    3.274106   -0.179214
     24          1           0        2.628961    3.021723   -0.308713
     25          1           0        2.051645    2.616520    1.315719
 ---------------------------------------------------------------------

 SCF Done:  E(UB3LYP) =  -1099.67142179     A.U. after   24 cycles

 The electronic state is 2-A.
 Alpha  occ. eigenvalues --  -88.71753 -19.01890 -18.94160 -14.24882 -14.19828
 Alpha  occ. eigenvalues --  -14.17609 -10.12954 -10.11436 -10.09681 -10.09118
 Alpha  occ. eigenvalues --  -10.07548 -10.06774 -10.05361 -10.04335 -10.03736
 Alpha  occ. eigenvalues --  -10.02020  -7.80392  -5.76716  -5.76353  -5.75961
 Alpha  occ. eigenvalues --   -0.95260  -0.89858  -0.85781  -0.81114  -0.77125
 Alpha  occ. eigenvalues --   -0.72295  -0.65662  -0.62295  -0.60271  -0.58172
 Alpha  occ. eigenvalues --   -0.54462  -0.51601  -0.46843  -0.45486  -0.42048
 Alpha  occ. eigenvalues --   -0.40666  -0.39486  -0.36961  -0.36506  -0.35599
 Alpha  occ. eigenvalues --   -0.33673  -0.33113  -0.32013  -0.31465  -0.30191
 Alpha  occ. eigenvalues --   -0.29670  -0.27996  -0.27233  -0.25722  -0.24886
 Alpha  occ. eigenvalues --   -0.24327  -0.24004  -0.20098  -0.18193  -0.16494
 Alpha  occ. eigenvalues --   -0.15948  -0.15583  -0.13602  -0.12848  -0.09465
 Alpha  occ. eigenvalues --   -0.04822   0.03936
 Alpha virt. eigenvalues --    0.07423   0.08557   0.09487   0.09941   0.11085
 Alpha virt. eigenvalues --    0.11269   0.11770   0.12162   0.14058   0.14239
 Alpha virt. eigenvalues --    0.14306   0.14883   0.15482   0.16258   0.16897

  Beta  occ. eigenvalues --  -88.71684 -19.01825 -18.93853 -14.24763 -14.19821
  Beta  occ. eigenvalues --  -14.17677 -10.12699 -10.11441 -10.09557 -10.09125
  Beta  occ. eigenvalues --  -10.07594 -10.06839 -10.05211 -10.04042 -10.03508
  Beta  occ. eigenvalues --  -10.01786  -7.80331  -5.76687  -5.76324  -5.75734
  Beta  occ. eigenvalues --   -0.94966  -0.89710  -0.85316  -0.81071  -0.77033
  Beta  occ. eigenvalues --   -0.71958  -0.65415  -0.62186  -0.59955  -0.57731
  Beta  occ. eigenvalues --   -0.54235  -0.51073  -0.46652  -0.45354  -0.41833
  Beta  occ. eigenvalues --   -0.40537  -0.39238  -0.36742  -0.36307  -0.35420
  Beta  occ. eigenvalues --   -0.33566  -0.32814  -0.31921  -0.31335  -0.29601
  Beta  occ. eigenvalues --   -0.28820  -0.27785  -0.27083  -0.25519  -0.24626
  Beta  occ. eigenvalues --   -0.23940  -0.23507  -0.19784  -0.17228  -0.15769
  Beta  occ. eigenvalues --   -0.15679  -0.15467  -0.12534  -0.12408  -0.08132
  Beta  occ. eigenvalues --   -0.03595
  Beta virt. eigenvalues --    0.07383   0.08530   0.09410   0.09490   0.09909
  Beta virt. eigenvalues --    0.11070   0.11424   0.11862   0.12137   0.14135
  Beta virt. eigenvalues --    0.14222   0.14695   0.15194   0.15511   0.16270

 Mulliken charges and spin densities:
               1          2
     1  C   -0.317543   0.003702
     2  N   -0.053136   0.031259
     3  C    0.261553   0.111394
     4  N   -0.138195  -0.038661
     5  C   -0.487650   0.121270
     6  C    0.095048  -0.050831
     7  C    0.400542   0.177916
     8  C   -0.622873  -0.018192
     9  C    0.394200   0.212861
    10  C   -0.547154   0.024957
    11  S   -0.707571   0.124169
    12  C    0.350653   0.214564
    13  O   -0.433659   0.107421
    14  O   -0.239117   0.015613
    15  N   -0.061855   0.005513
    16  C   -0.412460  -0.016151
    17  H    0.177042   0.000031
    18  H    0.112545  -0.000615
    19  H    0.172962   0.000143
    20  H    0.150719  -0.007603
    21  H    0.146193  -0.016604
    22  H    0.261692  -0.000699
    23  H    0.234771  -0.000183
    24  H    0.146869   0.001087
    25  H    0.116423  -0.002361
 Sum of Mulliken charges =  -1.00000   1.00000

 Dipole moment (field-independent basis, Debye):
    X=              3.3525    Y=              0.3669    Z=              0.0011  Tot=              3.3725
 Quadrupole moment (field-independent basis, Debye-Ang):
   XX=           -156.5099   YY=           -104.6756   ZZ=           -109.3651
   XY=            -19.7773   XZ=              0.4646   YZ=              2.3255

 Summary of Natural Population Analysis:

                                       Natural Population
                Natural  -----------------------------------------------
    Atom  No    Charge         Core      Valence    Rydberg      Total
 -----------------------------------------------------------------------
      C    1   -0.17473      0.99966     2.16876    0.00632     3.17473
      N    2   -0.18952      0.99961     2.68136    0.00855     3.68952
      C    3    0.11362      0.99966     1.86936    0.01736     2.88638
      N    4   -0.27166      0.99970     2.76060    0.01135     3.77166
      C    5    0.07079      0.99948     1.91150    0.01823     2.92921
      C    6    0.03320      0.99944     1.95060    0.01675     2.96680
      C    7   -0.06635      0.99939     2.05764    0.00931     3.06635
      C    8    0.05387      0.99937     1.93354    0.01322     2.94613
      C    9   -0.07767      0.99940     2.06778    0.01048     3.07767
      C   10   -0.10842      0.99938     2.09509    0.01396     3.10842
      S   11    0.22201      4.99946     2.75231    0.02623     7.77799
      C   12    0.40726      0.99959     1.56891    0.02423     2.59274
      O   13   -0.30731      0.99987     3.29939    0.00804     4.30731
      O   14   -0.35440      0.99988     3.34831    0.00621     4.35440
      N   15   -0.31863      0.99968     2.80757    0.01138     3.81863
      C   16   -0.08459      0.99960     2.07612    0.00887     3.08459
      H   17    0.09975      0.00000     0.39907    0.00118     0.40025
      H   18    0.09409      0.00000     0.40509    0.00082     0.40591
      H   19    0.10198      0.00000     0.39673    0.00129     0.39802
      H   20    0.08227      0.00000     0.41667    0.00106     0.41773
      H   21    0.09999      0.00000     0.39857    0.00145     0.40001
      H   22    0.22925      0.00000     0.26733    0.00341     0.27075
      H   23    0.17786      0.00000     0.31986    0.00228     0.32214
      H   24    0.09338      0.00000     0.40518    0.00144     0.40662
      H   25    0.07419      0.00000     0.42389    0.00192     0.42581
 =======================================================================
   * Total *    0.00023     19.99318    40.78122    0.22537    60.99977

 Normal termination of Gaussian 16 at Thu Dec 10 22:29:24 2020.
