 Gaussian 16, Revision A.03,

 -----------------------------------------------------------
 # opt freq B3LYP/6-31G(d) empiricaldispersion=gd3bj scf=xqc
 -----------------------------------------------------------

 -------------------------------
 CID_43668286_JID_10564_neutraal
 -------------------------------
 Symbolic Z-matrix:
 Charge =  0 Multiplicity = 1

 SCF Done:  E(RB3LYP) =  -938.712479257     A.U. after   15 cycles
 SCF Done:  E(RB3LYP) =  -938.721605827     A.U. after   12 cycles
 SCF Done:  E(RB3LYP) =  -938.719552857     A.U. after   13 cycles
 SCF Done:  E(RB3LYP) =  -938.721569176     A.U. after   13 cycles
 SCF Done:  E(RB3LYP) =  -938.722818415     A.U. after   10 cycles
 SCF Done:  E(RB3LYP) =  -938.723597725     A.U. after   12 cycles
 SCF Done:  E(RB3LYP) =  -938.723989484     A.U. after   12 cycles
 SCF Done:  E(RB3LYP) =  -938.724017905     A.U. after   12 cycles
 SCF Done:  E(RB3LYP) =  -938.724503630     A.U. after   11 cycles
 SCF Done:  E(RB3LYP) =  -938.724600443     A.U. after   11 cycles
 SCF Done:  E(RB3LYP) =  -938.725141223     A.U. after    7 cycles
 SCF Done:  E(RB3LYP) =  -938.725141232     A.U. after    7 cycles
 SCF Done:  E(RB3LYP) =  -938.725141242     A.U. after    7 cycles
 SCF Done:  E(RB3LYP) =  -938.725141253     A.U. after    7 cycles
 SCF Done:  E(RB3LYP) =  -938.725141262     A.U. after    6 cycles
 Optimization completed.
    -- Stationary point found.
 Normal termination of Gaussian 16 at Sat Dec 12 16:22:12 2020.

 --------------------------------------------------------------------
 #N Geom=AllCheck Guess=TCheck SCRF=Check GenChk RB3LYP/6-31G(d) Freq
 --------------------------------------------------------------------

 Structure from the checkpoint file:  "JID_10564.chk"
 -------------------------------
 CID_43668286_JID_10564_neutraal
 -------------------------------
 Charge =  0 Multiplicity = 1

 SCF Done:  E(RB3LYP) =  -938.725141262     A.U. after    1 cycles

  Exact polarizability: 251.862   2.691 202.935  -1.327  -5.573 103.304
 Approx polarizability: 335.039   1.528 354.674   4.419 -30.498 157.472

                      1                      2                      3
                      A                      A                      A
 Frequencies --     28.0607                32.9288                43.1301
 Red. masses --      2.8290                 2.4387                 2.4938
 Frc consts  --      0.0013                 0.0016                 0.0027
 IR Inten    --      2.2170                 2.4252                 3.2059

                      4                      5                      6
                      A                      A                      A
 Frequencies --     57.5482                65.4384                80.5652
 Red. masses --      2.3592                 1.4040                 3.7443
 Frc consts  --      0.0046                 0.0035                 0.0143
 IR Inten    --      0.7012                 0.4589                 1.2873

                      7                      8                      9
                      A                      A                      A
 Frequencies --     86.0169               127.6257               132.6155
 Red. masses --      2.8891                 2.2456                 3.5765
 Frc consts  --      0.0126                 0.0216                 0.0371
 IR Inten    --      1.8539                 0.6121                 0.0678

                     10                     11                     12
                      A                      A                      A
 Frequencies --    144.2510               163.8294               182.6536
 Red. masses --      2.7138                 2.0399                 1.4494
 Frc consts  --      0.0333                 0.0323                 0.0285
 IR Inten    --      4.1511                 1.6154                 0.6277

                     13                     14                     15
                      A                      A                      A
 Frequencies --    206.9644               219.7745               229.6341
 Red. masses --      3.0653                 2.8309                 1.1392
 Frc consts  --      0.0774                 0.0806                 0.0354
 IR Inten    --      1.0885                 4.2208                 0.4756

                     16                     17                     18
                      A                      A                      A
 Frequencies --    244.4427               252.0852               254.7388
 Red. masses --      2.3027                 1.4014                 3.3478
 Frc consts  --      0.0811                 0.0525                 0.1280
 IR Inten    --      2.8875                 0.0581                 3.2006

                     19                     20                     21
                      A                      A                      A
 Frequencies --    280.4638               291.0449               305.8636
 Red. masses --      3.9828                 5.6681                 4.3829
 Frc consts  --      0.1846                 0.2829                 0.2416
 IR Inten    --      5.7503                 4.6340                 2.9120

                     22                     23                     24
                      A                      A                      A
 Frequencies --    326.9658               347.4752               368.7233
 Red. masses --      5.3780                 5.3988                 4.7313
 Frc consts  --      0.3387                 0.3841                 0.3790
 IR Inten    --      3.0686                 0.8221                 1.1873

                     25                     26                     27
                      A                      A                      A
 Frequencies --    391.9066               437.3204               447.8283
 Red. masses --      5.1938                 5.1039                 3.4152
 Frc consts  --      0.4700                 0.5751                 0.4035
 IR Inten    --      1.3115                10.0034                 5.0927

                     28                     29                     30
                      A                      A                      A
 Frequencies --    476.0359               493.2043               525.1298
 Red. masses --      1.1717                 5.2924                 6.2384
 Frc consts  --      0.1564                 0.7585                 1.0136
 IR Inten    --     62.5119                 2.7142                 4.2188

                     31                     32                     33
                      A                      A                      A
 Frequencies --    570.4229               584.5156               622.8256
 Red. masses --      6.1075                 5.0596                 4.0454
 Frc consts  --      1.1709                 1.0185                 0.9246
 IR Inten    --     11.0525                 5.7033                 3.9327

                     34                     35                     36
                      A                      A                      A
 Frequencies --    638.1169               660.0632               686.1287
 Red. masses --      5.3660                 5.6443                 4.6416
 Frc consts  --      1.2874                 1.4489                 1.2875
 IR Inten    --      1.3289                14.9038                 1.5416

                     37                     38                     39
                      A                      A                      A
 Frequencies --    693.6587               723.1212               729.9605
 Red. masses --      5.4365                 4.7812                 5.7242
 Frc consts  --      1.5412                 1.4730                 1.7971
 IR Inten    --      2.8383                 1.6740                 3.9948

                     40                     41                     42
                      A                      A                      A
 Frequencies --    763.4327               821.1547               860.4191
 Red. masses --      4.0076                 1.4813                 1.6016
 Frc consts  --      1.3762                 0.5885                 0.6986
 IR Inten    --      2.2483                25.7180                27.2226

                     43                     44                     45
                      A                      A                      A
 Frequencies --    867.5031               902.9853               945.0186
 Red. masses --      3.4055                 4.3159                 1.1920
 Frc consts  --      1.5100                 2.0734                 0.6272
 IR Inten    --      8.9111                 5.4607                 0.7573

                     46                     47                     48
                      A                      A                      A
 Frequencies --    969.6159               975.9517              1009.4977
 Red. masses --      5.5527                 1.4717                 3.9249
 Frc consts  --      3.0758                 0.8259                 2.3566
 IR Inten    --     31.7547                 0.1784                45.8404

                     49                     50                     51
                      A                      A                      A
 Frequencies --   1023.4225              1062.5732              1095.5888
 Red. masses --      5.9396                 5.9291                 2.1470
 Frc consts  --      3.6654                 3.9442                 1.5184
 IR Inten    --      1.4074                99.0746                 9.0137

                     52                     53                     54
                      A                      A                      A
 Frequencies --   1130.7569              1145.3675              1147.3124
 Red. masses --      2.3110                 3.3553                 2.9452
 Frc consts  --      1.7410                 2.5934                 2.2842
 IR Inten    --      1.3597               205.6881                27.5235

                     55                     56                     57
                      A                      A                      A
 Frequencies --   1171.1957              1172.6530              1174.8767
 Red. masses --      1.3472                 1.4316                 1.3502
 Frc consts  --      1.0888                 1.1598                 1.0981
 IR Inten    --      2.9736                22.5750                18.8067

                     58                     59                     60
                      A                      A                      A
 Frequencies --   1178.6304              1200.4061              1217.7166
 Red. masses --      1.2621                 1.6675                 1.4764
 Frc consts  --      1.0330                 1.4157                 1.2898
 IR Inten    --      5.4153                16.0953                 1.4736

                     61                     62                     63
                      A                      A                      A
 Frequencies --   1225.5593              1229.6897              1241.1031
 Red. masses --      1.6590                 1.7649                 1.7666
 Frc consts  --      1.4681                 1.5724                 1.6032
 IR Inten    --     25.2467                26.3993                89.5502

                     64                     65                     66
                      A                      A                      A
 Frequencies --   1254.2675              1303.6714              1345.0055
 Red. masses --      2.4990                 3.8917                 5.2383
 Frc consts  --      2.3163                 3.8970                 5.5832
 IR Inten    --     23.3561               251.1511                 4.7376

                     67                     68                     69
                      A                      A                      A
 Frequencies --   1357.2066              1369.3808              1396.6549
 Red. masses --      1.3331                 2.2386                 2.7062
 Frc consts  --      1.4467                 2.4733                 3.1102
 IR Inten    --      1.5992                46.2667                79.3763

                     70                     71                     72
                      A                      A                      A
 Frequencies --   1407.5998              1429.6831              1434.8881
 Red. masses --      2.1339                 1.2186                 2.9874
 Frc consts  --      2.4911                 1.4676                 3.6240
 IR Inten    --     57.3636                 2.9397                95.2889

                     73                     74                     75
                      A                      A                      A
 Frequencies --   1454.7302              1477.5364              1501.5333
 Red. masses --      1.2989                 1.6774                 1.4322
 Frc consts  --      1.6196                 2.1575                 1.9025
 IR Inten    --      3.0227               165.4796                14.8230

                     76                     77                     78
                      A                      A                      A
 Frequencies --   1506.8455              1511.4983              1515.1075
 Red. masses --      1.2190                 1.1834                 1.0647
 Frc consts  --      1.6308                 1.5929                 1.4400
 IR Inten    --      9.8414                26.6566                13.6784

                     79                     80                     81
                      A                      A                      A
 Frequencies --   1515.1630              1515.7747              1518.9648
 Red. masses --      1.0541                 1.0644                 1.0688
 Frc consts  --      1.4258                 1.4409                 1.4529
 IR Inten    --      6.7252                 8.7820                12.9889

                     82                     83                     84
                      A                      A                      A
 Frequencies --   1523.1376              1525.4666              1529.4677
 Red. masses --      1.0465                 1.5232                 1.2313
 Frc consts  --      1.4304                 2.0884                 1.6971
 IR Inten    --      3.3447               159.6333                44.9604

                     85                     86                     87
                      A                      A                      A
 Frequencies --   1533.4750              1537.2839              1541.4052
 Red. masses --      1.0607                 1.0683                 1.0499
 Frc consts  --      1.4696                 1.4875                 1.4698
 IR Inten    --      2.3442                10.5174                15.0612

                     88                     89                     90
                      A                      A                      A
 Frequencies --   1565.5238              1630.2321              1660.7351
 Red. masses --      3.8065                 4.1538                 6.6953
 Frc consts  --      5.4966                 6.5042                10.8798
 IR Inten    --     22.3977                19.7925               376.3785

                     91                     92                     93
                      A                      A                      A
 Frequencies --   1680.1379              1720.4913              3044.7413
 Red. masses --      6.1580                 9.1530                 1.0341
 Frc consts  --     10.2419                15.9631                 5.6481
 IR Inten    --     25.5536               463.9000                29.6492

                     94                     95                     96
                      A                      A                      A
 Frequencies --   3045.0291              3048.8885              3050.3870
 Red. masses --      1.0379                 1.0397                 1.0373
 Frc consts  --      5.6703                 5.6945                 5.6866
 IR Inten    --     16.4021                26.6720               111.2336

                     97                     98                     99
                      A                      A                      A
 Frequencies --   3061.5530              3073.2974              3107.8458
 Red. masses --      1.0313                 1.0831                 1.0991
 Frc consts  --      5.6953                 6.0274                 6.2549
 IR Inten    --     73.7391                 5.8741                 4.7302

                    100                    101                    102
                      A                      A                      A
 Frequencies --   3116.3855              3123.0620              3123.8628
 Red. masses --      1.0984                 1.1035                 1.1019
 Frc consts  --      6.2852                 6.3415                 6.3354
 IR Inten    --     80.0044                25.6889                54.0622

                    103                    104                    105
                      A                      A                      A
 Frequencies --   3132.7569              3134.3642              3139.9214
 Red. masses --      1.1033                 1.1033                 1.1052
 Frc consts  --      6.3795                 6.3859                 6.4197
 IR Inten    --     17.1375                29.9220                38.5860

                    106                    107                    108
                      A                      A                      A
 Frequencies --   3148.0118              3159.5337              3200.4604
 Red. masses --      1.1057                 1.1065                 1.1003
 Frc consts  --      6.4557                 6.5079                 6.6405
 IR Inten    --     23.1061                25.1063                 7.0742

                    109                    110                    111
                      A                      A                      A
 Frequencies --   3203.0712              3227.7288              3632.6007
 Red. masses --      1.0911                 1.0916                 1.0767
 Frc consts  --      6.5955                 6.7003                 8.3714
 IR Inten    --      5.1190                 4.3376                41.5325

 - Thermochemistry -
 -------------------
 Temperature   298.150 Kelvin.  Pressure   1.00000 Atm.
 Atom     1 has atomic number  6 and mass  12.00000

 Molecular mass:   277.13141 amu.
 Principal axes and moments of inertia in atomic units:
                           1         2         3
     Eigenvalues --  3270.433678059.75952**********
           X            0.99984  -0.01786  -0.00071
           Y            0.01787   0.99963   0.02063
           Z            0.00034  -0.02064   0.99979
 This molecule is an asymmetric top.
 Rotational symmetry number  1.
 Warning -- assumption of classical behavior for rotation
           may cause significant error
 Rotational temperatures (Kelvin)      0.02648     0.01075     0.00816
 Rotational constants (GHZ):           0.55184     0.22392     0.16993
 Zero-point vibrational energy     847685.1 (Joules/Mol)
                                  202.60160 (Kcal/Mol)
 Warning -- explicit consideration of  32 degrees of freedom as
           vibrations may cause significant error
 Vibrational temperatures:     40.37    47.38    62.05    82.80    94.15
          (Kelvin)            115.92   123.76   183.62   190.80   207.54
                              235.71   262.80   297.78   316.21   330.39
                              351.70   362.69   366.51   403.52   418.75
                              440.07   470.43   499.94   530.51   563.87
                              629.21   644.33   684.91   709.61   755.54
                              820.71   840.99   896.11   918.11   949.68
                              987.19   998.02  1040.41  1050.25  1098.41
                             1181.46  1237.95  1248.14  1299.19  1359.67
                             1395.06  1404.18  1452.44  1472.48  1528.81
                             1576.31  1626.91  1647.93  1650.73  1685.09
                             1687.19  1690.39  1695.79  1727.12  1752.02
                             1763.31  1769.25  1785.67  1804.61  1875.69
                             1935.16  1952.72  1970.23  2009.47  2025.22
                             2057.00  2064.48  2093.03  2125.85  2160.37
                             2168.01  2174.71  2179.90  2179.98  2180.86
                             2185.45  2191.46  2194.81  2200.56  2206.33
                             2211.81  2217.74  2252.44  2345.54  2389.43
                             2417.34  2475.40  4380.70  4381.12  4386.67
                             4388.83  4404.89  4421.79  4471.50  4483.78
                             4493.39  4494.54  4507.34  4509.65  4517.65
                             4529.29  4545.86  4604.75  4608.50  4643.98
                             5226.50

 Zero-point correction=                           0.322866 (Hartree/Particle)
 Thermal correction to Energy=                    0.343816
 Thermal correction to Enthalpy=                  0.344760
 Thermal correction to Gibbs Free Energy=         0.272171
 Sum of electronic and zero-point Energies=           -938.402275
 Sum of electronic and thermal Energies=              -938.381325
 Sum of electronic and thermal Enthalpies=            -938.380381
 Sum of electronic and thermal Free Energies=         -938.452970

                     E (Thermal)             CV                S
                      KCal/Mol        Cal/Mol-Kelvin    Cal/Mol-Kelvin
 Total                  215.748             76.535            152.776
 Electronic               0.000              0.000              0.000
 Translational            0.889              2.981             42.756
 Rotational               0.889              2.981             33.992
 Vibrational            213.970             70.574             76.027
 Vibration     1          0.593              1.984              5.962
 Vibration     2          0.594              1.983              5.645
 Vibration     3          0.595              1.980              5.110
 Vibration     4          0.596              1.974              4.540
 Vibration     5          0.597              1.971              4.286
 Vibration     6          0.600              1.962              3.877
 Vibration     7          0.601              1.959              3.749
 Vibration     8          0.611              1.926              2.982
 Vibration     9          0.613              1.921              2.908
 Vibration    10          0.616              1.909              2.747
 Vibration    11          0.623              1.887              2.505
 Vibration    12          0.630              1.863              2.301
 Vibration    13          0.641              1.830              2.070
 Vibration    14          0.647              1.811              1.961
 Vibration    15          0.652              1.796              1.882
 Vibration    16          0.660              1.772              1.770
 Vibration    17          0.664              1.759              1.716
 Vibration    18          0.665              1.755              1.698
 Vibration    19          0.680              1.710              1.531
 Vibration    20          0.687              1.690              1.468
 Vibration    21          0.696              1.663              1.385
 Vibration    22          0.711              1.622              1.275
 Vibration    23          0.725              1.580              1.178
 Vibration    24          0.741              1.537              1.085
 Vibration    25          0.759              1.487              0.993
 Vibration    26          0.798              1.389              0.835
 Vibration    27          0.807              1.366              0.802
 Vibration    28          0.833              1.303              0.721
 Vibration    29          0.849              1.265              0.675
 Vibration    30          0.880              1.194              0.598
 Vibration    31          0.927              1.095              0.503
 Vibration    32          0.941              1.065              0.477

                           ! Non-Optimized Parameters !
 Normal termination of Gaussian 16 at Sat Dec 12 16:42:55 2020.

 ----------------------------------------------------------------------
 # B3LYP/6-311++G(d,p) empiricaldispersion=gd3bj scf=xqc pop=npa geom=c
 heck
 ----------------------------------------------------------------------

 ---------------------------------------
 CID_43668286_JID_10564_Energie_neutraal
 ---------------------------------------
 Structure from the checkpoint file:  "JID_10564.chk"
 Charge =  0 Multiplicity = 1

 SCF Done:  E(RB3LYP) =  -938.986854516     A.U. after   18 cycles
 Normal termination of Gaussian 16 at Sat Dec 12 16:54:03 2020.

 ----------------------------------------------------------------------
 # B3LYP/6-311++G(d,p) empiricaldispersion=gd3bj scf=xqc pop=npa geom=c
 heck
 ----------------------------------------------------------------------

 -------------------------------------
 CID_43668286_JID_10564_Energie_kation
 -------------------------------------
 Structure from the checkpoint file:  "JID_10564.chk"
 Charge =  1 Multiplicity = 2

 SCF Done:  E(UB3LYP) =  -938.719954712     A.U. after   27 cycles
 Normal termination of Gaussian 16 at Sat Dec 12 17:16:43 2020.
 Gaussian 16:  ES64L-G16RevA.03 25-Dec-2016

 ----------------------------------------------------------------------
 # B3LYP/6-311++G(d,p) empiricaldispersion=gd3bj scf=xqc pop=npa geom=c
 heck
 ----------------------------------------------------------------------

 ------------------------------------
 CID_43668286_JID_10564_Energie_anion
 ------------------------------------
 Structure from the checkpoint file:  "JID_10564.chk"
 Charge = -1 Multiplicity = 2

                         Standard orientation:
 ---------------------------------------------------------------------
 Center     Atomic      Atomic             Coordinates (Angstroms)
 Number     Number       Type             X           Y           Z
 ---------------------------------------------------------------------
      1          6           0        4.646337   -0.785655    1.501828
      2          6           0        4.316667   -0.272407    0.088751
      3          6           0        4.712512   -1.298167   -0.988415
      4          6           0        2.863778    0.130172   -0.031137
      5          6           0        2.446449    1.393779   -0.304040
      6          6           0        1.042661    1.760391   -0.432491
      7          8           0        0.712602    2.902929   -0.771009
      8          6           0        0.076669    0.665683   -0.150747
      9          6           0       -1.336201    0.825837   -0.197676
     10          6           0       -2.196072   -0.277173   -0.088106
     11          6           0       -1.659763   -1.574986    0.068700
     12          6           0       -0.286455   -1.747819    0.162361
     13          6           0        0.567978   -0.645981    0.064486
     14          7           0        1.934585   -0.860273    0.144848
     15          8           0       -2.420877   -2.693768    0.218044
     16          6           0       -3.560383   -2.883232   -0.628336
     17          8           0       -3.560436   -0.155995   -0.138949
     18          6           0       -4.183188    0.727159    0.794733
     19          8           0       -1.951334    2.026135   -0.363791
     20          6           0       -1.681810    3.079202    0.571254
     21          1           0        4.108948   -1.713962    1.731793
     22          1           0        4.376829   -0.045586    2.261659
     23          1           0        5.717350   -0.997464    1.588916
     24          1           0        4.898052    0.639577   -0.084356
     25          1           0        4.185395   -2.251484   -0.856476
     26          1           0        4.483466   -0.924105   -1.990999
     27          1           0        5.785567   -1.510394   -0.934268
     28          1           0        3.170055    2.184083   -0.466592
     29          1           0        0.102109   -2.752019    0.300262
     30          1           0        2.247902   -1.807330    0.298774
     31          1           0       -4.446962   -2.393817   -0.222030
     32          1           0       -3.369941   -2.496992   -1.634956
     33          1           0       -3.713429   -3.964552   -0.673647
     34          1           0       -3.629193    0.754110    1.740725
     35          1           0       -4.258349    1.737611    0.387197
     36          1           0       -5.184438    0.325311    0.975457
     37          1           0       -1.048820    2.725107    1.390066
     38          1           0       -1.174218    3.892951    0.058028
     39          1           0       -2.647130    3.405647    0.975171
 ---------------------------------------------------------------------

 SCF Done:  E(UB3LYP) =  -938.983577537     A.U. after   33 cycles
 SCF Done:  E(UB3LYP) =  -938.983577537     a.u. after    1 cycles

 The electronic state is 2-A.
 Alpha  occ. eigenvalues --  -19.04944 -19.04657 -19.03449 -18.94709 -14.25001
 Alpha  occ. eigenvalues --  -10.13011 -10.12714 -10.12557 -10.12321 -10.11947
 Alpha  occ. eigenvalues --  -10.11851 -10.11335 -10.11162 -10.10996 -10.09168
 Alpha  occ. eigenvalues --  -10.07134 -10.06831 -10.06601 -10.05859 -10.04587
 Alpha  occ. eigenvalues --   -0.97576  -0.95905  -0.94354  -0.88636  -0.87020
 Alpha  occ. eigenvalues --   -0.74686  -0.71293  -0.67185  -0.65555  -0.64874
 Alpha  occ. eigenvalues --   -0.61638  -0.59561  -0.59392  -0.58133  -0.53537
 Alpha  occ. eigenvalues --   -0.51661  -0.49987  -0.48178  -0.44791  -0.44613
 Alpha  occ. eigenvalues --   -0.42397  -0.40751  -0.39179  -0.38312  -0.37134
 Alpha  occ. eigenvalues --   -0.36854  -0.36448  -0.35675  -0.35212  -0.34622
 Alpha  occ. eigenvalues --   -0.33768  -0.33608  -0.33085  -0.32781  -0.30974
 Alpha  occ. eigenvalues --   -0.30658  -0.29466  -0.29352  -0.27397  -0.26689
 Alpha  occ. eigenvalues --   -0.26328  -0.25804  -0.25234  -0.24946  -0.24710
 Alpha  occ. eigenvalues --   -0.24217  -0.22289  -0.21380  -0.18873  -0.18079
 Alpha  occ. eigenvalues --   -0.13831  -0.12428  -0.11392  -0.09715   0.03964
 Alpha virt. eigenvalues --    0.05737   0.06239   0.07047   0.07568   0.08399
 Alpha virt. eigenvalues --    0.08698   0.09339   0.09523   0.09910   0.10297
 Alpha virt. eigenvalues --    0.10674   0.10909   0.11260   0.11694   0.12197

  Beta  occ. eigenvalues --  -19.04929 -19.04658 -19.03427 -18.94524 -14.24926
  Beta  occ. eigenvalues --  -10.13011 -10.12697 -10.12413 -10.12149 -10.11952
  Beta  occ. eigenvalues --  -10.11894 -10.11206 -10.11033 -10.10973 -10.09172
  Beta  occ. eigenvalues --  -10.07102 -10.06855 -10.06542 -10.05794 -10.04640
  Beta  occ. eigenvalues --   -0.97532  -0.95837  -0.94305  -0.88335  -0.86846
  Beta  occ. eigenvalues --   -0.74554  -0.71188  -0.67022  -0.65492  -0.64755
  Beta  occ. eigenvalues --   -0.61575  -0.59472  -0.59307  -0.58066  -0.53409
  Beta  occ. eigenvalues --   -0.51541  -0.49851  -0.48029  -0.44727  -0.44493
  Beta  occ. eigenvalues --   -0.42330  -0.40702  -0.39121  -0.38207  -0.37046
  Beta  occ. eigenvalues --   -0.36768  -0.36364  -0.35612  -0.35142  -0.34583
  Beta  occ. eigenvalues --   -0.33549  -0.33531  -0.33012  -0.32704  -0.30849
  Beta  occ. eigenvalues --   -0.30530  -0.29389  -0.29244  -0.27223  -0.26536
  Beta  occ. eigenvalues --   -0.26249  -0.25590  -0.25127  -0.24689  -0.24384
  Beta  occ. eigenvalues --   -0.24057  -0.22134  -0.21288  -0.18723  -0.17936
  Beta  occ. eigenvalues --   -0.13392  -0.11962  -0.11240  -0.09278
  Beta virt. eigenvalues --    0.06066   0.06547   0.07058   0.07470   0.08244
  Beta virt. eigenvalues --    0.08743   0.08868   0.09626   0.09695   0.09895
  Beta virt. eigenvalues --    0.10265   0.10678   0.11082   0.11528   0.11817

 Mulliken charges and spin densities:
               1          2
     1  C    1.176127  -1.777082
     2  C   -3.012158   2.733985
     3  C    0.369783  -0.956136
     4  C    1.636104  -1.492060
     5  C    0.451186  -0.272107
     6  C   -0.919149   0.150772
     7  O   -0.386777   0.068818
     8  C    2.163024  -0.651194
     9  C    0.044534   0.204999
    10  C    0.861519  -0.514340
    11  C   -0.723606   0.595559
    12  C   -1.636070   0.829679
    13  C   -0.139692  -0.608612
    14  N    0.116805   0.057585
    15  O   -0.166284   0.006684
    16  C   -0.125687  -0.174518
    17  O   -0.156104   0.004628
    18  C   -0.262849  -0.056439
    19  O   -0.124731   0.000019
    20  C   -0.226832  -0.056037
    21  H   -0.471217   0.615653
    22  H    0.041382   0.100153
    23  H   -0.571982   0.733493
    24  H   -0.013119   0.195381
    25  H   -0.290026   0.424301
    26  H    0.134024   0.003307
    27  H   -0.204665   0.360291
    28  H    0.149514   0.029228
    29  H   -0.322105   0.482010
    30  H    0.616061  -0.333118
    31  H    0.136299   0.010556
    32  H    0.104441   0.046273
    33  H    0.036718   0.108525
    34  H    0.135718   0.015467
    35  H    0.158702   0.012533
    36  H    0.093086   0.019001
    37  H    0.118948   0.024481
    38  H    0.187823   0.005005
    39  H    0.021255   0.053257
 Sum of Mulliken charges =  -1.00000   1.00000

 Dipole moment (field-independent basis, Debye):
    X=             -7.7975    Y=              0.8738    Z=             -0.2962  Tot=              7.8519
 Quadrupole moment (field-independent basis, Debye-Ang):
   XX=           -193.5874   YY=           -168.2859   ZZ=           -143.3668
   XY=             10.5240   XZ=            -14.2467   YZ=             14.0386

 Summary of Natural Population Analysis:

                                       Natural Population
                Natural  -----------------------------------------------
    Atom  No    Charge         Core      Valence    Rydberg      Total
 -----------------------------------------------------------------------
      C    1   -0.28062      0.99965     2.27502    0.00595     3.28062
      C    2   -0.12742      0.99958     2.11785    0.00999     3.12742
      C    3   -0.27929      0.99965     2.27403    0.00562     3.27929
      C    4    0.14414      0.99949     1.84268    0.01370     2.85586
      C    5   -0.18258      0.99947     2.17340    0.00972     3.18258
      C    6    0.25156      0.99957     1.72847    0.02040     2.74844
      O    7   -0.31226      0.99988     3.30597    0.00640     4.31226
      C    8   -0.10685      0.99943     2.09884    0.00858     3.10685
      C    9    0.19418      0.99935     1.79370    0.01277     2.80582
      C   10    0.08899      0.99931     1.89826    0.01344     2.91101
      C   11    0.18104      0.99935     1.80585    0.01376     2.81896
      C   12   -0.13813      0.99950     2.12886    0.00978     3.13813
      C   13    0.10265      0.99949     1.88783    0.01002     2.89735
      N   14   -0.27130      0.99961     2.76300    0.00869     3.77130
      O   15   -0.28111      0.99985     3.27121    0.01004     4.28111
      C   16   -0.09393      0.99959     2.08650    0.00784     3.09393
      O   17   -0.29100      0.99986     3.28040    0.01074     4.29100
      C   18   -0.09693      0.99960     2.08886    0.00847     3.09693
      O   19   -0.28191      0.99985     3.27203    0.01003     4.28191
      C   20   -0.09594      0.99959     2.08825    0.00811     3.09594
      H   21    0.09714      0.00000     0.40107    0.00179     0.40286
      H   22    0.10247      0.00000     0.39657    0.00096     0.39753
      H   23    0.10236      0.00000     0.39571    0.00193     0.39764
      H   24    0.10108      0.00000     0.39708    0.00183     0.39892
      H   25    0.09562      0.00000     0.40320    0.00118     0.40438
      H   26    0.10095      0.00000     0.39826    0.00079     0.39905
      H   27    0.10038      0.00000     0.39878    0.00084     0.39962
      H   28    0.10440      0.00000     0.39420    0.00140     0.39560
      H   29    0.10362      0.00000     0.39432    0.00206     0.39638
      H   30    0.19686      0.00000     0.30054    0.00260     0.30314
      H   31    0.08701      0.00000     0.41145    0.00154     0.41299
      H   32    0.08568      0.00000     0.41296    0.00137     0.41432
      H   33    0.08345      0.00000     0.41536    0.00119     0.41655
      H   34    0.08333      0.00000     0.41509    0.00159     0.41667
      H   35    0.08816      0.00000     0.41004    0.00180     0.41184
      H   36    0.08124      0.00000     0.41750    0.00126     0.41876
      H   37    0.08651      0.00000     0.41215    0.00135     0.41349
      H   38    0.10346      0.00000     0.39504    0.00150     0.39654
      H   39    0.07296      0.00000     0.42531    0.00173     0.42704
 =======================================================================
   * Total *    0.00000     19.99168    53.77561    0.23271    74.00000

 Normal termination of Gaussian 16 at Sat Dec 12 17:45:06 2020.
