 Gaussian 16, Revision A.03,

 -----------------------------------------------------------
 # opt freq B3LYP/6-31G(d) empiricaldispersion=gd3bj scf=xqc
 -----------------------------------------------------------

 -------------------------------
 CID_120534921_JID_7943_neutraal
 -------------------------------
 Symbolic Z-matrix:
 Charge =  0 Multiplicity = 1

 SCF Done:  E(RB3LYP) =  -1507.51493101     A.U. after   14 cycles
 SCF Done:  E(RB3LYP) =  -1507.51550633     A.U. after   14 cycles
 SCF Done:  E(RB3LYP) =  -1507.51757455     A.U. after   14 cycles
 SCF Done:  E(RB3LYP) =  -1507.51972416     A.U. after   12 cycles
 SCF Done:  E(RB3LYP) =  -1507.52072876     A.U. after   13 cycles
 SCF Done:  E(RB3LYP) =  -1507.52211187     A.U. after   13 cycles
 SCF Done:  E(RB3LYP) =  -1507.52326807     A.U. after   15 cycles
 SCF Done:  E(RB3LYP) =  -1507.52464120     A.U. after   13 cycles
 SCF Done:  E(RB3LYP) =  -1507.52578109     A.U. after   13 cycles
 SCF Done:  E(RB3LYP) =  -1507.52526699     A.U. after   13 cycles
 SCF Done:  E(RB3LYP) =  -1507.52635547     A.U. after    9 cycles
 SCF Done:  E(RB3LYP) =  -1507.52635697     A.U. after    8 cycles
 SCF Done:  E(RB3LYP) =  -1507.52635833     A.U. after    9 cycles
 SCF Done:  E(RB3LYP) =  -1507.52635872     A.U. after    7 cycles
 SCF Done:  E(RB3LYP) =  -1507.52635892     A.U. after    7 cycles
 Optimization completed.
    -- Stationary point found.
 Normal termination of Gaussian 16 at Fri Dec 11 13:25:42 2020.

 --------------------------------------------------------------------
 #N Geom=AllCheck Guess=TCheck SCRF=Check GenChk RB3LYP/6-31G(d) Freq
 --------------------------------------------------------------------

 Structure from the checkpoint file:  "JID_7943.chk"
 -------------------------------
 CID_120534921_JID_7943_neutraal
 -------------------------------
 Charge =  0 Multiplicity = 1

 SCF Done:  E(RB3LYP) =  -1507.52635892     A.U. after    1 cycles

  Exact polarizability: 175.047  17.800 145.214   7.264   3.829 147.787
 Approx polarizability: 224.607  29.792 232.727  10.247   9.677 245.350

                      1                      2                      3
                      A                      A                      A
 Frequencies --     25.3906                29.5152                46.5041
 Red. masses --      6.1382                 7.2895                 4.2271
 Frc consts  --      0.0023                 0.0037                 0.0054
 IR Inten    --      0.6409                 1.0200                 0.4150

                      4                      5                      6
                      A                      A                      A
 Frequencies --     68.4655                83.9648                98.6888
 Red. masses --      3.8047                 5.9080                 4.3782
 Frc consts  --      0.0105                 0.0245                 0.0251
 IR Inten    --      0.8965                 3.9916                 6.4137

                      7                      8                      9
                      A                      A                      A
 Frequencies --    109.5434               136.0790               146.7802
 Red. masses --      8.8601                 7.0845                 4.4667
 Frc consts  --      0.0626                 0.0773                 0.0567
 IR Inten    --      5.0002                 3.0110                 0.4503

                     10                     11                     12
                      A                      A                      A
 Frequencies --    159.0664               200.8290               226.7391
 Red. masses --      7.7540                 3.0667                 1.6717
 Frc consts  --      0.1156                 0.0729                 0.0506
 IR Inten    --      0.6056                 1.3466                 1.2472

                     13                     14                     15
                      A                      A                      A
 Frequencies --    248.1161               263.6039               277.7352
 Red. masses --      1.7194                 4.3901                 2.6021
 Frc consts  --      0.0624                 0.1797                 0.1183
 IR Inten    --      1.5711                 2.5787                 1.0725

                     16                     17                     18
                      A                      A                      A
 Frequencies --    295.7605               327.2110               349.0978
 Red. masses --      2.9717                 3.5264                 2.4880
 Frc consts  --      0.1532                 0.2225                 0.1786
 IR Inten    --      0.5355                 2.7442                 2.9879

                     19                     20                     21
                      A                      A                      A
 Frequencies --    368.8171               394.7606               423.8541
 Red. masses --      3.0483                 2.8422                 2.7825
 Frc consts  --      0.2443                 0.2610                 0.2945
 IR Inten    --      6.7733                 0.2566                 0.7240

                     22                     23                     24
                      A                      A                      A
 Frequencies --    441.1496               507.1658               537.3678
 Red. masses --      2.4436                 3.2047                 2.9201
 Frc consts  --      0.2802                 0.4857                 0.4968
 IR Inten    --      6.3176                29.7587                 4.0778

                     25                     26                     27
                      A                      A                      A
 Frequencies --    543.7480               565.2251               587.8531
 Red. masses --      2.1927                 3.5817                 2.9906
 Frc consts  --      0.3820                 0.6742                 0.6089
 IR Inten    --     78.5801                13.2905                11.2391

                     28                     29                     30
                      A                      A                      A
 Frequencies --    596.0788               625.0783               640.5555
 Red. masses --      2.7253                 2.3581                 1.8997
 Frc consts  --      0.5705                 0.5429                 0.4593
 IR Inten    --     44.3235                58.6229                42.6609

                     31                     32                     33
                      A                      A                      A
 Frequencies --    653.0345               670.0366               713.3108
 Red. masses --      2.6689                 3.6542                 3.7264
 Frc consts  --      0.6706                 0.9666                 1.1171
 IR Inten    --     46.5533                 8.2489                95.2618

                     34                     35                     36
                      A                      A                      A
 Frequencies --    728.6921               740.7724               808.0990
 Red. masses --      3.7833                 2.7822                 2.6588
 Frc consts  --      1.1836                 0.8995                 1.0230
 IR Inten    --      5.6572                12.0336                16.3735

                     37                     38                     39
                      A                      A                      A
 Frequencies --    835.2122               848.8146               885.8551
 Red. masses --      2.8917                 1.8493                 2.6836
 Frc consts  --      1.1885                 0.7850                 1.2408
 IR Inten    --     16.5136                 0.9958                 4.8289

                     40                     41                     42
                      A                      A                      A
 Frequencies --    914.7149               951.0252               955.7862
 Red. masses --      1.8450                 2.1384                 1.7023
 Frc consts  --      0.9095                 1.1395                 0.9162
 IR Inten    --      6.1334                 3.1537                 6.5512

                     43                     44                     45
                      A                      A                      A
 Frequencies --    976.1840               981.3257               992.9331
 Red. masses --      2.0801                 1.8458                 1.7647
 Frc consts  --      1.1679                 1.0473                 1.0251
 IR Inten    --      5.0238                19.3831                 2.2148

                     46                     47                     48
                      A                      A                      A
 Frequencies --   1009.9583              1020.0806              1025.7116
 Red. masses --      2.3968                 2.3706                 1.9797
 Frc consts  --      1.4404                 1.4534                 1.2272
 IR Inten    --     12.7758                 2.8943                 1.6476

                     49                     50                     51
                      A                      A                      A
 Frequencies --   1054.3735              1086.3002              1120.5354
 Red. masses --      2.4405                 2.0134                 1.7050
 Frc consts  --      1.5985                 1.3998                 1.2613
 IR Inten    --      2.2048                 7.2237                41.3527

                     52                     53                     54
                      A                      A                      A
 Frequencies --   1170.3361              1180.5469              1186.6186
 Red. masses --      1.0690                 1.4123                 1.5932
 Frc consts  --      0.8627                 1.1597                 1.3217
 IR Inten    --      9.8211                39.2688               121.2344

                     55                     56                     57
                      A                      A                      A
 Frequencies --   1203.6433              1212.6770              1242.8116
 Red. masses --      1.3831                 2.4806                 1.1832
 Frc consts  --      1.1806                 2.1493                 1.0768
 IR Inten    --      9.8324                 7.9833                 8.0565

                     58                     59                     60
                      A                      A                      A
 Frequencies --   1244.6278              1255.2545              1264.0840
 Red. masses --      1.4506                 1.2531                 1.2681
 Frc consts  --      1.3240                 1.1633                 1.1938
 IR Inten    --     63.9535                 0.1644                 6.0360

                     61                     62                     63
                      A                      A                      A
 Frequencies --   1302.1261              1322.2265              1339.3964
 Red. masses --      1.3084                 1.3074                 1.3369
 Frc consts  --      1.3070                 1.3467                 1.4130
 IR Inten    --      8.3640                39.0240                 4.9380

                     64                     65                     66
                      A                      A                      A
 Frequencies --   1342.7434              1349.2462              1361.5284
 Red. masses --      1.2905                 1.2585                 1.4049
 Frc consts  --      1.3708                 1.3499                 1.5345
 IR Inten    --      6.6730                 8.1198                 4.9674

                     67                     68                     69
                      A                      A                      A
 Frequencies --   1363.4392              1374.0773              1401.1078
 Red. masses --      1.3695                 1.3532                 1.3990
 Frc consts  --      1.5000                 1.5053                 1.6182
 IR Inten    --      2.5710                25.0760                23.8465

                     70                     71                     72
                      A                      A                      A
 Frequencies --   1422.3774              1425.1724              1442.3861
 Red. masses --      2.7085                 1.9550                 1.2754
 Frc consts  --      3.2286                 2.3396                 1.5634
 IR Inten    --    161.2690                25.2090                19.1417

                     73                     74                     75
                      A                      A                      A
 Frequencies --   1482.6066              1488.9812              1499.4374
 Red. masses --      1.0843                 1.0840                 1.1698
 Frc consts  --      1.4043                 1.4160                 1.5496
 IR Inten    --      1.9638                11.5040                15.7231

                     76                     77                     78
                      A                      A                      A
 Frequencies --   1501.8127              1508.6323              1517.9217
 Red. masses --      1.3961                 1.1072                 1.0890
 Frc consts  --      1.8552                 1.4847                 1.4784
 IR Inten    --     45.1724                 1.5867                 9.1226

                     79                     80                     81
                      A                      A                      A
 Frequencies --   1524.0911              1530.5089              1533.9923
 Red. masses --      1.0929                 1.0884                 1.0639
 Frc consts  --      1.4958                 1.5022                 1.4750
 IR Inten    --     16.6324                 5.2659                 5.9394

                     82                     83                     84
                      A                      A                      A
 Frequencies --   1766.9797              1838.3120              3052.8773
 Red. masses --      7.1379                 9.4826                 1.0401
 Frc consts  --     13.1306                18.8805                 5.7112
 IR Inten    --    265.6947               210.2670                12.1113

                     85                     86                     87
                      A                      A                      A
 Frequencies --   3053.8998              3062.9874              3063.5161
 Red. masses --      1.0762                 1.0639                 1.0619
 Frc consts  --      5.9134                 5.8807                 5.8721
 IR Inten    --      9.0787                19.1324                20.0627

                     88                     89                     90
                      A                      A                      A
 Frequencies --   3064.3191              3070.9806              3075.9309
 Red. masses --      1.0624                 1.0708                 1.0617
 Frc consts  --      5.8779                 5.9502                 5.9184
 IR Inten    --      9.0913                39.1791                22.0090

                     91                     92                     93
                      A                      A                      A
 Frequencies --   3077.5229              3081.8185              3108.6640
 Red. masses --      1.0658                 1.0762                 1.1024
 Frc consts  --      5.9476                 6.0222                 6.2766
 IR Inten    --     13.5771                20.1052                15.3387

                     94                     95                     96
                      A                      A                      A
 Frequencies --   3114.1491              3119.4578              3121.3789
 Red. masses --      1.1074                 1.1051                 1.0989
 Frc consts  --      6.3273                 6.3358                 6.3082
 IR Inten    --      9.1747                 7.1326                33.5619

                     97                     98                     99
                      A                      A                      A
 Frequencies --   3130.5634              3137.5325              3141.5495
 Red. masses --      1.1021                 1.1044                 1.1038
 Frc consts  --      6.3640                 6.4052                 6.4183
 IR Inten    --     20.6752                 3.7567                21.4786

                    100                    101                    102
                      A                      A                      A
 Frequencies --   3155.3370              3574.8209              3660.1523
 Red. masses --      1.0943                 1.0752                 1.0637
 Frc consts  --      6.4190                 8.0958                 8.3957
 IR Inten    --      2.0810                19.5429                59.8681

 - Thermochemistry -
 -------------------
 Temperature   298.150 Kelvin.  Pressure   1.00000 Atm.
 Atom     1 has atomic number  6 and mass  12.00000

 Molecular mass:   277.08064 amu.
 Principal axes and moments of inertia in atomic units:
                           1         2         3
     Eigenvalues --  2629.687698402.000628857.66636
           X            0.99981   0.01738   0.00935
           Y           -0.01812   0.99611   0.08619
           Z           -0.00781  -0.08634   0.99624
 This molecule is an asymmetric top.
 Rotational symmetry number  1.
 Warning -- assumption of classical behavior for rotation
           may cause significant error
 Rotational temperatures (Kelvin)      0.03294     0.01031     0.00978
 Rotational constants (GHZ):           0.68629     0.21480     0.20375
 Zero-point vibrational energy     794109.0 (Joules/Mol)
                                  189.79661 (Kcal/Mol)
 Warning -- explicit consideration of  28 degrees of freedom as
           vibrations may cause significant error
 Vibrational temperatures:     36.53    42.47    66.91    98.51   120.81
          (Kelvin)            141.99   157.61   195.79   211.18   228.86
                              288.95   326.23   356.98   379.27   399.60
                              425.53   470.78   502.27   530.65   567.97
                              609.83   634.72   729.70   773.15   782.33
                              813.23   845.79   857.62   899.35   921.62
                              939.57   964.03  1026.30  1048.43  1065.81
                             1162.67  1201.68  1221.25  1274.55  1316.07
                             1368.31  1375.16  1404.51  1411.91  1428.61
                             1453.10  1467.67  1475.77  1517.01  1562.94
                             1612.20  1683.85  1698.54  1707.28  1731.77
                             1744.77  1788.13  1790.74  1806.03  1818.73
                             1873.47  1902.39  1927.09  1931.91  1941.26
                             1958.94  1961.68  1976.99  2015.88  2046.48
                             2050.51  2075.27  2133.14  2142.31  2157.36
                             2160.77  2170.59  2183.95  2192.83  2202.06
                             2207.07  2542.29  2644.92  4392.41  4393.88
                             4406.96  4407.72  4408.87  4418.46  4425.58
                             4427.87  4434.05  4472.67  4480.57  4488.20
                             4490.97  4504.18  4514.21  4519.99  4539.83
                             5143.37  5266.14

 Zero-point correction=                           0.302460 (Hartree/Particle)
 Thermal correction to Energy=                    0.320701
 Thermal correction to Enthalpy=                  0.321645
 Thermal correction to Gibbs Free Energy=         0.254684
 Sum of electronic and zero-point Energies=          -1507.223899
 Sum of electronic and thermal Energies=             -1507.205658
 Sum of electronic and thermal Enthalpies=           -1507.204714
 Sum of electronic and thermal Free Energies=        -1507.271675

                     E (Thermal)             CV                S
                      KCal/Mol        Cal/Mol-Kelvin    Cal/Mol-Kelvin
 Total                  201.243             68.504            140.932
 Electronic               0.000              0.000              0.000
 Translational            0.889              2.981             42.756
 Rotational               0.889              2.981             33.636
 Vibrational            199.465             62.542             64.539
 Vibration     1          0.593              1.985              6.160
 Vibration     2          0.593              1.984              5.862
 Vibration     3          0.595              1.979              4.961
 Vibration     4          0.598              1.969              4.197
 Vibration     5          0.601              1.960              3.796
 Vibration     6          0.604              1.950              3.480
 Vibration     7          0.606              1.942              3.277
 Vibration     8          0.614              1.917              2.858
 Vibration     9          0.617              1.906              2.714
 Vibration    10          0.621              1.892              2.561
 Vibration    11          0.638              1.839              2.125
 Vibration    12          0.650              1.800              1.905
 Vibration    13          0.662              1.766              1.744
 Vibration    14          0.670              1.740              1.638
 Vibration    15          0.679              1.715              1.548
 Vibration    16          0.690              1.682              1.441
 Vibration    17          0.711              1.621              1.274
 Vibration    18          0.726              1.577              1.170
 Vibration    19          0.741              1.536              1.085
 Vibration    20          0.762              1.481              0.982
 Vibration    21          0.786              1.418              0.879
 Vibration    22          0.801              1.380              0.823
 Vibration    23          0.862              1.234              0.640
 Vibration    24          0.892              1.167              0.571
 Vibration    25          0.899              1.153              0.557
 Vibration    26          0.921              1.106              0.514
 Vibration    27          0.945              1.058              0.471
 Vibration    28          0.954              1.040              0.456

 Optimization completed.
    -- Stationary point found.
 Normal termination of Gaussian 16 at Fri Dec 11 13:42:10 2020.

 ----------------------------------------------------------------------
 # B3LYP/6-311++G(d,p) empiricaldispersion=gd3bj scf=xqc pop=npa geom=c
 heck
 ----------------------------------------------------------------------

 ---------------------------------------
 CID_120534921_JID_7943_Energie_neutraal
 ---------------------------------------
 Structure from the checkpoint file:  "JID_7943.chk"
 Charge =  0 Multiplicity = 1

 SCF Done:  E(RB3LYP) =  -1507.79566377     A.U. after   15 cycles
 Normal termination of Gaussian 16 at Fri Dec 11 13:50:31 2020.

 ----------------------------------------------------------------------
 # B3LYP/6-311++G(d,p) empiricaldispersion=gd3bj scf=xqc pop=npa geom=c
 heck
 ----------------------------------------------------------------------

 -------------------------------------
 CID_120534921_JID_7943_Energie_kation
 -------------------------------------
 Structure from the checkpoint file:  "JID_7943.chk"
 Charge =  1 Multiplicity = 2

 SCF Done:  E(UB3LYP) =  -1507.50141918     A.U. after   32 cycles
 Normal termination of Gaussian 16 at Fri Dec 11 14:15:32 2020.
 Gaussian 16:  ES64L-G16RevA.03 25-Dec-2016

 ----------------------------------------------------------------------
 # B3LYP/6-311++G(d,p) empiricaldispersion=gd3bj scf=xqc pop=npa geom=c
 heck
 ----------------------------------------------------------------------

 ------------------------------------
 CID_120534921_JID_7943_Energie_anion
 ------------------------------------
 Structure from the checkpoint file:  "JID_7943.chk"
 Charge = -1 Multiplicity = 2

                         Standard orientation:
 ---------------------------------------------------------------------
 Center     Atomic      Atomic             Coordinates (Angstroms)
 Number     Number       Type             X           Y           Z
 ---------------------------------------------------------------------
      1          6           0       -2.761748   -2.683527    0.259489
      2          6           0       -2.058817   -1.491007   -0.393957
      3          6           0       -2.995345   -0.709800   -1.349727
      4          6           0       -3.974269    0.239912   -0.633485
      5          6           0       -3.218776    1.446338   -0.110075
      6          8           0       -2.517968    2.155159   -0.799668
      7          8           0       -3.366116    1.623822    1.222286
      8          7           0       -1.505701   -0.650555    0.668900
      9          6           0       -0.519635    0.296415    0.594738
     10          8           0       -0.386265    1.130065    1.488012
     11          6           0        0.417452    0.256550   -0.597715
     12          6           0        1.465154   -0.874675   -0.539250
     13          6           0        2.604846   -0.644130   -1.542765
     14         16           0        3.584853    0.881704   -1.259756
     15          6           0        4.153722    0.594099    0.461823
     16          6           0        3.022259    0.352156    1.456521
     17         16           0        2.125107   -1.215918    1.148329
     18          1           0       -3.614836   -2.356470    0.866449
     19          1           0       -2.070136   -3.225058    0.911607
     20          1           0       -3.139126   -3.372546   -0.502305
     21          1           0       -1.222455   -1.876782   -0.985728
     22          1           0       -2.400460   -0.101666   -2.038758
     23          1           0       -3.554669   -1.429908   -1.958192
     24          1           0       -4.711561    0.600258   -1.359119
     25          1           0       -4.516019   -0.254950    0.177056
     26          1           0       -2.680106    2.267191    1.491155
     27          1           0       -2.089622   -0.527432    1.488947
     28          1           0       -0.141040    0.167042   -1.536904
     29          1           0        0.922142    1.222924   -0.615467
     30          1           0        0.989539   -1.828161   -0.798405
     31          1           0        3.271951   -1.510740   -1.546626
     32          1           0        2.196203   -0.522813   -2.552991
     33          1           0        4.698597    1.507335    0.725745
     34          1           0        4.860267   -0.241962    0.478004
     35          1           0        2.302341    1.174862    1.471230
     36          1           0        3.433257    0.243826    2.466209
 ---------------------------------------------------------------------

 SCF Done:  E(UB3LYP) =  -1507.78863175     A.U. after   33 cycles
 SCF Done:  E(UB3LYP) =  -1507.78863175     a.u. after    1 cycles

 The electronic state is 2-A.
 Alpha  occ. eigenvalues --  -88.75560 -88.74866 -19.08051 -19.02090 -18.99425
 Alpha  occ. eigenvalues --  -14.23920 -10.21295 -10.17924 -10.12649 -10.12331
 Alpha  occ. eigenvalues --  -10.12320 -10.11676 -10.11627 -10.09292 -10.08515
 Alpha  occ. eigenvalues --  -10.07987 -10.07091  -7.84185  -7.83513  -5.80581
 Alpha  occ. eigenvalues --   -5.80220  -5.79904  -5.79555  -5.79543  -5.78858
 Alpha  occ. eigenvalues --   -1.01950  -0.94463  -0.92961  -0.83331  -0.76414
 Alpha  occ. eigenvalues --   -0.71099  -0.70311  -0.67584  -0.66088  -0.62888
 Alpha  occ. eigenvalues --   -0.58485  -0.54728  -0.54139  -0.53223  -0.50258
 Alpha  occ. eigenvalues --   -0.48193  -0.45658  -0.41457  -0.40309  -0.39700
 Alpha  occ. eigenvalues --   -0.39283  -0.39038  -0.38159  -0.37287  -0.36651
 Alpha  occ. eigenvalues --   -0.35453  -0.34545  -0.33766  -0.32382  -0.31960
 Alpha  occ. eigenvalues --   -0.31214  -0.30810  -0.29997  -0.29744  -0.29182
 Alpha  occ. eigenvalues --   -0.28582  -0.27677  -0.27422  -0.25151  -0.24811
 Alpha  occ. eigenvalues --   -0.24066  -0.23387  -0.23226  -0.21267  -0.19116
 Alpha  occ. eigenvalues --   -0.16720  -0.16166  -0.14937  -0.13607   0.04031
 Alpha virt. eigenvalues --    0.05962   0.06636   0.07473   0.07927   0.08371
 Alpha virt. eigenvalues --    0.08461   0.09047   0.09200   0.09689   0.09991
 Alpha virt. eigenvalues --    0.10143   0.10862   0.11251   0.11362   0.11618

  Beta  occ. eigenvalues --  -88.75560 -88.74865 -19.08043 -19.02078 -18.99410
  Beta  occ. eigenvalues --  -14.23920 -10.21266 -10.17907 -10.12625 -10.12325
  Beta  occ. eigenvalues --  -10.12297 -10.11675 -10.11601 -10.09274 -10.08508
  Beta  occ. eigenvalues --  -10.07951 -10.07049  -7.84184  -7.83511  -5.80580
  Beta  occ. eigenvalues --   -5.80218  -5.79902  -5.79554  -5.79542  -5.78856
  Beta  occ. eigenvalues --   -1.01921  -0.94435  -0.92937  -0.83310  -0.76390
  Beta  occ. eigenvalues --   -0.71052  -0.70282  -0.67563  -0.66033  -0.62859
  Beta  occ. eigenvalues --   -0.58409  -0.54706  -0.54099  -0.53161  -0.50217
  Beta  occ. eigenvalues --   -0.48143  -0.45616  -0.41400  -0.40260  -0.39657
  Beta  occ. eigenvalues --   -0.39243  -0.38989  -0.38122  -0.37265  -0.36610
  Beta  occ. eigenvalues --   -0.35392  -0.34509  -0.33739  -0.32361  -0.31920
  Beta  occ. eigenvalues --   -0.31176  -0.30764  -0.29960  -0.29705  -0.29136
  Beta  occ. eigenvalues --   -0.28553  -0.27637  -0.27368  -0.25096  -0.24754
  Beta  occ. eigenvalues --   -0.24051  -0.23329  -0.23191  -0.21245  -0.19099
  Beta  occ. eigenvalues --   -0.16702  -0.16139  -0.14925  -0.13598
  Beta virt. eigenvalues --    0.05943   0.06749   0.07453   0.07921   0.08153
  Beta virt. eigenvalues --    0.08440   0.08720   0.09264   0.09551   0.09936
  Beta virt. eigenvalues --    0.10170   0.10552   0.11232   0.11559   0.11631

 Mulliken charges and spin densities:
               1          2
     1  C    1.462660  -2.059776
     2  C   -0.489094   0.378498
     3  C    0.024596  -0.143282
     4  C    0.130474  -0.528956
     5  C   -0.046259  -0.201838
     6  O   -0.190646   0.019564
     7  O   -0.123881   0.023040
     8  N    0.100409  -0.041362
     9  C   -0.749525   0.456380
    10  O   -0.299500   0.006640
    11  C    0.496752  -1.307701
    12  C   -0.127017   1.143619
    13  C    0.096982  -1.219422
    14  S    0.201313   0.121858
    15  C   -0.513545  -0.231791
    16  C   -0.539666   0.087899
    17  S    0.298568  -0.203840
    18  H   -0.082586   0.218983
    19  H    0.004477   0.148204
    20  H   -0.459985   0.631052
    21  H   -0.227330   0.388181
    22  H   -0.155660   0.353280
    23  H   -0.772355   0.973384
    24  H   -0.212151   0.421441
    25  H    0.075858   0.104718
    26  H    0.291553   0.028132
    27  H    0.309870   0.018214
    28  H    0.542039  -0.386244
    29  H    0.130605   0.044984
    30  H   -0.501422   0.844560
    31  H    0.009379   0.229124
    32  H   -0.342447   0.548751
    33  H    0.150811   0.042484
    34  H    0.111580   0.062532
    35  H    0.248215  -0.027911
    36  H    0.146926   0.056599
 Sum of Mulliken charges =  -1.00000   1.00000

 Dipole moment (field-independent basis, Debye):
    X=              5.1134    Y=              4.6842    Z=              5.9663  Tot=              9.1480
 Quadrupole moment (field-independent basis, Debye-Ang):
   XX=           -184.8150   YY=           -170.8366   ZZ=           -161.1698
   XY=             -6.8378   XZ=             -7.5043   YZ=             -8.2609

 Summary of Natural Population Analysis:

                                       Natural Population
                Natural  -----------------------------------------------
    Atom  No    Charge         Core      Valence    Rydberg      Total
 -----------------------------------------------------------------------
      C    1   -0.28534      0.99964     2.27961    0.00609     3.28534
      C    2   -0.01596      0.99959     2.00232    0.01404     3.01596
      C    3   -0.19102      0.99960     2.18096    0.01047     3.19102
      C    4   -0.24186      0.99957     2.23285    0.00944     3.24186
      C    5    0.40760      0.99971     1.56544    0.02724     2.59240
      O    6   -0.30859      0.99986     3.30248    0.00624     4.30859
      O    7   -0.35016      0.99987     3.34394    0.00635     4.35016
      N    8   -0.32438      0.99966     2.81510    0.00962     3.82438
      C    9    0.35575      0.99966     1.61699    0.02760     2.64425
      O   10   -0.33394      0.99987     3.32860    0.00546     4.33394
      C   11   -0.24740      0.99954     2.23668    0.01118     3.24740
      C   12   -0.17412      0.99954     2.15751    0.01707     3.17412
      C   13   -0.25267      0.99955     2.23974    0.01338     3.25267
      S   14    0.08609      4.99963     2.89569    0.01858     7.91391
      C   15   -0.25453      0.99957     2.24563    0.00933     3.25453
      C   16   -0.26362      0.99957     2.25366    0.01039     3.26362
      S   17    0.09752      4.99961     2.88505    0.01782     7.90248
      H   18    0.09477      0.00000     0.40407    0.00116     0.40523
      H   19    0.10410      0.00000     0.39479    0.00110     0.39590
      H   20    0.10955      0.00000     0.38859    0.00186     0.39045
      H   21    0.10406      0.00000     0.39197    0.00397     0.39594
      H   22    0.10646      0.00000     0.39165    0.00190     0.39354
      H   23    0.10963      0.00000     0.38642    0.00395     0.39037
      H   24    0.11916      0.00000     0.37954    0.00130     0.38084
      H   25    0.10574      0.00000     0.39291    0.00136     0.39426
      H   26    0.24802      0.00000     0.24935    0.00263     0.25198
      H   27    0.19495      0.00000     0.30263    0.00242     0.30505
      H   28    0.11560      0.00000     0.38282    0.00158     0.38440
      H   29    0.11957      0.00000     0.37873    0.00170     0.38043
      H   30    0.11611      0.00000     0.38145    0.00244     0.38389
      H   31    0.10811      0.00000     0.39019    0.00169     0.39189
      H   32    0.11318      0.00000     0.38529    0.00153     0.38682
      H   33    0.10515      0.00000     0.39361    0.00124     0.39485
      H   34    0.10148      0.00000     0.39692    0.00160     0.39852
      H   35    0.11535      0.00000     0.38313    0.00153     0.38465
      H   36    0.10564      0.00000     0.39315    0.00122     0.39436
 =======================================================================
   * Total *    0.00000     24.99405    48.74946    0.25649    74.00000

 Normal termination of Gaussian 16 at Fri Dec 11 14:41:46 2020.
