 Gaussian 16, Revision A.03,

 -----------------------------------------------------------
 # opt freq B3LYP/6-31G(d) empiricaldispersion=gd3bj scf=xqc
 -----------------------------------------------------------

 ------------------------------
 CID_131970860_JID_953_neutraal
 ------------------------------
 Symbolic Z-matrix:
 Charge =  0 Multiplicity = 1

 SCF Done:  E(RB3LYP) =  -494.635493687     A.U. after   15 cycles
 SCF Done:  E(RB3LYP) =  -494.640947931     A.U. after   14 cycles
 SCF Done:  E(RB3LYP) =  -494.640942752     A.U. after   14 cycles
 SCF Done:  E(RB3LYP) =  -494.643836171     A.U. after   14 cycles
 SCF Done:  E(RB3LYP) =  -494.646484359     A.U. after   15 cycles
 SCF Done:  E(RB3LYP) =  -494.648846271     A.U. after   13 cycles
 SCF Done:  E(RB3LYP) =  -494.649399168     A.U. after   12 cycles
 SCF Done:  E(RB3LYP) =  -494.649716362     A.U. after   12 cycles
 SCF Done:  E(RB3LYP) =  -494.649964849     A.U. after   12 cycles
 SCF Done:  E(RB3LYP) =  -494.650114107     A.U. after   11 cycles
 SCF Done:  E(RB3LYP) =  -494.650191202     A.U. after   10 cycles
 SCF Done:  E(RB3LYP) =  -494.650203926     A.U. after   10 cycles
 SCF Done:  E(RB3LYP) =  -494.650208765     A.U. after   10 cycles
 SCF Done:  E(RB3LYP) =  -494.650209514     A.U. after    9 cycles
 SCF Done:  E(RB3LYP) =  -494.650209731     A.U. after    8 cycles
 SCF Done:  E(RB3LYP) =  -494.650209849     A.U. after    7 cycles
 Optimization completed.
    -- Stationary point found.
 Normal termination of Gaussian 16 at Tue Dec  8 13:34:33 2020.

 --------------------------------------------------------------------
 #N Geom=AllCheck Guess=TCheck SCRF=Check GenChk RB3LYP/6-31G(d) Freq
 --------------------------------------------------------------------

 Structure from the checkpoint file:  "JID_953.chk"
 ------------------------------
 CID_131970860_JID_953_neutraal
 ------------------------------
 Charge =  0 Multiplicity = 1

 SCF Done:  E(RB3LYP) =  -494.650209849     A.U. after    1 cycles

  Exact polarizability:  93.582   3.264  92.825  -6.123  -1.899  61.183
 Approx polarizability: 133.671  14.234 167.069 -11.389  -4.830  87.036

                      1                      2                      3
                      A                      A                      A
 Frequencies --     64.7037                72.3526                99.1406
 Red. masses --      4.8407                 6.2279                 3.3530
 Frc consts  --      0.0119                 0.0192                 0.0194
 IR Inten    --      0.2582                 6.6817                 0.9566

                      4                      5                      6
                      A                      A                      A
 Frequencies --    150.5450               161.1421               186.7845
 Red. masses --      1.0652                 1.4928                 2.0430
 Frc consts  --      0.0142                 0.0228                 0.0420
 IR Inten    --      0.4750                 2.0811                 0.3994

                      7                      8                      9
                      A                      A                      A
 Frequencies --    235.1890               293.4329               309.1311
 Red. masses --      4.8881                 2.6577                 2.8366
 Frc consts  --      0.1593                 0.1348                 0.1597
 IR Inten    --      2.0572                 3.4842                22.0638

                     10                     11                     12
                      A                      A                      A
 Frequencies --    326.6434               375.2345               452.2473
 Red. masses --      2.9042                 2.9669                 5.1466
 Frc consts  --      0.1826                 0.2461                 0.6202
 IR Inten    --     11.0311                 8.3245                16.0007

                     13                     14                     15
                      A                      A                      A
 Frequencies --    468.1490               525.6776               559.4102
 Red. masses --      1.3000                 3.1639                 2.5620
 Frc consts  --      0.1679                 0.5151                 0.4724
 IR Inten    --    157.9281                10.7323                 4.1349

                     16                     17                     18
                      A                      A                      A
 Frequencies --    565.9882               633.5962               672.6184
 Red. masses --      3.6522                 1.6725                 2.7962
 Frc consts  --      0.6893                 0.3956                 0.7453
 IR Inten    --     20.6050                80.0481                30.6256

                     19                     20                     21
                      A                      A                      A
 Frequencies --    708.2904               776.9611               805.1401
 Red. masses --      4.2906                 1.4871                 6.7257
 Frc consts  --      1.2682                 0.5289                 2.5688
 IR Inten    --      5.5616                94.8878                44.8156

                     22                     23                     24
                      A                      A                      A
 Frequencies --    885.8453               950.0812              1008.5204
 Red. masses --      2.8712                 1.3164                 1.5735
 Frc consts  --      1.3275                 0.7001                 0.9429
 IR Inten    --     49.5182                19.8437                 6.9328

                     25                     26                     27
                      A                      A                      A
 Frequencies --   1050.1898              1077.6622              1087.0030
 Red. masses --      1.5964                 1.7492                 1.4137
 Frc consts  --      1.0374                 1.1969                 0.9842
 IR Inten    --     33.5674                 8.1616                 2.0869

                     28                     29                     30
                      A                      A                      A
 Frequencies --   1123.5409              1195.3577              1230.3784
 Red. masses --      1.8260                 2.1384                 4.7070
 Frc consts  --      1.3581                 1.8002                 4.1983
 IR Inten    --     26.8000               116.7144               147.5359

                     31                     32                     33
                      A                      A                      A
 Frequencies --   1307.5030              1371.0997              1419.1210
 Red. masses --      3.5413                 1.9096                 1.4974
 Frc consts  --      3.5669                 2.1151                 1.7768
 IR Inten    --    234.5238                56.7198                60.0430

                     34                     35                     36
                      A                      A                      A
 Frequencies --   1428.2824              1440.7667              1449.1365
 Red. masses --      1.3790                 1.9123                 1.2666
 Frc consts  --      1.6575                 2.3388                 1.5671
 IR Inten    --     39.3712                29.4644                 6.2077

                     37                     38                     39
                      A                      A                      A
 Frequencies --   1496.0903              1504.2903              1514.2791
 Red. masses --      1.0568                 1.0472                 1.0538
 Frc consts  --      1.3937                 1.3962                 1.4237
 IR Inten    --     17.4995                 6.2990                11.8254

                     40                     41                     42
                      A                      A                      A
 Frequencies --   1534.3447              1653.5861              1722.2969
 Red. masses --      1.0617                 1.3093                 3.3544
 Frc consts  --      1.4726                 2.1094                 5.8625
 IR Inten    --     10.3940                20.6314               276.8419

                     43                     44                     45
                      A                      A                      A
 Frequencies --   1761.8593              1809.7735              3047.1363
 Red. masses --      8.9762                 8.4507                 1.0380
 Frc consts  --     16.4166                16.3076                 5.6787
 IR Inten    --    283.7920               315.8750                33.8329

                     46                     47                     48
                      A                      A                      A
 Frequencies --   3080.9074              3103.1833              3129.2488
 Red. masses --      1.0354                 1.0980                 1.1032
 Frc consts  --      5.7907                 6.2297                 6.3647
 IR Inten    --      2.0519                19.6557                15.0025

                     49                     50                     51
                      A                      A                      A
 Frequencies --   3151.7368              3179.6931              3180.1807
 Red. masses --      1.1010                 1.1036                 1.0898
 Frc consts  --      6.4439                 6.5741                 6.4940
 IR Inten    --      3.2785                10.0158                12.7757

                     52                     53                     54
                      A                      A                      A
 Frequencies --   3538.5883              3552.3011              3672.7672
 Red. masses --      1.0745                 1.0487                 1.0995
 Frc consts  --      7.9275                 7.7970                 8.7387
 IR Inten    --     33.7280                30.0483                42.1814

 - Thermochemistry -
 -------------------
 Temperature   298.150 Kelvin.  Pressure   1.00000 Atm.
 Atom     1 has atomic number  6 and mass  12.00000

 Molecular mass:   142.07423 amu.
 Principal axes and moments of inertia in atomic units:
                           1         2         3
     Eigenvalues --   993.676991727.230092149.46122
           X            0.99996  -0.00163  -0.00861
           Y            0.00148   0.99985  -0.01715
           Z            0.00863   0.01714   0.99982
 This molecule is an asymmetric top.
 Rotational symmetry number  1.
 Warning -- assumption of classical behavior for rotation
           may cause significant error
 Rotational temperatures (Kelvin)      0.08717     0.05015     0.04030
 Rotational constants (GHZ):           1.81623     1.04488     0.83962
 Zero-point vibrational energy     431248.6 (Joules/Mol)
                                  103.07088 (Kcal/Mol)
 Warning -- explicit consideration of  16 degrees of freedom as
           vibrations may cause significant error
 Vibrational temperatures:     93.09   104.10   142.64   216.60   231.85
          (Kelvin)            268.74   338.38   422.18   444.77   469.97
                              539.88   650.68   673.56   756.33   804.87
                              814.33   911.60   967.75  1019.07  1117.87
                             1158.42  1274.53  1366.95  1451.04  1510.99
                             1550.52  1563.95  1616.52  1719.85  1770.24
                             1881.21  1972.71  2041.80  2054.98  2072.94
                             2084.98  2152.54  2164.34  2178.71  2207.58
                             2379.14  2478.00  2534.92  2603.86  4384.15
                             4432.74  4464.79  4502.29  4534.65  4574.87
                             4575.57  5091.24  5110.97  5284.29

 Zero-point correction=                           0.164254 (Hartree/Particle)
 Thermal correction to Energy=                    0.175296
 Thermal correction to Enthalpy=                  0.176241
 Thermal correction to Gibbs Free Energy=         0.127646
 Sum of electronic and zero-point Energies=           -494.485956
 Sum of electronic and thermal Energies=              -494.474913
 Sum of electronic and thermal Enthalpies=            -494.473969
 Sum of electronic and thermal Free Energies=         -494.522564

                     E (Thermal)             CV                S
                      KCal/Mol        Cal/Mol-Kelvin    Cal/Mol-Kelvin
 Total                  110.000             39.807            102.277
 Electronic               0.000              0.000              0.000
 Translational            0.889              2.981             40.765
 Rotational               0.889              2.981             29.691
 Vibrational            108.223             33.845             31.821
 Vibration     1          0.597              1.971              4.308
 Vibration     2          0.598              1.967              4.088
 Vibration     3          0.604              1.950              3.471
 Vibration     4          0.618              1.902              2.665
 Vibration     5          0.622              1.890              2.536
 Vibration     6          0.632              1.858              2.260
 Vibration     7          0.655              1.787              1.839
 Vibration     8          0.688              1.686              1.454
 Vibration     9          0.698              1.656              1.367
 Vibration    10          0.710              1.622              1.277
 Vibration    11          0.746              1.523              1.058
 Vibration    12          0.811              1.356              0.789
 Vibration    13          0.825              1.321              0.743
 Vibration    14          0.881              1.193              0.597
 Vibration    15          0.915              1.119              0.525
 Vibration    16          0.922              1.105              0.512

                           ! Non-Optimized Parameters !
 Normal termination of Gaussian 16 at Tue Dec  8 13:38:23 2020.

 ----------------------------------------------------------------------
 # B3LYP/6-311++G(d,p) empiricaldispersion=gd3bj scf=xqc pop=npa geom=c
 heck
 ----------------------------------------------------------------------

 --------------------------------------
 CID_131970860_JID_953_Energie_neutraal
 --------------------------------------
 Structure from the checkpoint file:  "JID_953.chk"
 Charge =  0 Multiplicity = 1

 SCF Done:  E(RB3LYP) =  -494.808505097     A.U. after   15 cycles
 Normal termination of Gaussian 16 at Tue Dec  8 13:41:55 2020.

 ----------------------------------------------------------------------
 # B3LYP/6-311++G(d,p) empiricaldispersion=gd3bj scf=xqc pop=npa geom=c
 heck
 ----------------------------------------------------------------------

 ------------------------------------
 CID_131970860_JID_953_Energie_kation
 ------------------------------------
 Structure from the checkpoint file:  "JID_953.chk"
 Charge =  1 Multiplicity = 2

 SCF Done:  E(UB3LYP) =  -494.494170009     A.U. after   25 cycles
 Normal termination of Gaussian 16 at Tue Dec  8 13:47:54 2020.
 Gaussian 16:  ES64L-G16RevA.03 25-Dec-2016

 ----------------------------------------------------------------------
 # B3LYP/6-311++G(d,p) empiricaldispersion=gd3bj scf=xqc pop=npa geom=c
 heck
 ----------------------------------------------------------------------

 -----------------------------------
 CID_131970860_JID_953_Energie_anion
 -----------------------------------
 Structure from the checkpoint file:  "JID_953.chk"
 Charge = -1 Multiplicity = 2

                         Standard orientation:
 ---------------------------------------------------------------------
 Center     Atomic      Atomic             Coordinates (Angstroms)
 Number     Number       Type             X           Y           Z
 ---------------------------------------------------------------------
      1          6           0       -2.654209   -0.323004    0.815466
      2          6           0       -1.403318    0.125161    0.098241
      3          6           0       -1.244885    1.431430   -0.250020
      4          7           0       -0.207895    2.043176   -0.907955
      5          6           0       -0.523997   -0.956606   -0.355982
      6          8           0       -0.921118   -2.097122   -0.547848
      7          7           0        0.840440   -0.652252   -0.668558
      8          6           0        1.840859   -0.169299    0.200379
      9          8           0        3.007762   -0.308059   -0.117467
     10          6           0        1.419170    0.504839    1.486149
     11          1           0       -3.295376    0.529341    1.061383
     12          1           0       -2.414903   -0.846604    1.749349
     13          1           0       -3.225703   -1.025421    0.200010
     14          1           0       -2.026619    2.126863    0.049047
     15          1           0       -0.417760    2.914399   -1.374017
     16          1           0        0.447188    1.443015   -1.395500
     17          1           0        1.233867   -1.351367   -1.294905
     18          1           0        1.023794    1.502147    1.273191
     19          1           0        0.645072   -0.059468    2.012387
     20          1           0        2.307739    0.596956    2.111773
 ---------------------------------------------------------------------

 SCF Done:  E(UB3LYP) =  -494.808865915     A.U. after   31 cycles

 The electronic state is 2-A.
 Alpha  occ. eigenvalues --  -18.96780 -18.94330 -14.20753 -14.19109 -10.14797
 Alpha  occ. eigenvalues --  -10.11558 -10.06700 -10.04917 -10.03847 -10.02789
 Alpha  occ. eigenvalues --   -0.92225  -0.89396  -0.79047  -0.77040  -0.65212
 Alpha  occ. eigenvalues --   -0.61740  -0.54814  -0.50801  -0.46521  -0.41396
 Alpha  occ. eigenvalues --   -0.39785  -0.37470  -0.35150  -0.32768  -0.30258
 Alpha  occ. eigenvalues --   -0.29557  -0.29279  -0.28109  -0.27157  -0.26532
 Alpha  occ. eigenvalues --   -0.25459  -0.24140  -0.23041  -0.21352  -0.15985
 Alpha  occ. eigenvalues --   -0.13905  -0.11522  -0.08359   0.04994
 Alpha virt. eigenvalues --    0.07734   0.09153   0.10002   0.10904   0.12156
 Alpha virt. eigenvalues --    0.12531   0.13175   0.13831   0.14235   0.15156
 Alpha virt. eigenvalues --    0.16115   0.16176   0.17923   0.18363   0.18720

  Beta  occ. eigenvalues --  -18.96646 -18.94015 -14.20818 -14.19003 -10.14647
  Beta  occ. eigenvalues --  -10.11275 -10.06377 -10.04927 -10.03832 -10.02868
  Beta  occ. eigenvalues --   -0.91960  -0.88862  -0.78776  -0.76884  -0.65066
  Beta  occ. eigenvalues --   -0.61646  -0.54568  -0.50129  -0.46325  -0.41194
  Beta  occ. eigenvalues --   -0.39614  -0.37271  -0.34950  -0.32370  -0.29907
  Beta  occ. eigenvalues --   -0.29309  -0.29109  -0.28004  -0.27010  -0.26219
  Beta  occ. eigenvalues --   -0.25357  -0.23800  -0.21967  -0.20428  -0.15720
  Beta  occ. eigenvalues --   -0.13559  -0.11277  -0.07634
  Beta virt. eigenvalues --    0.08554   0.09537   0.10017   0.10359   0.11246
  Beta virt. eigenvalues --    0.12489   0.12826   0.13715   0.13819   0.14706
  Beta virt. eigenvalues --    0.15302   0.16123   0.16450   0.17944   0.18390

 Mulliken charges and spin densities:
               1          2
     1  C   -0.359425  -0.288924
     2  C    1.000948  -0.351886
     3  C    0.088719  -0.274758
     4  N   -0.260893  -0.127419
     5  C   -0.422191   0.286311
     6  O   -0.393428   0.107243
     7  N   -0.270770  -0.038394
     8  C    0.006488   0.150516
     9  O   -0.374751   0.046774
    10  C   -0.285733  -0.121178
    11  H    0.151623  -0.040716
    12  H    0.118523   0.006918
    13  H    0.155538  -0.005025
    14  H   -0.742061   0.875622
    15  H   -0.384332   0.671843
    16  H    0.235810   0.031991
    17  H    0.297253   0.009221
    18  H    0.137411   0.060626
    19  H    0.143161  -0.001273
    20  H    0.158110   0.002505
 Sum of Mulliken charges =  -1.00000   1.00000

 Dipole moment (field-independent basis, Debye):
    X=             -0.0645    Y=             -2.1987    Z=              2.0403  Tot=              3.0002
 Quadrupole moment (field-independent basis, Debye-Ang):
   XX=            -93.5105   YY=           -102.6883   ZZ=            -72.7101
   XY=              2.7651   XZ=             -0.3649   YZ=              2.3927

 Summary of Natural Population Analysis:

                                       Natural Population
                Natural  -----------------------------------------------
    Atom  No    Charge         Core      Valence    Rydberg      Total
 -----------------------------------------------------------------------
      C    1   -0.27948      0.99965     2.27390    0.00593     3.27948
      C    2   -0.14665      0.99947     2.13657    0.01062     3.14665
      C    3    0.09674      0.99950     1.88881    0.01495     2.90326
      N    4   -0.38986      0.99973     2.87884    0.01128     3.88986
      C    5    0.36414      0.99960     1.61161    0.02465     2.63586
      O    6   -0.29050      0.99988     3.28504    0.00558     4.29050
      N    7   -0.35937      0.99966     2.85007    0.00964     3.85937
      C    8    0.36547      0.99972     1.61180    0.02301     2.63453
      O    9   -0.30958      0.99987     3.30376    0.00595     4.30958
      C   10   -0.33952      0.99962     2.33516    0.00474     3.33952
      H   11    0.09290      0.00000     0.40640    0.00070     0.40710
      H   12    0.09230      0.00000     0.40670    0.00100     0.40770
      H   13    0.10078      0.00000     0.39796    0.00125     0.39922
      H   14    0.08382      0.00000     0.41418    0.00199     0.41618
      H   15    0.19148      0.00000     0.29805    0.01047     0.30852
      H   16    0.19348      0.00000     0.30435    0.00217     0.30652
      H   17    0.19643      0.00000     0.30141    0.00216     0.30357
      H   18    0.12394      0.00000     0.37466    0.00140     0.37606
      H   19    0.10953      0.00000     0.38968    0.00079     0.39047
      H   20    0.10394      0.00000     0.39522    0.00084     0.39606
 =======================================================================
   * Total *    0.00000      9.99668    27.86417    0.13914    38.00000

 Normal termination of Gaussian 16 at Tue Dec  8 13:58:09 2020.
