 Gaussian 16, Revision A.03,

 -----------------------------------------------------------
 # opt freq B3LYP/6-31G(d) empiricaldispersion=gd3bj scf=xqc
 -----------------------------------------------------------

 ------------------------------
 CID_63346211_JID_2833_neutraal
 ------------------------------
 Symbolic Z-matrix:
 Charge =  0 Multiplicity = 1

 SCF Done:  E(RB3LYP) =  -573.239548092     A.U. after   14 cycles
 SCF Done:  E(RB3LYP) =  -573.242928328     A.U. after   12 cycles
 SCF Done:  E(RB3LYP) =  -573.243435136     A.U. after   11 cycles
 SCF Done:  E(RB3LYP) =  -573.243557678     A.U. after   11 cycles
 SCF Done:  E(RB3LYP) =  -573.243619000     A.U. after   11 cycles
 SCF Done:  E(RB3LYP) =  -573.243666967     A.U. after   10 cycles
 SCF Done:  E(RB3LYP) =  -573.243709399     A.U. after   11 cycles
 SCF Done:  E(RB3LYP) =  -573.243725332     A.U. after   10 cycles
 SCF Done:  E(RB3LYP) =  -573.243730905     A.U. after    9 cycles
 SCF Done:  E(RB3LYP) =  -573.243731997     A.U. after    8 cycles
 SCF Done:  E(RB3LYP) =  -573.243732189     A.U. after    7 cycles
 Optimization completed.
    -- Stationary point found.
 Normal termination of Gaussian 16 at Wed Dec  9 18:04:02 2020.

 --------------------------------------------------------------------
 #N Geom=AllCheck Guess=TCheck SCRF=Check GenChk RB3LYP/6-31G(d) Freq
 --------------------------------------------------------------------

 Structure from the checkpoint file:  "JID_2833.chk"
 ------------------------------
 CID_63346211_JID_2833_neutraal
 ------------------------------
 Charge =  0 Multiplicity = 1

 SCF Done:  E(RB3LYP) =  -573.243732189     A.U. after    1 cycles

  Exact polarizability: 127.695   2.931  87.030   1.392  -3.975  84.866
 Approx polarizability: 165.303   3.158 118.884  -0.462 -17.059 145.122

                      1                      2                      3
                      A                      A                      A
 Frequencies --     27.1699                51.9659                67.8565
 Red. masses --      3.5871                 2.9724                 3.0647
 Frc consts  --      0.0016                 0.0047                 0.0083
 IR Inten    --      0.0407                 0.3611                 0.8820

                      4                      5                      6
                      A                      A                      A
 Frequencies --     85.6006               139.7982               178.3454
 Red. masses --      5.5420                 3.4469                 2.1538
 Frc consts  --      0.0239                 0.0397                 0.0404
 IR Inten    --      0.1828                 0.8061                 1.6464

                      7                      8                      9
                      A                      A                      A
 Frequencies --    215.4317               227.0730               230.5754
 Red. masses --      2.0277                 1.1060                 1.2701
 Frc consts  --      0.0554                 0.0336                 0.0398
 IR Inten    --      0.6283                 0.2419                 1.3666

                     10                     11                     12
                      A                      A                      A
 Frequencies --    252.2964               306.5995               322.9217
 Red. masses --      1.3806                 2.1351                 1.3154
 Frc consts  --      0.0518                 0.1183                 0.0808
 IR Inten    --      0.7989                17.1553                69.7186

                     13                     14                     15
                      A                      A                      A
 Frequencies --    342.0913               387.9826               406.2517
 Red. masses --      3.0619                 3.4272                 3.4274
 Frc consts  --      0.2111                 0.3040                 0.3333
 IR Inten    --      1.8174                28.2211                18.1347

                     16                     17                     18
                      A                      A                      A
 Frequencies --    446.4567               459.8663               522.6967
 Red. masses --      4.3513                 3.3666                 3.1669
 Frc consts  --      0.5110                 0.4195                 0.5098
 IR Inten    --      1.5053                 2.7134                 7.5756

                     19                     20                     21
                      A                      A                      A
 Frequencies --    657.0044               722.0303               760.9219
 Red. masses --      4.0537                 4.2225                 3.3090
 Frc consts  --      1.0309                 1.2970                 1.1288
 IR Inten    --      6.1142                 0.7474                 2.5364

                     22                     23                     24
                      A                      A                      A
 Frequencies --    778.3918               813.8253               838.5187
 Red. masses --      3.6682                 1.4611                 2.2970
 Frc consts  --      1.3095                 0.5702                 0.9516
 IR Inten    --      2.9803                 3.9032                 2.3583

                     25                     26                     27
                      A                      A                      A
 Frequencies --    907.3076               933.0102               982.4608
 Red. masses --     10.0959                 2.2048                 2.7302
 Frc consts  --      4.8967                 1.1308                 1.5527
 IR Inten    --     15.9174                23.8953                 3.5121

                     28                     29                     30
                      A                      A                      A
 Frequencies --    995.3213              1017.5428              1021.0569
 Red. masses --      1.4062                 3.5761                 2.5303
 Frc consts  --      0.8208                 2.1815                 1.5543
 IR Inten    --     16.1012                10.6111                 1.7920

                     31                     32                     33
                      A                      A                      A
 Frequencies --   1051.5215              1088.2778              1094.5693
 Red. masses --      2.9011                 1.8952                 1.8581
 Frc consts  --      1.8899                 1.3225                 1.3116
 IR Inten    --      6.9319                42.9829                 3.8458

                     34                     35                     36
                      A                      A                      A
 Frequencies --   1102.0675              1116.0868              1134.3395
 Red. masses --      2.2675                 1.6324                 2.6691
 Frc consts  --      1.6226                 1.1980                 2.0235
 IR Inten    --    113.5931                 0.3743                 8.6221

                     37                     38                     39
                      A                      A                      A
 Frequencies --   1189.4294              1260.3606              1289.7068
 Red. masses --      2.0792                 1.6496                 1.4026
 Frc consts  --      1.7331                 1.5439                 1.3745
 IR Inten    --     30.2364                 5.5286                 9.9411

                     40                     41                     42
                      A                      A                      A
 Frequencies --   1318.1949              1344.6312              1350.9848
 Red. masses --      3.2178                 1.3224                 1.4784
 Frc consts  --      3.2944                 1.4086                 1.5898
 IR Inten    --     21.4105                 5.6979                 8.9723

                     43                     44                     45
                      A                      A                      A
 Frequencies --   1360.7704              1393.8144              1405.8434
 Red. masses --      1.5892                 1.3918                 3.0978
 Frc consts  --      1.7338                 1.5931                 3.6073
 IR Inten    --     44.5073                 7.8788                56.7869

                     46                     47                     48
                      A                      A                      A
 Frequencies --   1430.2638              1435.9072              1439.0971
 Red. masses --      1.2111                 1.2178                 1.2968
 Frc consts  --      1.4597                 1.4794                 1.5823
 IR Inten    --     19.4544                11.2886                13.1556

                     49                     50                     51
                      A                      A                      A
 Frequencies --   1445.7094              1505.8392              1517.7282
 Red. masses --      1.2731                 1.0908                 1.0566
 Frc consts  --      1.5678                 1.4573                 1.4340
 IR Inten    --     25.8728                 3.4464                 1.4816

                     52                     53                     54
                      A                      A                      A
 Frequencies --   1524.7327              1526.5907              1527.0092
 Red. masses --      1.0625                 1.0426                 1.0461
 Frc consts  --      1.4554                 1.4316                 1.4371
 IR Inten    --      1.3675                 6.1768                14.7343

                     55                     56                     57
                      A                      A                      A
 Frequencies --   1532.4826              1536.7509              1573.7177
 Red. masses --      1.0554                 1.1021                 5.8167
 Frc consts  --      1.4604                 1.5334                 8.4875
 IR Inten    --      5.3622                10.2195                 4.5207

                     58                     59                     60
                      A                      A                      A
 Frequencies --   1634.4072              3044.4624              3057.4615
 Red. masses --      8.6295                 1.0428                 1.0830
 Frc consts  --     13.5817                 5.6945                 5.9646
 IR Inten    --    103.7376                11.1311                 5.3321

                     61                     62                     63
                      A                      A                      A
 Frequencies --   3059.2067              3061.7561              3067.5002
 Red. masses --      1.0521                 1.0472                 1.0359
 Frc consts  --      5.8014                 5.7840                 5.7432
 IR Inten    --     11.7966                25.6102                16.7917

                     64                     65                     66
                      A                      A                      A
 Frequencies --   3084.9219              3112.6930              3118.7059
 Red. masses --      1.0850                 1.0989                 1.0952
 Frc consts  --      6.0836                 6.2728                 6.2764
 IR Inten    --     16.8243                 3.1348                27.2148

                     67                     68                     69
                      A                      A                      A
 Frequencies --   3130.6676              3135.6070              3142.2524
 Red. masses --      1.1036                 1.1033                 1.1033
 Frc consts  --      6.3730                 6.3910                 6.4185
 IR Inten    --     32.0399                21.0695                29.0608

                     70                     71                     72
                      A                      A                      A
 Frequencies --   3142.8486              3159.6826              3716.9343
 Red. masses --      1.1030                 1.1020                 1.0658
 Frc consts  --      6.4188                 6.4822                 8.6756
 IR Inten    --     22.3572                11.0984                11.5593

 - Thermochemistry -
 -------------------
 Temperature   298.150 Kelvin.  Pressure   1.00000 Atm.
 Atom     1 has atomic number  6 and mass  12.00000

 Molecular mass:   170.10553 amu.
 Principal axes and moments of inertia in atomic units:
                           1         2         3
     Eigenvalues --   971.842873550.681693978.00805
           X            0.99984   0.01800  -0.00224
           Y           -0.01791   0.99919   0.03612
           Z            0.00289  -0.03608   0.99934
 This molecule is an asymmetric top.
 Rotational symmetry number  1.
 Warning -- assumption of classical behavior for rotation
           may cause significant error
 Rotational temperatures (Kelvin)      0.08912     0.02439     0.02177
 Rotational constants (GHZ):           1.85703     0.50828     0.45368
 Zero-point vibrational energy     581767.4 (Joules/Mol)
                                  139.04573 (Kcal/Mol)
 Warning -- explicit consideration of  18 degrees of freedom as
           vibrations may cause significant error
 Vibrational temperatures:     39.09    74.77    97.63   123.16   201.14
          (Kelvin)            256.60   309.96   326.71   331.75   363.00
                              441.13   464.61   492.19   558.22   584.51
                              642.35   661.65   752.04   945.28  1038.84
                             1094.80  1119.93  1170.91  1206.44  1305.41
                             1342.39  1413.54  1432.05  1464.02  1469.07
                             1512.90  1565.79  1574.84  1585.63  1605.80
                             1632.06  1711.32  1813.38  1855.60  1896.59
                             1934.62  1943.77  1957.85  2005.39  2022.70
                             2057.83  2065.95  2070.54  2080.05  2166.57
                             2183.67  2193.75  2196.42  2197.03  2204.90
                             2211.04  2264.23  2351.55  4380.30  4399.01
                             4401.52  4405.18  4413.45  4438.51  4478.47
                             4487.12  4504.33  4511.44  4521.00  4521.86
                             4546.08  5347.84

 Zero-point correction=                           0.221583 (Hartree/Particle)
 Thermal correction to Energy=                    0.234639
 Thermal correction to Enthalpy=                  0.235583
 Thermal correction to Gibbs Free Energy=         0.181155
 Sum of electronic and zero-point Energies=           -573.022149
 Sum of electronic and thermal Energies=              -573.009093
 Sum of electronic and thermal Enthalpies=            -573.008149
 Sum of electronic and thermal Free Energies=         -573.062577

                     E (Thermal)             CV                S
                      KCal/Mol        Cal/Mol-Kelvin    Cal/Mol-Kelvin
 Total                  147.238             47.222            114.553
 Electronic               0.000              0.000              0.000
 Translational            0.889              2.981             41.302
 Rotational               0.889              2.981             30.996
 Vibrational            145.461             41.260             42.256
 Vibration     1          0.593              1.984              6.026
 Vibration     2          0.596              1.977              4.741
 Vibration     3          0.598              1.970              4.215
 Vibration     4          0.601              1.959              3.758
 Vibration     5          0.615              1.914              2.807
 Vibration     6          0.629              1.869              2.346
 Vibration     7          0.645              1.817              1.997
 Vibration     8          0.651              1.800              1.902
 Vibration     9          0.652              1.794              1.874
 Vibration    10          0.664              1.759              1.714
 Vibration    11          0.697              1.661              1.381
 Vibration    12          0.708              1.630              1.295
 Vibration    13          0.721              1.591              1.202
 Vibration    14          0.756              1.496              1.008
 Vibration    15          0.771              1.457              0.940
 Vibration    16          0.806              1.369              0.807
 Vibration    17          0.818              1.339              0.766
 Vibration    18          0.878              1.200              0.604

                           ! Non-Optimized Parameters !
 Normal termination of Gaussian 16 at Wed Dec  9 18:10:01 2020.

 ----------------------------------------------------------------------
 # B3LYP/6-311++G(d,p) empiricaldispersion=gd3bj scf=xqc pop=npa geom=c
 heck
 ----------------------------------------------------------------------

 --------------------------------------
 CID_63346211_JID_2833_Energie_neutraal
 --------------------------------------
 Structure from the checkpoint file:  "JID_2833.chk"
 Charge =  0 Multiplicity = 1

 SCF Done:  E(RB3LYP) =  -573.412040274     A.U. after   15 cycles
 Normal termination of Gaussian 16 at Wed Dec  9 18:12:31 2020.

 ----------------------------------------------------------------------
 # B3LYP/6-311++G(d,p) empiricaldispersion=gd3bj scf=xqc pop=npa geom=c
 heck
 ----------------------------------------------------------------------

 ------------------------------------
 CID_63346211_JID_2833_Energie_kation
 ------------------------------------
 Structure from the checkpoint file:  "JID_2833.chk"
 Charge =  1 Multiplicity = 2

 SCF Done:  E(UB3LYP) =  -573.062632649     A.U. after   26 cycles
 Normal termination of Gaussian 16 at Wed Dec  9 18:18:08 2020.
 Gaussian 16:  ES64L-G16RevA.03 25-Dec-2016

 ----------------------------------------------------------------------
 # B3LYP/6-311++G(d,p) empiricaldispersion=gd3bj scf=xqc pop=npa geom=c
 heck
 ----------------------------------------------------------------------

 -----------------------------------
 CID_63346211_JID_2833_Energie_anion
 -----------------------------------
 Structure from the checkpoint file:  "JID_2833.chk"
 Charge = -1 Multiplicity = 2

                         Standard orientation:
 ---------------------------------------------------------------------
 Center     Atomic      Atomic             Coordinates (Angstroms)
 Number     Number       Type             X           Y           Z
 ---------------------------------------------------------------------
      1          6           0        3.716305    1.340079   -0.423093
      2          6           0        3.446622   -0.158844   -0.223466
      3          6           0        2.006390   -0.431337    0.067085
      4          7           0        1.603584   -0.978222    1.186877
      5          8           0        0.197271   -1.023986    1.035059
      6          6           0       -0.077592   -0.489760   -0.170044
      7          7           0        0.988326   -0.105209   -0.812467
      8          6           0       -1.508359   -0.379824   -0.580130
      9          6           0       -2.188325   -1.757237   -0.630975
     10          6           0       -2.276507    0.595109    0.355920
     11          6           0       -1.607450    1.963102    0.467803
     12          8           0       -3.630530    0.715427   -0.070097
     13          1           0        3.097639    1.736649   -1.233613
     14          1           0        4.768310    1.510058   -0.673463
     15          1           0        3.486149    1.901961    0.488332
     16          1           0        3.723879   -0.706871   -1.132417
     17          1           0        4.047457   -0.558978    0.598735
     18          1           0       -1.493970    0.062585   -1.584139
     19          1           0       -2.143234   -2.245271    0.347875
     20          1           0       -3.237814   -1.632088   -0.905816
     21          1           0       -1.700663   -2.409227   -1.362257
     22          1           0       -2.337510    0.135052    1.348152
     23          1           0       -1.491730    2.422286   -0.523099
     24          1           0       -2.220560    2.623448    1.087873
     25          1           0       -0.611605    1.890888    0.916007
     26          1           0       -3.630156    1.234268   -0.891323
 ---------------------------------------------------------------------

 SCF Done:  E(UB3LYP) =  -573.399843512     A.U. after   32 cycles

 The electronic state is 2-A.
 Alpha  occ. eigenvalues --  -19.10223 -19.02181 -14.25032 -14.20855 -10.16219
 Alpha  occ. eigenvalues --  -10.12913 -10.12905 -10.09334 -10.08318 -10.06567
 Alpha  occ. eigenvalues --  -10.06332 -10.06295  -1.05013  -0.92667  -0.82893
 Alpha  occ. eigenvalues --   -0.77351  -0.69894  -0.67179  -0.63806  -0.56048
 Alpha  occ. eigenvalues --   -0.55500  -0.52833  -0.49982  -0.46836  -0.40508
 Alpha  occ. eigenvalues --   -0.39757  -0.37973  -0.36519  -0.35280  -0.34198
 Alpha  occ. eigenvalues --   -0.33196  -0.32685  -0.31346  -0.28712  -0.28359
 Alpha  occ. eigenvalues --   -0.27640  -0.26809  -0.26081  -0.25896  -0.25483
 Alpha  occ. eigenvalues --   -0.23020  -0.22704  -0.21568  -0.19225  -0.18912
 Alpha  occ. eigenvalues --   -0.16878   0.04596
 Alpha virt. eigenvalues --    0.06328   0.07402   0.08125   0.08816   0.09220
 Alpha virt. eigenvalues --    0.09615   0.10283   0.11390   0.11521   0.11749
 Alpha virt. eigenvalues --    0.12231   0.13485   0.13709   0.14462   0.14929

  Beta  occ. eigenvalues --  -19.10119 -19.02128 -14.24890 -14.20868 -10.16113
  Beta  occ. eigenvalues --  -10.12889 -10.12888 -10.09328 -10.08312 -10.06539
  Beta  occ. eigenvalues --  -10.06308 -10.06251  -1.04836  -0.92548  -0.82818
  Beta  occ. eigenvalues --   -0.77161  -0.69831  -0.67101  -0.63751  -0.55961
  Beta  occ. eigenvalues --   -0.55392  -0.52724  -0.49905  -0.46742  -0.40419
  Beta  occ. eigenvalues --   -0.39529  -0.37799  -0.36432  -0.35192  -0.34146
  Beta  occ. eigenvalues --   -0.33126  -0.32589  -0.31289  -0.28617  -0.28280
  Beta  occ. eigenvalues --   -0.27582  -0.26730  -0.26020  -0.25841  -0.25437
  Beta  occ. eigenvalues --   -0.22875  -0.22630  -0.21332  -0.19064  -0.18706
  Beta  occ. eigenvalues --   -0.16498
  Beta virt. eigenvalues --    0.07085   0.07669   0.08078   0.08826   0.09264
  Beta virt. eigenvalues --    0.09538   0.10113   0.10564   0.11556   0.11926
  Beta virt. eigenvalues --    0.12081   0.12711   0.13632   0.13931   0.14641

 Mulliken charges and spin densities:
               1          2
     1  C    0.682988  -1.149318
     2  C   -1.128225   1.080559
     3  C    1.885346  -1.095027
     4  N   -0.382006   0.079613
     5  O    0.241268   0.019937
     6  C    0.013723  -1.259581
     7  N   -0.049841   0.139783
     8  C   -0.988205   0.964759
     9  C    0.258492  -0.837698
    10  C   -0.622727   0.441545
    11  C    0.640049  -1.121155
    12  O   -0.172614  -0.042178
    13  H    0.052618   0.102861
    14  H   -0.743723   0.903059
    15  H   -0.018951   0.146994
    16  H   -0.025172   0.191431
    17  H    0.051033   0.100172
    18  H   -0.216624   0.436538
    19  H    0.122523   0.023235
    20  H   -0.233841   0.426790
    21  H   -0.054787   0.201349
    22  H    0.136715   0.047858
    23  H   -0.226403   0.386455
    24  H   -0.129737   0.289347
    25  H    0.136811   0.034543
    26  H   -0.228711   0.488132
 Sum of Mulliken charges =  -1.00000   1.00000

 Dipole moment (field-independent basis, Debye):
    X=             -0.2874    Y=             -2.6869    Z=              2.7509  Tot=              3.8561
 Quadrupole moment (field-independent basis, Debye-Ang):
   XX=           -159.1122   YY=           -105.3102   ZZ=           -102.7306
   XY=             -2.1793   XZ=             -3.2181   YZ=              5.3250

 Summary of Natural Population Analysis:

                                       Natural Population
                Natural  -----------------------------------------------
    Atom  No    Charge         Core      Valence    Rydberg      Total
 -----------------------------------------------------------------------
      C    1   -0.28136      0.99966     2.27704    0.00465     3.28136
      C    2   -0.21080      0.99959     2.20132    0.00989     3.21080
      C    3    0.17868      0.99963     1.80299    0.01869     2.82132
      N    4   -0.08125      0.99966     2.57013    0.01146     3.58125
      O    5   -0.17137      0.99985     3.16394    0.00758     4.17137
      C    6    0.30810      0.99959     1.67069    0.02162     2.69190
      N    7   -0.27554      0.99967     2.76688    0.00900     3.77554
      C    8   -0.15132      0.99953     2.13893    0.01286     3.15132
      C    9   -0.28170      0.99965     2.27546    0.00660     3.28170
      C   10    0.07278      0.99956     1.91411    0.01355     2.92722
      C   11   -0.30022      0.99964     2.29483    0.00575     3.30022
      O   12   -0.37058      0.99990     3.36329    0.00739     4.37058
      H   13    0.10448      0.00000     0.39424    0.00128     0.39552
      H   14    0.10080      0.00000     0.39652    0.00267     0.39920
      H   15    0.09715      0.00000     0.40169    0.00116     0.40285
      H   16    0.10653      0.00000     0.39221    0.00126     0.39347
      H   17    0.10572      0.00000     0.39301    0.00127     0.39428
      H   18    0.11220      0.00000     0.38562    0.00219     0.38780
      H   19    0.09947      0.00000     0.39946    0.00107     0.40053
      H   20    0.11111      0.00000     0.38775    0.00114     0.38889
      H   21    0.10065      0.00000     0.39856    0.00079     0.39935
      H   22    0.08618      0.00000     0.41184    0.00198     0.41382
      H   23    0.10125      0.00000     0.39735    0.00140     0.39875
      H   24    0.10294      0.00000     0.39622    0.00084     0.39706
      H   25    0.10567      0.00000     0.39330    0.00103     0.39433
      H   26    0.23045      0.00000     0.25976    0.00979     0.26955
 =======================================================================
   * Total *   -0.00000     11.99593    33.84714    0.15693    46.00000

 Normal termination of Gaussian 16 at Wed Dec  9 18:25:31 2020.
