 Gaussian 16, Revision A.03,

 -----------------------------------------------------------
 # opt freq B3LYP/6-31G(d) empiricaldispersion=gd3bj scf=xqc
 -----------------------------------------------------------

 -------------------------------
 CID_109338717_JID_9922_neutraal
 -------------------------------
 Symbolic Z-matrix:
 Charge =  0 Multiplicity = 1

 SCF Done:  E(RB3LYP) =  -841.074096604     A.U. after   15 cycles
 SCF Done:  E(RB3LYP) =  -841.081520688     A.U. after   13 cycles
 SCF Done:  E(RB3LYP) =  -841.083549670     A.U. after   13 cycles
 SCF Done:  E(RB3LYP) =  -841.085690208     A.U. after   13 cycles
 SCF Done:  E(RB3LYP) =  -841.086634752     A.U. after   12 cycles
 SCF Done:  E(RB3LYP) =  -841.087177182     A.U. after   12 cycles
 SCF Done:  E(RB3LYP) =  -841.087510639     A.U. after   12 cycles
 SCF Done:  E(RB3LYP) =  -841.087658874     A.U. after   11 cycles
 SCF Done:  E(RB3LYP) =  -841.087827803     A.U. after   12 cycles
 SCF Done:  E(RB3LYP) =  -841.087877976     A.U. after   11 cycles
 SCF Done:  E(RB3LYP) =  -841.087948238     A.U. after    9 cycles
 SCF Done:  E(RB3LYP) =  -841.087948460     A.U. after    8 cycles
 SCF Done:  E(RB3LYP) =  -841.087948520     A.U. after    8 cycles
 SCF Done:  E(RB3LYP) =  -841.087948541     A.U. after    7 cycles
 SCF Done:  E(RB3LYP) =  -841.087948542     A.U. after    7 cycles
 Optimization completed.
    -- Stationary point found.
 Normal termination of Gaussian 16 at Sat Dec 12 10:16:45 2020.

 --------------------------------------------------------------------
 #N Geom=AllCheck Guess=TCheck SCRF=Check GenChk RB3LYP/6-31G(d) Freq
 --------------------------------------------------------------------

 Structure from the checkpoint file:  "JID_9922.chk"
 -------------------------------
 CID_109338717_JID_9922_neutraal
 -------------------------------
 Charge =  0 Multiplicity = 1

 SCF Done:  E(RB3LYP) =  -841.087948542     A.U. after    1 cycles

  Exact polarizability: 258.959  -5.564 165.416   3.352   1.811 117.900
 Approx polarizability: 318.062 -17.595 273.540   7.067   1.707 180.371

                      1                      2                      3
                      A                      A                      A
 Frequencies --     16.7748                35.9261                50.4008
 Red. masses --      4.3004                 3.2596                 4.1012
 Frc consts  --      0.0007                 0.0025                 0.0061
 IR Inten    --      1.7054                 0.5407                 0.9937

                      4                      5                      6
                      A                      A                      A
 Frequencies --     56.2688                67.6737                95.6646
 Red. masses --      3.3781                 4.7932                 3.8508
 Frc consts  --      0.0063                 0.0129                 0.0208
 IR Inten    --      0.0418                 1.1866                 2.1411

                      7                      8                      9
                      A                      A                      A
 Frequencies --    128.7859               145.8614               185.4215
 Red. masses --      3.9571                 3.7299                 5.0696
 Frc consts  --      0.0387                 0.0468                 0.1027
 IR Inten    --      2.1901                 5.0116                 1.7183

                     10                     11                     12
                      A                      A                      A
 Frequencies --    199.4658               206.0531               236.1378
 Red. masses --      1.2322                 3.3258                 1.0891
 Frc consts  --      0.0289                 0.0832                 0.0358
 IR Inten    --      0.5735                 4.1321                 0.0486

                     13                     14                     15
                      A                      A                      A
 Frequencies --    237.7890               243.8334               266.5119
 Red. masses --      3.7112                 2.1192                 1.1522
 Frc consts  --      0.1236                 0.0742                 0.0482
 IR Inten    --      0.7789                 1.5061                 0.1193

                     16                     17                     18
                      A                      A                      A
 Frequencies --    308.4710               334.4358               339.5044
 Red. masses --      3.5767                 2.9505                 2.4723
 Frc consts  --      0.2005                 0.1944                 0.1679
 IR Inten    --      7.5796                 2.0406                 2.3378

                     19                     20                     21
                      A                      A                      A
 Frequencies --    371.2685               385.8622               411.2023
 Red. masses --      2.7418                 2.4618                 2.9293
 Frc consts  --      0.2227                 0.2160                 0.2918
 IR Inten    --      2.6403                 2.5444                 8.3049

                     22                     23                     24
                      A                      A                      A
 Frequencies --    417.7367               428.8171               442.6661
 Red. masses --      1.4000                 2.1965                 2.6823
 Frc consts  --      0.1439                 0.2380                 0.3097
 IR Inten    --     95.4442                 6.5828                 1.5901

                     25                     26                     27
                      A                      A                      A
 Frequencies --    446.9670               485.0808               500.4221
 Red. masses --      2.8615                 2.6298                 2.3999
 Frc consts  --      0.3368                 0.3646                 0.3541
 IR Inten    --      0.9321                 3.6576                 4.3546

                     28                     29                     30
                      A                      A                      A
 Frequencies --    544.7531               603.0175               639.7297
 Red. masses --      4.1509                 4.0461                 5.1745
 Frc consts  --      0.7258                 0.8669                 1.2477
 IR Inten    --      7.8280                 9.2253                 4.0128

                     31                     32                     33
                      A                      A                      A
 Frequencies --    680.2525               703.3206               753.9557
 Red. masses --      6.0715                 3.0089                 4.8107
 Frc consts  --      1.6553                 0.8769                 1.6112
 IR Inten    --      7.2791                15.2013                 7.2794

                     34                     35                     36
                      A                      A                      A
 Frequencies --    761.6472               796.3459               802.5503
 Red. masses --      8.5564                 3.1621                 3.2086
 Frc consts  --      2.9245                 1.1815                 1.2176
 IR Inten    --     15.3872                 1.3476                 2.9630

                     37                     38                     39
                      A                      A                      A
 Frequencies --    852.8192               865.0893               885.4146
 Red. masses --      2.4914                 2.7393                 1.4611
 Frc consts  --      1.0676                 1.2078                 0.6749
 IR Inten    --      1.2324                 2.3022                10.3490

                     40                     41                     42
                      A                      A                      A
 Frequencies --    890.4131               900.8987               904.9069
 Red. masses --      1.7811                 1.9970                 2.6064
 Frc consts  --      0.8320                 0.9549                 1.2575
 IR Inten    --     13.9862                13.1698                 9.6461

                     43                     44                     45
                      A                      A                      A
 Frequencies --    940.1280               945.6034               966.9223
 Red. masses --      2.0603                 1.3336                 1.4891
 Frc consts  --      1.0729                 0.7026                 0.8203
 IR Inten    --      0.8760                 6.2030                 2.6017

                     46                     47                     48
                      A                      A                      A
 Frequencies --    984.8528               987.9682               999.3357
 Red. masses --      1.7781                 1.4621                 1.9630
 Frc consts  --      1.0161                 0.8408                 1.1550
 IR Inten    --      6.1896                 0.4529                 4.1126

                     49                     50                     51
                      A                      A                      A
 Frequencies --   1003.2535              1026.8991              1038.7108
 Red. masses --      5.4122                 1.6626                 2.3830
 Frc consts  --      3.2095                 1.0330                 1.5148
 IR Inten    --     20.7293                 0.9830                61.1737

                     52                     53                     54
                      A                      A                      A
 Frequencies --   1066.3788              1083.9768              1142.2685
 Red. masses --      1.9925                 1.7097                 1.4008
 Frc consts  --      1.3350                 1.1836                 1.0769
 IR Inten    --      4.4694                12.2664                23.3175

                     55                     56                     57
                      A                      A                      A
 Frequencies --   1149.4834              1159.3530              1165.7051
 Red. masses --      1.7832                 2.0533                 1.8087
 Frc consts  --      1.3882                 1.6260                 1.4481
 IR Inten    --     45.6849                18.5206                 7.9867

                     58                     59                     60
                      A                      A                      A
 Frequencies --   1181.3993              1196.2571              1210.6723
 Red. masses --      1.9887                 2.1772                 2.0882
 Frc consts  --      1.6354                 1.8357                 1.8034
 IR Inten    --     39.7921                 0.2653                94.0015

                     61                     62                     63
                      A                      A                      A
 Frequencies --   1240.0281              1269.9882              1275.8215
 Red. masses --      1.3892                 2.7832                 2.0260
 Frc consts  --      1.2586                 2.6448                 1.9430
 IR Inten    --      4.7970                 8.6236                23.4560

                     64                     65                     66
                      A                      A                      A
 Frequencies --   1299.1257              1309.1630              1318.6850
 Red. masses --      2.0759                 1.2501                 3.1468
 Frc consts  --      2.0643                 1.2623                 3.2241
 IR Inten    --     85.5097                 3.6332                61.6372

                     67                     68                     69
                      A                      A                      A
 Frequencies --   1350.7855              1360.1842              1373.4707
 Red. masses --      1.6886                 1.6152                 1.3137
 Frc consts  --      1.8153                 1.7606                 1.4601
 IR Inten    --     53.1266                 6.3596                 4.2320

                     70                     71                     72
                      A                      A                      A
 Frequencies --   1379.4445              1388.0806              1393.5553
 Red. masses --      1.7886                 1.4836                 1.3131
 Frc consts  --      2.0053                 1.6842                 1.5024
 IR Inten    --     29.3404                13.1673                11.3942

                     73                     74                     75
                      A                      A                      A
 Frequencies --   1402.0945              1407.6487              1421.0494
 Red. masses --      1.4191                 1.4807                 1.3308
 Frc consts  --      1.6437                 1.7287                 1.5833
 IR Inten    --      3.3152                 4.2096                 7.4805

                     76                     77                     78
                      A                      A                      A
 Frequencies --   1425.7242              1435.4919              1446.1679
 Red. masses --      1.2772                 1.6244                 1.2564
 Frc consts  --      1.5296                 1.9722                 1.5481
 IR Inten    --     10.2791                 6.4686                10.2119

                     79                     80                     81
                      A                      A                      A
 Frequencies --   1449.6034              1485.0060              1507.1234
 Red. masses --      1.2801                 2.2330                 1.0837
 Frc consts  --      1.5848                 2.9013                 1.4504
 IR Inten    --     10.1545               108.7585                 7.8920

                     82                     83                     84
                      A                      A                      A
 Frequencies --   1509.3074              1514.0986              1515.5850
 Red. masses --      1.1356                 1.1577                 1.7236
 Frc consts  --      1.5242                 1.5637                 2.3326
 IR Inten    --     26.2429                56.9348                73.0751

                     85                     86                     87
                      A                      A                      A
 Frequencies --   1519.3030              1519.8049              1525.3048
 Red. masses --      1.0449                 1.2490                 1.0688
 Frc consts  --      1.4211                 1.6997                 1.4651
 IR Inten    --      3.7711                12.6603                12.6635

                     88                     89                     90
                      A                      A                      A
 Frequencies --   1529.9228              1532.9164              1537.0825
 Red. masses --      1.1453                 1.0939                 1.0737
 Frc consts  --      1.5795                 1.5145                 1.4946
 IR Inten    --     15.2825                31.2806                 4.9100

                     91                     92                     93
                      A                      A                      A
 Frequencies --   1540.3841              1552.8556              1607.9510
 Red. masses --      1.0569                 3.9559                 3.7301
 Frc consts  --      1.4776                 5.6203                 5.6823
 IR Inten    --     12.3749               257.0016                56.2889

                     94                     95                     96
                      A                      A                      A
 Frequencies --   1655.0707              1721.7142              2999.9392
 Red. masses --      6.0887                10.8116                 1.0745
 Frc consts  --      9.8267                18.8827                 5.6975
 IR Inten    --    789.1926               219.0593                23.9193

                     97                     98                     99
                      A                      A                      A
 Frequencies --   3007.6050              3020.7967              3036.7145
 Red. masses --      1.0738                 1.0705                 1.0791
 Frc consts  --      5.7228                 5.7554                 5.8630
 IR Inten    --     62.3503                18.8004                92.7609

                    100                    101                    102
                      A                      A                      A
 Frequencies --   3041.8949              3048.9286              3053.2264
 Red. masses --      1.0411                 1.0383                 1.0583
 Frc consts  --      5.6760                 5.6867                 5.8127
 IR Inten    --     19.5365                33.8993                22.7106

                    103                    104                    105
                      A                      A                      A
 Frequencies --   3057.0206              3074.8083              3093.1463
 Red. masses --      1.0455                 1.0944                 1.0853
 Frc consts  --      5.7566                 6.0962                 6.1181
 IR Inten    --     18.5171                59.1801                 1.3010

                    106                    107                    108
                      A                      A                      A
 Frequencies --   3095.5963              3109.5382              3121.9200
 Red. masses --      1.1039                 1.0989                 1.0971
 Frc consts  --      6.2326                 6.2603                 6.2999
 IR Inten    --     54.1979                 4.9580                57.8426

                    109                    110                    111
                      A                      A                      A
 Frequencies --   3124.6304              3137.0368              3141.2360
 Red. masses --      1.0985                 1.1031                 1.1013
 Frc consts  --      6.3191                 6.3959                 6.4028
 IR Inten    --     46.4020                25.9324                21.6247

                    112                    113                    114
                      A                      A                      A
 Frequencies --   3143.8321              3173.5789              3176.7713
 Red. masses --      1.1011                 1.0901                 1.0904
 Frc consts  --      6.4121                 6.4686                 6.4837
 IR Inten    --     22.1352                 5.4285                32.8116

                    115                    116                    117
                      A                      A                      A
 Frequencies --   3205.4359              3233.8582              3616.0720
 Red. masses --      1.0893                 1.0917                 1.0767
 Frc consts  --      6.5942                 6.7269                 8.2950
 IR Inten    --      4.5891                 2.6693                35.3624

 - Thermochemistry -
 -------------------
 Temperature   298.150 Kelvin.  Pressure   1.00000 Atm.
 Atom     1 has atomic number  6 and mass  12.00000

 Molecular mass:   262.17936 amu.
 Principal axes and moments of inertia in atomic units:
                           1         2         3
     Eigenvalues --  1712.54794********************
           X            0.99998  -0.00567  -0.00303
           Y            0.00568   0.99997   0.00435
           Z            0.00300  -0.00437   0.99999
 This molecule is an asymmetric top.
 Rotational symmetry number  1.
 Warning -- assumption of classical behavior for rotation
           may cause significant error
 Rotational temperatures (Kelvin)      0.05058     0.00764     0.00701
 Rotational constants (GHZ):           1.05383     0.15919     0.14610
 Zero-point vibrational energy     940937.2 (Joules/Mol)
                                  224.88939 (Kcal/Mol)
 Warning -- explicit consideration of  29 degrees of freedom as
           vibrations may cause significant error
 Vibrational temperatures:     24.14    51.69    72.52    80.96    97.37
          (Kelvin)            137.64   185.29   209.86   266.78   286.99
                              296.46   339.75   342.13   350.82   383.45
                              443.82   481.18   488.47   534.17   555.17
                              591.63   601.03   616.97   636.90   643.09
                              697.92   720.00   783.78   867.61   920.43
                              978.73  1011.92  1084.77  1095.84  1145.76
                             1154.69  1227.02  1244.67  1273.91  1281.11
                             1296.19  1301.96  1352.63  1360.51  1391.19
                             1416.98  1421.47  1437.82  1443.46  1477.48
                             1494.47  1534.28  1559.60  1643.47  1653.85
                             1668.05  1677.19  1699.77  1721.15  1741.89
                             1784.12  1827.23  1835.62  1869.15  1883.59
                             1897.29  1943.48  1957.00  1976.12  1984.71
                             1997.14  2005.02  2017.30  2025.29  2044.57
                             2051.30  2065.35  2080.71  2085.66  2136.59
                             2168.41  2171.56  2178.45  2180.59  2185.94
                             2186.66  2194.57  2201.22  2205.52  2211.52
                             2216.27  2234.21  2313.48  2381.28  2477.16
                             4316.24  4327.27  4346.25  4369.15  4376.61
                             4386.73  4392.91  4398.37  4423.96  4450.35
                             4453.87  4473.93  4491.75  4495.65  4513.50
                             4519.54  4523.27  4566.07  4570.67  4611.91
                             4652.80  5202.72

 Zero-point correction=                           0.358384 (Hartree/Particle)
 Thermal correction to Energy=                    0.377054
 Thermal correction to Enthalpy=                  0.377998
 Thermal correction to Gibbs Free Energy=         0.310258
 Sum of electronic and zero-point Energies=           -840.729564
 Sum of electronic and thermal Energies=              -840.710895
 Sum of electronic and thermal Enthalpies=            -840.709950
 Sum of electronic and thermal Free Energies=         -840.777691

                     E (Thermal)             CV                S
                      KCal/Mol        Cal/Mol-Kelvin    Cal/Mol-Kelvin
 Total                  236.605             71.443            142.571
 Electronic               0.000              0.000              0.000
 Translational            0.889              2.981             42.591
 Rotational               0.889              2.981             33.838
 Vibrational            234.827             65.481             66.142
 Vibration     1          0.593              1.986              6.983
 Vibration     2          0.594              1.982              5.472
 Vibration     3          0.595              1.977              4.802
 Vibration     4          0.596              1.975              4.584
 Vibration     5          0.598              1.970              4.220
 Vibration     6          0.603              1.952              3.541
 Vibration     7          0.611              1.924              2.964
 Vibration     8          0.617              1.907              2.726
 Vibration     9          0.631              1.860              2.273
 Vibration    10          0.638              1.841              2.138
 Vibration    11          0.641              1.831              2.078
 Vibration    12          0.655              1.785              1.832
 Vibration    13          0.656              1.783              1.819
 Vibration    14          0.659              1.773              1.775
 Vibration    15          0.672              1.735              1.619
 Vibration    16          0.698              1.658              1.371
 Vibration    17          0.716              1.607              1.239
 Vibration    18          0.719              1.597              1.214
 Vibration    19          0.743              1.531              1.075
 Vibration    20          0.755              1.500              1.016
 Vibration    21          0.775              1.446              0.922
 Vibration    22          0.781              1.432              0.900
 Vibration    23          0.790              1.408              0.863
 Vibration    24          0.802              1.377              0.818
 Vibration    25          0.806              1.368              0.805
 Vibration    26          0.841              1.283              0.696
 Vibration    27          0.856              1.249              0.657
 Vibration    28          0.900              1.151              0.555
 Vibration    29          0.961              1.025              0.444

 Optimization completed.
    -- Stationary point found.
 Normal termination of Gaussian 16 at Sat Dec 12 10:33:59 2020.

 ----------------------------------------------------------------------
 # B3LYP/6-311++G(d,p) empiricaldispersion=gd3bj scf=xqc pop=npa geom=c
 heck
 ----------------------------------------------------------------------

 ---------------------------------------
 CID_109338717_JID_9922_Energie_neutraal
 ---------------------------------------
 Structure from the checkpoint file:  "JID_9922.chk"
 Charge =  0 Multiplicity = 1

 SCF Done:  E(RB3LYP) =  -841.315946642     A.U. after   15 cycles
 Normal termination of Gaussian 16 at Sat Dec 12 10:41:20 2020.

 ----------------------------------------------------------------------
 # B3LYP/6-311++G(d,p) empiricaldispersion=gd3bj scf=xqc pop=npa geom=c
 heck
 ----------------------------------------------------------------------

 -------------------------------------
 CID_109338717_JID_9922_Energie_kation
 -------------------------------------
 Structure from the checkpoint file:  "JID_9922.chk"
 Charge =  1 Multiplicity = 2

 SCF Done:  E(UB3LYP) =  -841.023419088     A.U. after   28 cycles
 Normal termination of Gaussian 16 at Sat Dec 12 10:59:30 2020.
 Gaussian 16:  ES64L-G16RevA.03 25-Dec-2016

 ----------------------------------------------------------------------
 # B3LYP/6-311++G(d,p) empiricaldispersion=gd3bj scf=xqc pop=npa geom=c
 heck
 ----------------------------------------------------------------------

 ------------------------------------
 CID_109338717_JID_9922_Energie_anion
 ------------------------------------
 Structure from the checkpoint file:  "JID_9922.chk"
 Charge = -1 Multiplicity = 2

                         Standard orientation:
 ---------------------------------------------------------------------
 Center     Atomic      Atomic             Coordinates (Angstroms)
 Number     Number       Type             X           Y           Z
 ---------------------------------------------------------------------
      1          6           0        3.306314   -1.881523   -0.990921
      2          6           0        3.725156   -1.354837    0.386598
      3          6           0        4.984165   -0.468181    0.325126
      4          6           0        4.692381    0.890393   -0.327027
      5          6           0        3.507734    1.584344    0.351770
      6          7           0        2.341667    0.697128    0.376812
      7          6           0        2.586927   -0.572155    1.065756
      8          6           0        1.151178    1.181540   -0.081206
      9          8           0        1.017256    2.345973   -0.466177
     10          6           0       -0.072015    0.284425   -0.142303
     11          6           0       -1.300318    0.910229   -0.048057
     12          6           0       -2.452120    0.098956   -0.158496
     13          7           0       -2.344973   -1.229662   -0.366551
     14          6           0       -1.105257   -1.710004   -0.464390
     15          7           0        0.044810   -1.046384   -0.359233
     16          7           0       -3.698771    0.633374   -0.084182
     17          6           0       -4.930436   -0.157927   -0.068695
     18          6           0       -5.165392   -0.806970    1.300432
     19          6           0       -6.093298    0.737420   -0.494854
     20          1           0        2.441773   -2.545752   -0.907953
     21          1           0        4.130320   -2.431177   -1.460910
     22          1           0        3.014676   -1.066361   -1.659959
     23          1           0        3.944120   -2.216758    1.032238
     24          1           0        5.348873   -0.298004    1.348551
     25          1           0        5.786493   -0.987068   -0.213729
     26          1           0        4.464884    0.761253   -1.391637
     27          1           0        5.573227    1.541022   -0.265116
     28          1           0        3.217325    2.499266   -0.162066
     29          1           0        3.771303    1.842762    1.389352
     30          1           0        1.674411   -1.159758    1.082352
     31          1           0        2.877110   -0.337658    2.102040
     32          1           0       -1.355116    1.984781    0.079879
     33          1           0       -1.025929   -2.780075   -0.649720
     34          1           0       -3.764581    1.603453    0.191383
     35          1           0       -4.791144   -0.951448   -0.808391
     36          1           0       -5.288002   -0.042242    2.077083
     37          1           0       -6.070157   -1.425321    1.283503
     38          1           0       -4.317383   -1.444034    1.565681
     39          1           0       -5.917719    1.167231   -1.486228
     40          1           0       -7.023991    0.162618   -0.525654
     41          1           0       -6.237798    1.560024    0.218379
 ---------------------------------------------------------------------

 SCF Done:  E(UB3LYP) =  -841.316445436     A.U. after   33 cycles
 SCF Done:  E(UB3LYP) =  -841.316445436     a.u. after    1 cycles

 The electronic state is 2-A.
 Alpha  occ. eigenvalues --  -18.94193 -14.21768 -14.21133 -14.16682 -14.16385
 Alpha  occ. eigenvalues --  -10.12503 -10.12082 -10.11285 -10.09770 -10.08474
 Alpha  occ. eigenvalues --  -10.08325 -10.07838 -10.07118 -10.06676 -10.06654
 Alpha  occ. eigenvalues --  -10.06624 -10.06315 -10.04949 -10.03269  -0.89978
 Alpha  occ. eigenvalues --   -0.86195  -0.81897  -0.81261  -0.74136  -0.70292
 Alpha  occ. eigenvalues --   -0.68768  -0.66162  -0.63654  -0.60071  -0.58293
 Alpha  occ. eigenvalues --   -0.57323  -0.53506  -0.52492  -0.51334  -0.48940
 Alpha  occ. eigenvalues --   -0.46224  -0.44026  -0.41930  -0.39740  -0.37059
 Alpha  occ. eigenvalues --   -0.36030  -0.35546  -0.35389  -0.35015  -0.33693
 Alpha  occ. eigenvalues --   -0.33146  -0.32850  -0.31905  -0.31560  -0.30604
 Alpha  occ. eigenvalues --   -0.30449  -0.29788  -0.29360  -0.27939  -0.27864
 Alpha  occ. eigenvalues --   -0.26726  -0.25998  -0.25872  -0.25011  -0.24903
 Alpha  occ. eigenvalues --   -0.24196  -0.22924  -0.21759  -0.21259  -0.20678
 Alpha  occ. eigenvalues --   -0.16460  -0.16162  -0.13367  -0.12109  -0.11240
 Alpha  occ. eigenvalues --   -0.10511   0.04217
 Alpha virt. eigenvalues --    0.05791   0.06498   0.07981   0.08136   0.08234
 Alpha virt. eigenvalues --    0.08386   0.09348   0.10114   0.10582   0.10832
 Alpha virt. eigenvalues --    0.10964   0.11022   0.11451   0.11825   0.11868

  Beta  occ. eigenvalues --  -18.93985 -14.21749 -14.21099 -14.16666 -14.16104
  Beta  occ. eigenvalues --  -10.12372 -10.12057 -10.11286 -10.09733 -10.08474
  Beta  occ. eigenvalues --  -10.08320 -10.07824 -10.07117 -10.06662 -10.06613
  Beta  occ. eigenvalues --  -10.06355 -10.06293 -10.04946 -10.03144  -0.89631
  Beta  occ. eigenvalues --   -0.85984  -0.81737  -0.81118  -0.73786  -0.70251
  Beta  occ. eigenvalues --   -0.68639  -0.66133  -0.63297  -0.60038  -0.58275
  Beta  occ. eigenvalues --   -0.57106  -0.53233  -0.52384  -0.51297  -0.48731
  Beta  occ. eigenvalues --   -0.46115  -0.43879  -0.41846  -0.39642  -0.36954
  Beta  occ. eigenvalues --   -0.35970  -0.35479  -0.35330  -0.34948  -0.33597
  Beta  occ. eigenvalues --   -0.32998  -0.32693  -0.31765  -0.31492  -0.30387
  Beta  occ. eigenvalues --   -0.30277  -0.29674  -0.29047  -0.27764  -0.27739
  Beta  occ. eigenvalues --   -0.26513  -0.25848  -0.25766  -0.24936  -0.24620
  Beta  occ. eigenvalues --   -0.24117  -0.22617  -0.21673  -0.21172  -0.20348
  Beta  occ. eigenvalues --   -0.16174  -0.14871  -0.13056  -0.11690  -0.10843
  Beta  occ. eigenvalues --   -0.09801
  Beta virt. eigenvalues --    0.05995   0.06506   0.08059   0.08234   0.08268
  Beta virt. eigenvalues --    0.08442   0.09273   0.09483   0.10083   0.10537
  Beta virt. eigenvalues --    0.10873   0.10979   0.11083   0.11458   0.11771

 Mulliken charges and spin densities:
               1          2
     1  C   -0.427098  -0.230648
     2  C    0.102705   0.347661
     3  C    0.049918  -0.568855
     4  C   -0.196488  -0.017735
     5  C   -0.230845   0.002624
     6  N    0.094808   0.014364
     7  C   -0.274941  -0.301922
     8  C   -0.310333  -0.086948
     9  O   -0.368807   0.073818
    10  C   -0.177844   0.178197
    11  C    0.124738   0.159813
    12  C   -0.371852  -0.111540
    13  N   -0.177180   0.130503
    14  C    0.062921   0.029242
    15  N   -0.077719   0.014598
    16  N    0.082718   0.007719
    17  C   -0.434137   0.351820
    18  C    0.026733  -0.400732
    19  C   -0.186498  -0.343576
    20  H    0.176073  -0.021699
    21  H    0.085730   0.038893
    22  H    0.147452   0.023525
    23  H    0.032913   0.157458
    24  H   -0.097633   0.227884
    25  H    0.008339   0.112726
    26  H    0.136966   0.006153
    27  H   -0.063082   0.217646
    28  H    0.185635  -0.002314
    29  H   -0.003280   0.142259
    30  H    0.186293  -0.007851
    31  H   -0.027267   0.178862
    32  H    0.165765   0.013893
    33  H    0.128709   0.023831
    34  H    0.272811  -0.016636
    35  H    0.199854  -0.015621
    36  H    0.063632   0.063239
    37  H   -0.059277   0.178100
    38  H    0.101802   0.061712
    39  H    0.081629   0.072159
    40  H   -0.024783   0.165199
    41  H   -0.009080   0.132179
 Sum of Mulliken charges =  -1.00000   1.00000

 Dipole moment (field-independent basis, Debye):
    X=             -0.2939    Y=             -1.0241    Z=              0.2845  Tot=              1.1028
 Quadrupole moment (field-independent basis, Debye-Ang):
   XX=           -195.9202   YY=           -143.2528   ZZ=           -134.9346
   XY=             -8.6921   XZ=             -3.0417   YZ=              2.5335

 Summary of Natural Population Analysis:

                                       Natural Population
                Natural  -----------------------------------------------
    Atom  No    Charge         Core      Valence    Rydberg      Total
 -----------------------------------------------------------------------
      C    1   -0.28759      0.99965     2.28237    0.00557     3.28759
      C    2   -0.11614      0.99960     2.10613    0.01041     3.11614
      C    3   -0.18956      0.99961     2.18043    0.00951     3.18956
      C    4   -0.19617      0.99963     2.18779    0.00875     3.19617
      C    5   -0.08799      0.99962     2.07748    0.01089     3.08799
      N    6   -0.25311      0.99964     2.74344    0.01004     3.75311
      C    7   -0.08448      0.99959     2.07341    0.01148     3.08448
      C    8    0.35098      0.99960     1.62749    0.02193     2.64902
      O    9   -0.31838      0.99988     3.31376    0.00474     4.31838
      C   10    0.12889      0.99948     1.85847    0.01316     2.87111
      C   11   -0.12338      0.99948     2.11628    0.00761     3.12338
      C   12    0.21527      0.99955     1.77115    0.01402     2.78473
      N   13   -0.25292      0.99967     2.74397    0.00928     3.75292
      C   14    0.14903      0.99968     1.83328    0.01801     2.85097
      N   15   -0.28093      0.99969     2.77020    0.01104     3.78093
      N   16   -0.31009      0.99965     2.80005    0.01038     3.81009
      C   17   -0.01779      0.99962     2.00521    0.01296     3.01779
      C   18   -0.28921      0.99964     2.28498    0.00458     3.28921
      C   19   -0.28578      0.99965     2.28161    0.00452     3.28578
      H   20    0.10787      0.00000     0.39124    0.00089     0.39213
      H   21    0.08974      0.00000     0.40942    0.00084     0.41026
      H   22    0.10247      0.00000     0.39640    0.00113     0.39753
      H   23    0.09394      0.00000     0.40510    0.00097     0.40606
      H   24    0.09520      0.00000     0.40334    0.00146     0.40480
      H   25    0.09510      0.00000     0.40402    0.00087     0.40490
      H   26    0.09629      0.00000     0.40261    0.00110     0.40371
      H   27    0.09643      0.00000     0.40256    0.00101     0.40357
      H   28    0.11730      0.00000     0.38150    0.00120     0.38270
      H   29    0.08486      0.00000     0.41388    0.00127     0.41514
      H   30    0.12161      0.00000     0.37697    0.00142     0.37839
      H   31    0.08561      0.00000     0.41326    0.00113     0.41439
      H   32    0.10823      0.00000     0.39059    0.00118     0.39177
      H   33    0.07266      0.00000     0.42603    0.00131     0.42734
      H   34    0.18559      0.00000     0.31251    0.00190     0.31441
      H   35    0.10367      0.00000     0.39355    0.00278     0.39633
      H   36    0.09274      0.00000     0.40615    0.00112     0.40726
      H   37    0.09410      0.00000     0.40470    0.00120     0.40590
      H   38    0.11128      0.00000     0.38757    0.00116     0.38872
      H   39    0.10167      0.00000     0.39738    0.00095     0.39833
      H   40    0.09962      0.00000     0.39947    0.00090     0.40038
      H   41    0.09337      0.00000     0.40552    0.00111     0.40663
 =======================================================================
   * Total *    0.00000     18.99294    51.78129    0.22577    71.00000

 Normal termination of Gaussian 16 at Sat Dec 12 11:21:14 2020.
