 Gaussian 16, Revision A.03,

 -----------------------------------------------------------
 # opt freq B3LYP/6-31G(d) empiricaldispersion=gd3bj scf=xqc
 -----------------------------------------------------------

 ------------------------------
 CID_51889923_JID_9216_neutraal
 ------------------------------
 Symbolic Z-matrix:
 Charge =  0 Multiplicity = 1

 SCF Done:  E(RB3LYP) =  -1168.03299809     A.U. after   15 cycles
 SCF Done:  E(RB3LYP) =  -1168.03522751     A.U. after   13 cycles
 SCF Done:  E(RB3LYP) =  -1168.03195439     A.U. after   15 cycles
 SCF Done:  E(RB3LYP) =  -1168.03605089     A.U. after   13 cycles
 SCF Done:  E(RB3LYP) =  -1168.03548624     A.U. after   13 cycles
 SCF Done:  E(RB3LYP) =  -1168.03817381     A.U. after   13 cycles
 SCF Done:  E(RB3LYP) =  -1168.04046106     A.U. after   15 cycles
 SCF Done:  E(RB3LYP) =  -1168.04176911     A.U. after   15 cycles
 SCF Done:  E(RB3LYP) =  -1168.04057967     A.U. after   15 cycles
 SCF Done:  E(RB3LYP) =  -1168.04263283     A.U. after   12 cycles
 SCF Done:  E(RB3LYP) =  -1168.04526659     A.U. after   11 cycles
 SCF Done:  E(RB3LYP) =  -1168.04526834     A.U. after   10 cycles
 SCF Done:  E(RB3LYP) =  -1168.04526901     A.U. after    8 cycles
 SCF Done:  E(RB3LYP) =  -1168.04526923     A.U. after    8 cycles
 SCF Done:  E(RB3LYP) =  -1168.04526935     A.U. after    8 cycles
 SCF Done:  E(RB3LYP) =  -1168.04526940     A.U. after    8 cycles
 Optimization completed.
    -- Stationary point found.
 Normal termination of Gaussian 16 at Sun Dec 13 12:54:38 2020.

 --------------------------------------------------------------------
 #N Geom=AllCheck Guess=TCheck SCRF=Check GenChk RB3LYP/6-31G(d) Freq
 --------------------------------------------------------------------

 Structure from the checkpoint file:  "JID_9216.chk"
 ------------------------------
 CID_51889923_JID_9216_neutraal
 ------------------------------
 Charge =  0 Multiplicity = 1

 SCF Done:  E(RB3LYP) =  -1168.04526940     A.U. after    1 cycles

  Exact polarizability: 198.630  10.468 210.284  32.122 -14.100 133.982
 Approx polarizability: 289.210  14.125 372.464  68.842 -37.282 230.592

                      1                      2                      3
                      A                      A                      A
 Frequencies --     14.7384                24.5741                59.6969
 Red. masses --      5.3381                 5.8012                 4.5329
 Frc consts  --      0.0007                 0.0021                 0.0095
 IR Inten    --      0.4174                 0.6786                 0.6243

                      4                      5                      6
                      A                      A                      A
 Frequencies --     74.0588                81.9649                90.3280
 Red. masses --      4.4298                 3.4082                 4.8604
 Frc consts  --      0.0143                 0.0135                 0.0234
 IR Inten    --      0.0668                 3.3882                 0.1693

                      7                      8                      9
                      A                      A                      A
 Frequencies --    129.6213               134.6109               172.8295
 Red. masses --      1.1786                 3.8040                 4.1617
 Frc consts  --      0.0117                 0.0406                 0.0732
 IR Inten    --      1.1955                 1.2726                 1.5346

                     10                     11                     12
                      A                      A                      A
 Frequencies --    188.2777               201.6696               224.5897
 Red. masses --      4.5264                 4.9147                 1.7360
 Frc consts  --      0.0945                 0.1178                 0.0516
 IR Inten    --      0.7617                 2.5563                 0.3542

                     13                     14                     15
                      A                      A                      A
 Frequencies --    253.7250               273.2329               287.6817
 Red. masses --      5.0250                 3.4352                 2.0277
 Frc consts  --      0.1906                 0.1511                 0.0989
 IR Inten    --      0.8966                 4.5841                 2.7947

                     16                     17                     18
                      A                      A                      A
 Frequencies --    292.8418               360.9062               383.0957
 Red. masses --      2.8869                 3.4300                 3.9076
 Frc consts  --      0.1459                 0.2632                 0.3379
 IR Inten    --      1.6870                 1.5953                 0.1064

                     19                     20                     21
                      A                      A                      A
 Frequencies --    435.2334               439.6006               445.9545
 Red. masses --      5.7698                 4.0692                 3.8523
 Frc consts  --      0.6440                 0.4633                 0.4514
 IR Inten    --      0.3205                 0.4306                 0.8324

                     22                     23                     24
                      A                      A                      A
 Frequencies --    464.7781               504.4086               525.0636
 Red. masses --      2.9925                 3.4127                 3.7096
 Frc consts  --      0.3809                 0.5116                 0.6026
 IR Inten    --      5.7081                 2.5471                 0.8781

                     25                     26                     27
                      A                      A                      A
 Frequencies --    549.7614               561.0305               565.8720
 Red. masses --      5.2608                 5.0977                 5.4578
 Frc consts  --      0.9368                 0.9454                 1.0297
 IR Inten    --      4.6051                 5.1797                 6.8870

                     28                     29                     30
                      A                      A                      A
 Frequencies --    580.6251               663.2314               693.2948
 Red. masses --      4.6913                 6.6783                 4.1495
 Frc consts  --      0.9318                 1.7308                 1.1751
 IR Inten    --     13.3047                 6.1187                 1.4286

                     31                     32                     33
                      A                      A                      A
 Frequencies --    696.8789               721.9250               729.9527
 Red. masses --      3.5166                 4.4798                 3.9190
 Frc consts  --      1.0062                 1.3756                 1.2303
 IR Inten    --      7.6643                16.2496                 3.1313

                     34                     35                     36
                      A                      A                      A
 Frequencies --    768.2574               768.6211               813.9666
 Red. masses --      2.0522                 1.2655                 2.1813
 Frc consts  --      0.7136                 0.4405                 0.8515
 IR Inten    --     43.0462                39.1581                 8.0197

                     37                     38                     39
                      A                      A                      A
 Frequencies --    819.0757               873.2571               879.1460
 Red. masses --      4.7444                 4.5320                 1.3088
 Frc consts  --      1.8754                 2.0362                 0.5960
 IR Inten    --      0.1958                15.8816                 0.9521

                     40                     41                     42
                      A                      A                      A
 Frequencies --    898.3434               919.6149               931.2076
 Red. masses --      1.4450                 1.9619                 1.5103
 Frc consts  --      0.6871                 0.9776                 0.7716
 IR Inten    --      0.6889                 3.4463                14.0537

                     43                     44                     45
                      A                      A                      A
 Frequencies --    949.3955               968.4608               986.7859
 Red. masses --      1.3489                 1.2812                 1.2688
 Frc consts  --      0.7163                 0.7080                 0.7279
 IR Inten    --      0.9452                 0.7352                 0.0866

                     46                     47                     48
                      A                      A                      A
 Frequencies --   1018.2466              1024.5917              1059.8478
 Red. masses --      5.8338                 1.5722                 2.7802
 Frc consts  --      3.5638                 0.9724                 1.8400
 IR Inten    --      1.7705                 1.1054                61.7901

                     49                     50                     51
                      A                      A                      A
 Frequencies --   1069.9826              1076.6782              1083.5836
 Red. masses --      3.3382                 1.6922                 2.4498
 Frc consts  --      2.2517                 1.1558                 1.6947
 IR Inten    --      7.5756                 6.1744                 6.3266

                     52                     53                     54
                      A                      A                      A
 Frequencies --   1092.0891              1133.8473              1161.1656
 Red. masses --      2.3571                 1.7383                 1.4291
 Frc consts  --      1.6563                 1.3167                 1.1352
 IR Inten    --     47.7428                 0.0383                 9.6098

                     55                     56                     57
                      A                      A                      A
 Frequencies --   1165.2148              1186.1831              1197.1838
 Red. masses --      1.5145                 1.2713                 1.0953
 Frc consts  --      1.2116                 1.0539                 0.9250
 IR Inten    --      4.5339                 0.7446                 0.3492

                     58                     59                     60
                      A                      A                      A
 Frequencies --   1211.9629              1219.1467              1237.4517
 Red. masses --      1.1259                 1.3844                 2.4476
 Frc consts  --      0.9744                 1.2123                 2.2082
 IR Inten    --      1.1792                 4.7542                 1.0606

                     61                     62                     63
                      A                      A                      A
 Frequencies --   1261.5518              1272.8158              1311.2984
 Red. masses --      1.2505                 2.6847                 1.5179
 Frc consts  --      1.1726                 2.5626                 1.5378
 IR Inten    --      3.1233                19.5527                 2.1791

                     64                     65                     66
                      A                      A                      A
 Frequencies --   1319.1683              1332.0454              1340.7428
 Red. masses --      2.6914                 1.9051                 6.7588
 Frc consts  --      2.7595                 1.9917                 7.1583
 IR Inten    --    202.0772               218.7785                 2.1757

                     67                     68                     69
                      A                      A                      A
 Frequencies --   1380.0820              1446.9263              1476.7348
 Red. masses --      5.3905                 1.2343                 1.4769
 Frc consts  --      6.0490                 1.5225                 1.8975
 IR Inten    --     19.2890                 2.1113                 2.8092

                     70                     71                     72
                      A                      A                      A
 Frequencies --   1479.4546              1490.0266              1504.1297
 Red. masses --      1.6723                 1.6142                 1.5102
 Frc consts  --      2.1566                 2.1115                 2.0131
 IR Inten    --      3.9898               110.1586                18.8448

                     73                     74                     75
                      A                      A                      A
 Frequencies --   1511.9356              1516.0523              1521.8472
 Red. masses --      1.0449                 1.7644                 1.0477
 Frc consts  --      1.4073                 2.3894                 1.4297
 IR Inten    --      4.8087                12.5727                 5.9223

                     76                     77                     78
                      A                      A                      A
 Frequencies --   1528.2936              1535.6778              1539.7578
 Red. masses --      1.4452                 1.1011                 2.1082
 Frc consts  --      1.9889                 1.5299                 2.9449
 IR Inten    --     13.2556                29.3912                24.9982

                     79                     80                     81
                      A                      A                      A
 Frequencies --   1626.3663              1640.1200              1652.4235
 Red. masses --      5.4557                 5.2466                 5.6074
 Frc consts  --      8.5023                 8.3154                 9.0210
 IR Inten    --      0.2182                64.6007                 2.4069

                     82                     83                     84
                      A                      A                      A
 Frequencies --   1665.4430              1770.4802              3024.6916
 Red. masses --      6.2052                11.5871                 1.0351
 Frc consts  --     10.1407                21.3996                 5.5797
 IR Inten    --     38.5480               198.9548                52.7956

                     85                     86                     87
                      A                      A                      A
 Frequencies --   3062.7274              3083.1996              3105.2853
 Red. masses --      1.0356                 1.1066                 1.0579
 Frc consts  --      5.7236                 6.1980                 6.0106
 IR Inten    --     16.1355                42.7084                 6.3951

                     88                     89                     90
                      A                      A                      A
 Frequencies --   3126.3681              3135.1185              3162.1338
 Red. masses --      1.1006                 1.1029                 1.0994
 Frc consts  --      6.3382                 6.3868                 6.4769
 IR Inten    --      6.2230                13.8883                25.6657

                     91                     92                     93
                      A                      A                      A
 Frequencies --   3168.3280              3181.4870              3190.3887
 Red. masses --      1.1084                 1.0856                 1.0883
 Frc consts  --      6.5556                 6.4741                 6.5268
 IR Inten    --      2.9736                 3.2104                 6.0144

                     94                     95                     96
                      A                      A                      A
 Frequencies --   3199.8245              3200.9550              3211.4508
 Red. masses --      1.0928                 1.0885                 1.0977
 Frc consts  --      6.5927                 6.5711                 6.6700
 IR Inten    --     21.1542                 8.0256                22.7711

                     97                     98                     99
                      A                      A                      A
 Frequencies --   3230.4342              3236.9143              3248.5270
 Red. masses --      1.0914                 1.0904                 1.0915
 Frc consts  --      6.7107                 6.7312                 6.7867
 IR Inten    --     11.9752                 1.9575                 4.3361

 - Thermochemistry -
 -------------------
 Temperature   298.150 Kelvin.  Pressure   1.00000 Atm.
 Atom     1 has atomic number  6 and mass  12.00000

 Molecular mass:   272.08710 amu.
 Principal axes and moments of inertia in atomic units:
                           1         2         3
     Eigenvalues --  3577.428526613.304398525.57236
           X            0.99979   0.01635   0.01200
           Y           -0.01641   0.99985   0.00480
           Z           -0.01192  -0.00500   0.99992
 This molecule is an asymmetric top.
 Rotational symmetry number  1.
 Warning -- assumption of classical behavior for rotation
           may cause significant error
 Rotational temperatures (Kelvin)      0.02421     0.01310     0.01016
 Rotational constants (GHZ):           0.50448     0.27290     0.21169
 Zero-point vibrational energy     741867.5 (Joules/Mol)
                                  177.31060 (Kcal/Mol)
 Warning -- explicit consideration of  28 degrees of freedom as
           vibrations may cause significant error
 Vibrational temperatures:     21.21    35.36    85.89   106.55   117.93
          (Kelvin)            129.96   186.50   193.68   248.66   270.89
                              290.16   323.13   365.05   393.12   413.91
                              421.33   519.26   551.19   626.20   632.49
                              641.63   668.71   725.73   755.45   790.98
                              807.20   814.16   835.39   954.24   997.50
                             1002.65  1038.69  1050.24  1105.35  1105.87
                             1171.12  1178.47  1256.42  1264.90  1292.52
                             1323.12  1339.80  1365.97  1393.40  1419.76
                             1465.03  1474.16  1524.88  1539.47  1549.10
                             1559.04  1571.27  1631.35  1670.66  1676.48
                             1706.65  1722.48  1743.74  1754.08  1780.42
                             1815.09  1831.30  1886.67  1897.99  1916.52
                             1929.03  1985.63  2081.80  2124.69  2128.61
                             2143.82  2164.11  2175.34  2181.26  2189.60
                             2198.87  2209.50  2215.37  2339.98  2359.77
                             2377.47  2396.20  2547.33  4351.86  4406.58
                             4436.04  4467.81  4498.15  4510.74  4549.61
                             4558.52  4577.45  4590.26  4603.83  4605.46
                             4620.56  4647.87  4657.20  4673.91

 Zero-point correction=                           0.282562 (Hartree/Particle)
 Thermal correction to Energy=                    0.300396
 Thermal correction to Enthalpy=                  0.301341
 Thermal correction to Gibbs Free Energy=         0.234881
 Sum of electronic and zero-point Energies=          -1167.762707
 Sum of electronic and thermal Energies=             -1167.744873
 Sum of electronic and thermal Enthalpies=           -1167.743929
 Sum of electronic and thermal Free Energies=        -1167.810389

                     E (Thermal)             CV                S
                      KCal/Mol        Cal/Mol-Kelvin    Cal/Mol-Kelvin
 Total                  188.502             67.737            139.877
 Electronic               0.000              0.000              0.000
 Translational            0.889              2.981             42.702
 Rotational               0.889              2.981             33.666
 Vibrational            186.724             61.776             63.509
 Vibration     1          0.593              1.986              7.240
 Vibration     2          0.593              1.985              6.225
 Vibration     3          0.597              1.974              4.467
 Vibration     4          0.599              1.966              4.042
 Vibration     5          0.600              1.961              3.843
 Vibration     6          0.602              1.956              3.653
 Vibration     7          0.612              1.924              2.952
 Vibration     8          0.613              1.919              2.879
 Vibration     9          0.626              1.876              2.404
 Vibration    10          0.633              1.856              2.245
 Vibration    11          0.639              1.838              2.118
 Vibration    12          0.649              1.804              1.922
 Vibration    13          0.665              1.757              1.705
 Vibration    14          0.676              1.723              1.576
 Vibration    15          0.685              1.697              1.488
 Vibration    16          0.688              1.687              1.457
 Vibration    17          0.735              1.553              1.118
 Vibration    18          0.752              1.506              1.027
 Vibration    19          0.796              1.393              0.842
 Vibration    20          0.800              1.384              0.828
 Vibration    21          0.805              1.370              0.808
 Vibration    22          0.822              1.328              0.752
 Vibration    23          0.860              1.240              0.647
 Vibration    24          0.880              1.195              0.598
 Vibration    25          0.905              1.140              0.545
 Vibration    26          0.917              1.116              0.522
 Vibration    27          0.922              1.105              0.512
 Vibration    28          0.937              1.073              0.484

                           ! Non-Optimized Parameters !
 Normal termination of Gaussian 16 at Sun Dec 13 13:14:25 2020.

 ----------------------------------------------------------------------
 # B3LYP/6-311++G(d,p) empiricaldispersion=gd3bj scf=xqc pop=npa geom=c
 heck
 ----------------------------------------------------------------------

 --------------------------------------
 CID_51889923_JID_9216_Energie_neutraal
 --------------------------------------
 Structure from the checkpoint file:  "JID_9216.chk"
 Charge =  0 Multiplicity = 1

 SCF Done:  E(RB3LYP) =  -1168.27725251     A.U. after   17 cycles
 Normal termination of Gaussian 16 at Sun Dec 13 13:23:58 2020.

 ----------------------------------------------------------------------
 # B3LYP/6-311++G(d,p) empiricaldispersion=gd3bj scf=xqc pop=npa geom=c
 heck
 ----------------------------------------------------------------------

 ------------------------------------
 CID_51889923_JID_9216_Energie_kation
 ------------------------------------
 Structure from the checkpoint file:  "JID_9216.chk"
 Charge =  1 Multiplicity = 2

 SCF Done:  E(UB3LYP) =  -1167.98947000     A.U. after   27 cycles
 Normal termination of Gaussian 16 at Sun Dec 13 13:45:51 2020.
 Gaussian 16:  ES64L-G16RevA.03 25-Dec-2016

 ----------------------------------------------------------------------
 # B3LYP/6-311++G(d,p) empiricaldispersion=gd3bj scf=xqc pop=npa geom=c
 heck
 ----------------------------------------------------------------------

 -----------------------------------
 CID_51889923_JID_9216_Energie_anion
 -----------------------------------
 Structure from the checkpoint file:  "JID_9216.chk"
 Charge = -1 Multiplicity = 2

                         Standard orientation:
 ---------------------------------------------------------------------
 Center     Atomic      Atomic             Coordinates (Angstroms)
 Number     Number       Type             X           Y           Z
 ---------------------------------------------------------------------
      1          6           0        0.694922   -0.548455   -2.262131
      2          6           0        1.568167   -1.018777   -1.127877
      3          6           0        1.604263   -2.377770   -0.789627
      4          6           0        2.360782   -2.847769    0.281566
      5          6           0        3.127719   -1.958308    1.035130
      6          6           0        3.125823   -0.605756    0.703338
      7          6           0        2.340118   -0.130309   -0.354245
      8         16           0        2.341397    1.629833   -0.701545
      9          6           0        1.404727    2.297289    0.752003
     10          6           0       -0.090584    2.311415    0.466970
     11          8           0       -0.612347    3.340404    0.066160
     12          6           0       -0.881470    1.050154    0.617817
     13          6           0       -2.153811    1.023616    0.039875
     14          6           0       -2.942887   -0.125967    0.113074
     15          6           0       -2.460332   -1.258444    0.784286
     16          6           0       -1.196970   -1.219489    1.377010
     17          6           0       -0.404194   -0.079837    1.300901
     18          8           0       -4.159122   -0.052107   -0.498996
     19          6           0       -4.998264   -1.193829   -0.453812
     20          1           0        1.267762   -0.001024   -3.017211
     21          1           0        0.207338   -1.398143   -2.748988
     22          1           0       -0.083182    0.130247   -1.898215
     23          1           0        1.008382   -3.075214   -1.372417
     24          1           0        2.357672   -3.907193    0.522339
     25          1           0        3.733202   -2.315232    1.863251
     26          1           0        3.732447    0.097398    1.266690
     27          1           0        1.685265    1.734058    1.644025
     28          1           0        1.731683    3.333024    0.859868
     29          1           0       -2.524503    1.900964   -0.477416
     30          1           0       -3.054001   -2.162509    0.849966
     31          1           0       -0.824099   -2.098637    1.893553
     32          1           0        0.577076   -0.087222    1.756196
     33          1           0       -4.530527   -2.057765   -0.944545
     34          1           0       -5.257443   -1.463305    0.578618
     35          1           0       -5.905715   -0.919730   -0.993989
 ---------------------------------------------------------------------

 SCF Done:  E(UB3LYP) =  -1168.29372003     A.U. after   28 cycles

 The electronic state is 2-A.
 Alpha  occ. eigenvalues --  -88.71087 -19.03867 -18.92164 -10.12694 -10.10018
 Alpha  occ. eigenvalues --  -10.08217 -10.07287 -10.06869 -10.06841 -10.06610
 Alpha  occ. eigenvalues --  -10.06492 -10.06284 -10.06048 -10.04827 -10.03936
 Alpha  occ. eigenvalues --  -10.03560 -10.02831 -10.02728 -10.01905  -7.79718
 Alpha  occ. eigenvalues --   -5.76113  -5.75756  -5.75086  -0.95501  -0.86481
 Alpha  occ. eigenvalues --   -0.75400  -0.71760  -0.67603  -0.66030  -0.63830
 Alpha  occ. eigenvalues --   -0.62562  -0.61170  -0.57831  -0.57474  -0.53587
 Alpha  occ. eigenvalues --   -0.49321  -0.48345  -0.46941  -0.46028  -0.42743
 Alpha  occ. eigenvalues --   -0.39460  -0.37919  -0.36705  -0.36091  -0.35808
 Alpha  occ. eigenvalues --   -0.35623  -0.33870  -0.32627  -0.31306  -0.31103
 Alpha  occ. eigenvalues --   -0.30487  -0.29387  -0.29232  -0.27687  -0.27073
 Alpha  occ. eigenvalues --   -0.26307  -0.25770  -0.25394  -0.24585  -0.23932
 Alpha  occ. eigenvalues --   -0.23694  -0.22955  -0.21566  -0.20408  -0.19588
 Alpha  occ. eigenvalues --   -0.19171  -0.14599  -0.13852  -0.12054  -0.11173
 Alpha  occ. eigenvalues --   -0.09841  -0.07970   0.03859
 Alpha virt. eigenvalues --    0.06892   0.07515   0.08070   0.08792   0.09266
 Alpha virt. eigenvalues --    0.09610   0.09841   0.10842   0.10953   0.11240
 Alpha virt. eigenvalues --    0.11834   0.12244   0.12641   0.13127   0.13595

  Beta  occ. eigenvalues --  -88.71047 -19.03873 -18.91585 -10.12692 -10.10083
  Beta  occ. eigenvalues --  -10.08178 -10.07249 -10.06887 -10.06532 -10.06508
  Beta  occ. eigenvalues --  -10.06449 -10.06279 -10.06028 -10.04830 -10.03940
  Beta  occ. eigenvalues --  -10.03356 -10.02759 -10.02652 -10.01716  -7.79675
  Beta  occ. eigenvalues --   -5.76034  -5.75706  -5.75060  -0.95516  -0.85433
  Beta  occ. eigenvalues --   -0.75303  -0.71521  -0.67418  -0.65927  -0.63733
  Beta  occ. eigenvalues --   -0.62226  -0.60898  -0.57654  -0.57418  -0.53245
  Beta  occ. eigenvalues --   -0.49024  -0.48091  -0.46846  -0.45893  -0.42537
  Beta  occ. eigenvalues --   -0.39392  -0.37596  -0.36702  -0.35980  -0.35717
  Beta  occ. eigenvalues --   -0.35440  -0.33776  -0.32421  -0.31187  -0.30914
  Beta  occ. eigenvalues --   -0.30422  -0.29272  -0.29074  -0.27373  -0.26789
  Beta  occ. eigenvalues --   -0.26016  -0.25494  -0.25228  -0.24216  -0.23882
  Beta  occ. eigenvalues --   -0.23355  -0.22746  -0.20694  -0.20222  -0.19355
  Beta  occ. eigenvalues --   -0.17709  -0.14312  -0.13579  -0.11127  -0.10363
  Beta  occ. eigenvalues --   -0.09176  -0.07522
  Beta virt. eigenvalues --    0.06859   0.07465   0.08354   0.08755   0.09213
  Beta virt. eigenvalues --    0.09619   0.09672   0.10265   0.10817   0.10985
  Beta virt. eigenvalues --    0.11247   0.11829   0.12260   0.12651   0.13332

 Mulliken charges and spin densities:
               1          2
     1  C   -0.787823  -0.022605
     2  C    0.330032   0.051178
     3  C   -0.120999   0.010886
     4  C   -0.397736   0.067615
     5  C   -0.311173  -0.056715
     6  C   -0.305968   0.000408
     7  C    0.504191   0.049062
     8  S   -0.003299   0.045071
     9  C   -0.340573   0.041777
    10  C   -0.847169   0.165119
    11  O   -0.354900   0.210856
    12  C    1.098640   0.059022
    13  C   -0.352258   0.195496
    14  C   -0.495631  -0.061071
    15  C   -0.089689   0.162855
    16  C   -0.121292  -0.013619
    17  C   -0.397819   0.081359
    18  O   -0.140766   0.000485
    19  C   -0.330357  -0.001645
    20  H    0.135450   0.010879
    21  H    0.104855   0.002225
    22  H    0.263718  -0.001920
    23  H    0.125258   0.004083
    24  H    0.135023  -0.003518
    25  H    0.131596   0.002251
    26  H    0.150694   0.012107
    27  H    0.113873   0.007901
    28  H    0.254601  -0.001446
    29  H    0.205326  -0.009632
    30  H    0.139084  -0.012188
    31  H    0.133513  -0.000136
    32  H    0.159318   0.001717
    33  H    0.131568   0.002279
    34  H    0.134369   0.000014
    35  H    0.146343  -0.000148
 Sum of Mulliken charges =  -1.00000   1.00000

 Dipole moment (field-independent basis, Debye):
    X=              0.0597    Y=             -7.2356    Z=              0.3765  Tot=              7.2456
 Quadrupole moment (field-independent basis, Debye-Ang):
   XX=           -147.1504   YY=           -154.0351   ZZ=           -130.2741
   XY=              9.8082   XZ=              7.7686   YZ=              2.3964

 Summary of Natural Population Analysis:

                                       Natural Population
                Natural  -----------------------------------------------
    Atom  No    Charge         Core      Valence    Rydberg      Total
 -----------------------------------------------------------------------
      C    1   -0.29582      0.99963     2.29129    0.00491     3.29582
      C    2   -0.00467      0.99944     1.99320    0.01203     3.00467
      C    3   -0.09891      0.99952     2.09137    0.00803     3.09891
      C    4   -0.09057      0.99957     2.08196    0.00904     3.09057
      C    5   -0.11615      0.99956     2.10781    0.00878     3.11615
      C    6   -0.09645      0.99949     2.08637    0.01059     3.09645
      C    7   -0.07970      0.99935     2.06559    0.01475     3.07970
      S    8    0.10748      4.99955     2.87344    0.01952     7.89252
      C    9   -0.26823      0.99955     2.26017    0.00851     3.26823
      C   10    0.29818      0.99961     1.68087    0.02134     2.70182
      O   11   -0.24274      0.99988     3.23597    0.00688     4.24274
      C   12   -0.04838      0.99947     2.03499    0.01392     3.04838
      C   13   -0.06688      0.99949     2.05869    0.00870     3.06688
      C   14    0.13882      0.99938     1.85031    0.01149     2.86118
      C   15   -0.11346      0.99953     2.10621    0.00772     3.11346
      C   16   -0.10384      0.99958     2.09557    0.00869     3.10384
      C   17   -0.09583      0.99954     2.08548    0.01082     3.09583
      O   18   -0.27760      0.99985     3.26810    0.00965     4.27760
      C   19   -0.09969      0.99961     2.09183    0.00825     3.09969
      H   20    0.10460      0.00000     0.39455    0.00085     0.39540
      H   21    0.09362      0.00000     0.40552    0.00085     0.40638
      H   22    0.12238      0.00000     0.37667    0.00095     0.37762
      H   23    0.09463      0.00000     0.40409    0.00128     0.40537
      H   24    0.09339      0.00000     0.40563    0.00098     0.40661
      H   25    0.09508      0.00000     0.40395    0.00097     0.40492
      H   26    0.10055      0.00000     0.39793    0.00152     0.39945
      H   27    0.10049      0.00000     0.39831    0.00120     0.39951
      H   28    0.10847      0.00000     0.39023    0.00130     0.39153
      H   29    0.11163      0.00000     0.38688    0.00149     0.38837
      H   30    0.09170      0.00000     0.40724    0.00107     0.40830
      H   31    0.09223      0.00000     0.40629    0.00147     0.40777
      H   32    0.09931      0.00000     0.39934    0.00135     0.40069
      H   33    0.08006      0.00000     0.41828    0.00166     0.41994
      H   34    0.07974      0.00000     0.41861    0.00165     0.42026
      H   35    0.08654      0.00000     0.41265    0.00081     0.41346
 =======================================================================
   * Total *    0.00000     22.99162    48.78536    0.22302    72.00000

 Normal termination of Gaussian 16 at Sun Dec 13 14:08:23 2020.
