 Gaussian 16, Revision A.03,

 -----------------------------------------------------------
 # opt freq B3LYP/6-31G(d) empiricaldispersion=gd3bj scf=xqc
 -----------------------------------------------------------

 ------------------------------
 CID_46917389_JID_3990_neutraal
 ------------------------------
 Symbolic Z-matrix:
 Charge =  0 Multiplicity = 1

 SCF Done:  E(RB3LYP) =  -670.777671054     A.U. after   15 cycles
 SCF Done:  E(RB3LYP) =  -670.779148947     A.U. after   13 cycles
 SCF Done:  E(RB3LYP) =  -670.773111115     A.U. after   16 cycles
 SCF Done:  E(RB3LYP) =  -670.779865751     A.U. after   13 cycles
 SCF Done:  E(RB3LYP) =  -670.778000067     A.U. after   15 cycles
 SCF Done:  E(RB3LYP) =  -670.781893671     A.U. after   13 cycles
 SCF Done:  E(RB3LYP) =  -670.782810423     A.U. after   13 cycles
 SCF Done:  E(RB3LYP) =  -670.783644192     A.U. after   13 cycles
 SCF Done:  E(RB3LYP) =  -670.784047479     A.U. after   13 cycles
 SCF Done:  E(RB3LYP) =  -670.784253623     A.U. after   13 cycles
 SCF Done:  E(RB3LYP) =  -670.786289689     A.U. after    9 cycles
 SCF Done:  E(RB3LYP) =  -670.786290340     A.U. after    9 cycles
 SCF Done:  E(RB3LYP) =  -670.786290668     A.U. after    8 cycles
 SCF Done:  E(RB3LYP) =  -670.786290874     A.U. after    8 cycles
 SCF Done:  E(RB3LYP) =  -670.786290862     A.U. after    7 cycles
 Optimization completed.
    -- Stationary point found.
 Normal termination of Gaussian 16 at Mon Dec 14 16:59:43 2020.

 --------------------------------------------------------------------
 #N Geom=AllCheck Guess=TCheck SCRF=Check GenChk RB3LYP/6-31G(d) Freq
 --------------------------------------------------------------------

 Structure from the checkpoint file:  "JID_3990.chk"
 ------------------------------
 CID_46917389_JID_3990_neutraal
 ------------------------------
 Charge =  0 Multiplicity = 1

 SCF Done:  E(RB3LYP) =  -670.786290862     A.U. after    1 cycles

  Exact polarizability: 117.878  -4.881  98.145  -1.268   3.329  94.694
 Approx polarizability: 158.985  -6.792 133.194  -9.314   4.314 138.576

                      1                      2                      3
                      A                      A                      A
 Frequencies --     15.5049                27.6617                39.1319
 Red. masses --      3.6017                 2.8886                 3.7128
 Frc consts  --      0.0005                 0.0013                 0.0033
 IR Inten    --      1.4687                 0.0374                 3.4981

                      4                      5                      6
                      A                      A                      A
 Frequencies --     46.2885                56.8533                74.9004
 Red. masses --      4.2526                 4.0048                 5.1147
 Frc consts  --      0.0054                 0.0076                 0.0169
 IR Inten    --      2.0831                 5.4858                 0.1617

                      7                      8                      9
                      A                      A                      A
 Frequencies --     89.5049                98.9292               111.2225
 Red. masses --      3.9615                 1.6281                 4.2509
 Frc consts  --      0.0187                 0.0094                 0.0310
 IR Inten    --      0.9933                 1.0609                 3.8150

                     10                     11                     12
                      A                      A                      A
 Frequencies --    111.4364               168.7275               219.8503
 Red. masses --      4.8784                 2.7031                 2.5380
 Frc consts  --      0.0357                 0.0453                 0.0723
 IR Inten    --      3.5103                 3.0377                 0.7974

                     13                     14                     15
                      A                      A                      A
 Frequencies --    276.7531               288.0991               308.1934
 Red. masses --      2.9802                 1.3642                 1.1625
 Frc consts  --      0.1345                 0.0667                 0.0651
 IR Inten    --      4.4133                 4.3843                20.5113

                     16                     17                     18
                      A                      A                      A
 Frequencies --    317.3413               370.2062               376.3404
 Red. masses --      1.8504                 3.1573                 2.1147
 Frc consts  --      0.1098                 0.2549                 0.1765
 IR Inten    --      3.9417                 0.7390                 0.4031

                     19                     20                     21
                      A                      A                      A
 Frequencies --    432.1651               463.6470               464.8591
 Red. masses --      2.9558                 2.4450                 2.0726
 Frc consts  --      0.3253                 0.3097                 0.2639
 IR Inten    --      5.3294                 9.9534                 3.3444

                     22                     23                     24
                      A                      A                      A
 Frequencies --    545.8102               586.6560               630.4936
 Red. masses --      2.5914                 2.6719                 2.6682
 Frc consts  --      0.4549                 0.5418                 0.6249
 IR Inten    --     40.4646                66.8228                 6.7618

                     25                     26                     27
                      A                      A                      A
 Frequencies --    651.1514               671.4672               683.5992
 Red. masses --      1.5822                 1.4973                 1.7041
 Frc consts  --      0.3953                 0.3977                 0.4692
 IR Inten    --     48.0999                91.7110                87.7741

                     28                     29                     30
                      A                      A                      A
 Frequencies --    776.7705               800.5796               804.2888
 Red. masses --      3.1737                 2.7106                 2.5262
 Frc consts  --      1.1282                 1.0236                 0.9628
 IR Inten    --     12.3765                 1.5422                10.8830

                     31                     32                     33
                      A                      A                      A
 Frequencies --    879.7875               895.8715               944.6708
 Red. masses --      1.3094                 2.0264                 1.6879
 Frc consts  --      0.5972                 0.9582                 0.8875
 IR Inten    --     74.7844                 6.2243                 1.5192

                     34                     35                     36
                      A                      A                      A
 Frequencies --    949.9654               969.2674               999.6328
 Red. masses --      1.9307                 1.8361                 2.4781
 Frc consts  --      1.0265                 1.0163                 1.4590
 IR Inten    --      4.5126                72.8153                15.3137

                     37                     38                     39
                      A                      A                      A
 Frequencies --   1022.3891              1035.1035              1086.5856
 Red. masses --      1.6299                 1.6948                 1.8477
 Frc consts  --      1.0038                 1.0699                 1.2853
 IR Inten    --      4.0309                21.6101                19.1615

                     40                     41                     42
                      A                      A                      A
 Frequencies --   1087.1630              1101.0529              1164.2911
 Red. masses --      2.0577                 1.9153                 1.7560
 Frc consts  --      1.4329                 1.3681                 1.4025
 IR Inten    --     33.1725                20.5118                46.4729

                     43                     44                     45
                      A                      A                      A
 Frequencies --   1179.7371              1201.8334              1238.9989
 Red. masses --      1.8842                 2.0149                 1.5125
 Frc consts  --      1.5451                 1.7148                 1.3680
 IR Inten    --    100.3798                57.0954                 6.3655

                     46                     47                     48
                      A                      A                      A
 Frequencies --   1250.6140              1265.7572              1295.9480
 Red. masses --      1.4338                 1.3768                 1.3622
 Frc consts  --      1.3212                 1.2996                 1.3480
 IR Inten    --     62.3627                 9.3336                18.8167

                     49                     50                     51
                      A                      A                      A
 Frequencies --   1360.9567              1362.1860              1389.6323
 Red. masses --      1.4658                 1.3728                 1.8346
 Frc consts  --      1.5996                 1.5008                 2.0873
 IR Inten    --     14.3706                12.6235                19.3095

                     52                     53                     54
                      A                      A                      A
 Frequencies --   1399.5779              1406.7824              1418.7576
 Red. masses --      1.2771                 1.5519                 1.3749
 Frc consts  --      1.4739                 1.8095                 1.6306
 IR Inten    --      3.5201                26.4212                 7.7518

                     55                     56                     57
                      A                      A                      A
 Frequencies --   1419.8110              1433.0748              1476.9349
 Red. masses --      1.5696                 1.3248                 1.0881
 Frc consts  --      1.8643                 1.6031                 1.3985
 IR Inten    --     41.9083                 9.7410                12.9918

                     58                     59                     60
                      A                      A                      A
 Frequencies --   1482.9715              1491.4802              1494.1370
 Red. masses --      1.1732                 1.0796                 1.0674
 Frc consts  --      1.5202                 1.4149                 1.4040
 IR Inten    --    107.9909                10.5973                22.6552

                     61                     62                     63
                      A                      A                      A
 Frequencies --   1504.3106              1518.6397              1533.7533
 Red. masses --      1.0503                 1.0708                 1.1027
 Frc consts  --      1.4004                 1.4551                 1.5283
 IR Inten    --      9.6235                 5.7146                17.7631

                     64                     65                     66
                      A                      A                      A
 Frequencies --   1537.4737              1717.2329              1806.6604
 Red. masses --      1.0542                 1.0838                10.0685
 Frc consts  --      1.4682                 1.8831                19.3628
 IR Inten    --      4.2767                27.3451               135.9767

                     67                     68                     69
                      A                      A                      A
 Frequencies --   1849.6423              3018.1241              3034.1870
 Red. masses --      9.6687                 1.0470                 1.0719
 Frc consts  --     19.4892                 5.6193                 5.8139
 IR Inten    --    333.6180                51.8076                15.6738

                     70                     71                     72
                      A                      A                      A
 Frequencies --   3046.4884              3049.2099              3056.2636
 Red. masses --      1.0741                 1.0521                 1.0499
 Frc consts  --      5.8735                 5.7632                 5.7782
 IR Inten    --     74.3166                 5.6380                14.4457

                     73                     74                     75
                      A                      A                      A
 Frequencies --   3070.1908              3091.1250              3093.4523
 Red. masses --      1.0683                 1.0979                 1.1028
 Frc consts  --      5.9329                 6.1807                 6.2176
 IR Inten    --      7.8117                 2.8199                47.7786

                     76                     77                     78
                      A                      A                      A
 Frequencies --   3101.7901              3112.3396              3132.5537
 Red. masses --      1.0891                 1.0992                 1.1027
 Frc consts  --      6.1735                 6.2732                 6.3755
 IR Inten    --     34.6403                 9.5859                32.2506

                     79                     80                     81
                      A                      A                      A
 Frequencies --   3145.9359              3172.6776              3505.7249
 Red. masses --      1.0952                 1.1021                 1.0503
 Frc consts  --      6.3859                 6.5360                 7.6050
 IR Inten    --      5.4572                 5.9958                33.6505

                     82                     83                     84
                      A                      A                      A
 Frequencies --   3529.2708              3587.7349              3685.4124
 Red. masses --      1.0642                 1.0934                 1.0640
 Frc consts  --      7.8099                 8.2921                 8.5143
 IR Inten    --    106.3620                34.1387                92.6366

 - Thermochemistry -
 -------------------
 Temperature   298.150 Kelvin.  Pressure   1.00000 Atm.
 Atom     1 has atomic number  6 and mass  12.00000

 Molecular mass:   191.11576 amu.
 Principal axes and moments of inertia in atomic units:
                           1         2         3
     Eigenvalues --  1789.200944129.929924819.22961
           X            0.99967  -0.02555   0.00015
           Y            0.02554   0.99944   0.02176
           Z           -0.00071  -0.02175   0.99976
 This molecule is an asymmetric top.
 Rotational symmetry number  1.
 Warning -- assumption of classical behavior for rotation
           may cause significant error
 Rotational temperatures (Kelvin)      0.04841     0.02097     0.01797
 Rotational constants (GHZ):           1.00869     0.43699     0.37449
 Zero-point vibrational energy     676569.6 (Joules/Mol)
                                  161.70401 (Kcal/Mol)
 Warning -- explicit consideration of  23 degrees of freedom as
           vibrations may cause significant error
 Vibrational temperatures:     22.31    39.80    56.30    66.60    81.80
          (Kelvin)            107.76   128.78   142.34   160.02   160.33
                              242.76   316.32   398.19   414.51   443.42
                              456.58   532.64   541.47   621.79   667.08
                              668.83   785.30   844.07   907.14   936.86
                              966.09   983.55  1117.60  1151.86  1157.19
                             1265.82  1288.96  1359.17  1366.79  1394.56
                             1438.25  1470.99  1489.28  1563.35  1564.19
                             1584.17  1675.16  1697.38  1729.17  1782.64
                             1799.35  1821.14  1864.58  1958.11  1959.88
                             1999.37  2013.68  2024.05  2041.28  2042.79
                             2061.87  2124.98  2133.67  2145.91  2149.73
                             2164.37  2184.98  2206.73  2212.08  2470.72
                             2599.38  2661.22  4342.41  4365.52  4383.22
                             4387.13  4397.28  4417.32  4447.44  4450.79
                             4462.78  4477.96  4507.05  4526.30  4564.78
                             5043.96  5077.83  5161.95  5302.49

 Zero-point correction=                           0.257692 (Hartree/Particle)
 Thermal correction to Energy=                    0.274588
 Thermal correction to Enthalpy=                  0.275532
 Thermal correction to Gibbs Free Energy=         0.209703
 Sum of electronic and zero-point Energies=           -670.528599
 Sum of electronic and thermal Energies=              -670.511703
 Sum of electronic and thermal Enthalpies=            -670.510759
 Sum of electronic and thermal Free Energies=         -670.576588

                     E (Thermal)             CV                S
                      KCal/Mol        Cal/Mol-Kelvin    Cal/Mol-Kelvin
 Total                  172.306             58.070            138.548
 Electronic               0.000              0.000              0.000
 Translational            0.889              2.981             41.649
 Rotational               0.889              2.981             31.943
 Vibrational            170.529             52.109             64.956
 Vibration     1          0.593              1.986              7.140
 Vibration     2          0.593              1.984              5.990
 Vibration     3          0.594              1.981              5.303
 Vibration     4          0.595              1.979              4.970
 Vibration     5          0.596              1.975              4.564
 Vibration     6          0.599              1.966              4.020
 Vibration     7          0.602              1.957              3.671
 Vibration     8          0.604              1.950              3.475
 Vibration     9          0.607              1.940              3.247
 Vibration    10          0.607              1.940              3.244
 Vibration    11          0.625              1.881              2.450
 Vibration    12          0.647              1.811              1.960
 Vibration    13          0.678              1.716              1.554
 Vibration    14          0.685              1.696              1.485
 Vibration    15          0.698              1.658              1.372
 Vibration    16          0.704              1.640              1.324
 Vibration    17          0.742              1.533              1.079
 Vibration    18          0.747              1.521              1.054
 Vibration    19          0.793              1.400              0.852
 Vibration    20          0.821              1.331              0.756
 Vibration    21          0.822              1.328              0.752
 Vibration    22          0.901              1.149              0.553
 Vibration    23          0.944              1.060              0.473

 Optimization completed.
    -- Stationary point found.
 Normal termination of Gaussian 16 at Mon Dec 14 17:06:53 2020.

 ----------------------------------------------------------------------
 # B3LYP/6-311++G(d,p) empiricaldispersion=gd3bj scf=xqc pop=npa geom=c
 heck
 ----------------------------------------------------------------------

 --------------------------------------
 CID_46917389_JID_3990_Energie_neutraal
 --------------------------------------
 Structure from the checkpoint file:  "JID_3990.chk"
 Charge =  0 Multiplicity = 1

 SCF Done:  E(RB3LYP) =  -671.013926369     A.U. after   13 cycles
 Normal termination of Gaussian 16 at Mon Dec 14 17:09:56 2020.

 ----------------------------------------------------------------------
 # B3LYP/6-311++G(d,p) empiricaldispersion=gd3bj scf=xqc pop=npa geom=c
 heck
 ----------------------------------------------------------------------

 ------------------------------------
 CID_46917389_JID_3990_Energie_kation
 ------------------------------------
 Structure from the checkpoint file:  "JID_3990.chk"
 Charge =  1 Multiplicity = 2

 SCF Done:  E(UB3LYP) =  -670.696408313     A.U. after   21 cycles
 Normal termination of Gaussian 16 at Mon Dec 14 17:16:55 2020.
 Gaussian 16:  ES64L-G16RevA.03 25-Dec-2016

 ----------------------------------------------------------------------
 # B3LYP/6-311++G(d,p) empiricaldispersion=gd3bj scf=xqc pop=npa geom=c
 heck
 ----------------------------------------------------------------------

 -----------------------------------
 CID_46917389_JID_3990_Energie_anion
 -----------------------------------
 Structure from the checkpoint file:  "JID_3990.chk"
 Charge = -1 Multiplicity = 2

                         Standard orientation:
 ---------------------------------------------------------------------
 Center     Atomic      Atomic             Coordinates (Angstroms)
 Number     Number       Type             X           Y           Z
 ---------------------------------------------------------------------
      1          6           0        1.971437    0.128203    1.540376
      2          6           0        3.115491    0.134791    0.518167
      3          6           0        2.755928   -0.626952   -0.772792
      4          7           0        1.874414    0.227944   -1.582118
      5          8           0        3.482212    1.462324    0.184298
      6          6           0       -2.693673    2.524330    0.260433
      7          6           0       -2.151373    1.193300   -0.210744
      8          8           0       -1.022234    1.082221   -0.655243
      9          6           0       -3.073993   -0.010720   -0.086998
     10          6           0       -2.416394   -1.304199   -0.566905
     11          6           0       -1.116754   -1.628821    0.138992
     12          8           0       -0.166128   -2.179726   -0.368838
     13          8           0       -1.146238   -1.267113    1.445147
     14          1           0        1.055748    0.547560    1.108727
     15          1           0        2.244355    0.734674    2.409393
     16          1           0        1.773267   -0.897878    1.884063
     17          1           0        3.993028   -0.341360    0.975624
     18          1           0        3.677424   -0.784582   -1.343978
     19          1           0        2.324453   -1.608953   -0.535642
     20          1           0        1.891387   -0.067409   -2.554195
     21          1           0        0.907980    0.155925   -1.271091
     22          1           0        2.918895    1.651117   -0.598077
     23          1           0       -3.658077    2.744506   -0.212147
     24          1           0       -1.977874    3.317322    0.037690
     25          1           0       -2.868375    2.486750    1.343145
     26          1           0       -3.386186   -0.094843    0.960990
     27          1           0       -3.989297    0.189168   -0.660161
     28          1           0       -3.101973   -2.145401   -0.405118
     29          1           0       -2.191487   -1.265324   -1.634562
     30          1           0       -0.259074   -1.458114    1.804069
 ---------------------------------------------------------------------

 SCF Done:  E(UB3LYP) =  -671.007676572     A.U. after   33 cycles
 SCF Done:  E(UB3LYP) =  -671.007676572     a.u. after    1 cycles

 The electronic state is 2-A.
 Alpha  occ. eigenvalues --  -19.07179 -19.01533 -19.01400 -19.00920 -14.19996
 Alpha  occ. eigenvalues --  -10.20739 -10.16047 -10.12204 -10.09648 -10.08411
 Alpha  occ. eigenvalues --  -10.07741 -10.06945 -10.06387  -1.01213  -0.94767
 Alpha  occ. eigenvalues --   -0.92312  -0.91926  -0.78485  -0.70203  -0.65799
 Alpha  occ. eigenvalues --   -0.64862  -0.57933  -0.57761  -0.51169  -0.48991
 Alpha  occ. eigenvalues --   -0.43597  -0.41600  -0.39710  -0.39574  -0.38216
 Alpha  occ. eigenvalues --   -0.37757  -0.36997  -0.35970  -0.34410  -0.34182
 Alpha  occ. eigenvalues --   -0.33304  -0.32112  -0.31560  -0.30543  -0.30196
 Alpha  occ. eigenvalues --   -0.28637  -0.27380  -0.27099  -0.26794  -0.25681
 Alpha  occ. eigenvalues --   -0.25390  -0.22971  -0.22392  -0.18497  -0.17365
 Alpha  occ. eigenvalues --   -0.15970  -0.15530   0.04258
 Alpha virt. eigenvalues --    0.06543   0.07092   0.07585   0.07904   0.08957
 Alpha virt. eigenvalues --    0.09602   0.10028   0.10131   0.10630   0.11263
 Alpha virt. eigenvalues --    0.11834   0.12025   0.12517   0.13178   0.13296

  Beta  occ. eigenvalues --  -19.07151 -19.01521 -19.01345 -19.00918 -14.19991
  Beta  occ. eigenvalues --  -10.20714 -10.15982 -10.12202 -10.09646 -10.08381
  Beta  occ. eigenvalues --  -10.07694 -10.06901 -10.06373  -1.01165  -0.94649
  Beta  occ. eigenvalues --   -0.92277  -0.91920  -0.78479  -0.70113  -0.65784
  Beta  occ. eigenvalues --   -0.64752  -0.57855  -0.57711  -0.51081  -0.48979
  Beta  occ. eigenvalues --   -0.43452  -0.41582  -0.39655  -0.39497  -0.38170
  Beta  occ. eigenvalues --   -0.37720  -0.36977  -0.35841  -0.34320  -0.34101
  Beta  occ. eigenvalues --   -0.33282  -0.32085  -0.31513  -0.30513  -0.30133
  Beta  occ. eigenvalues --   -0.28567  -0.27342  -0.27035  -0.26717  -0.25671
  Beta  occ. eigenvalues --   -0.25178  -0.22918  -0.22384  -0.18459  -0.17355
  Beta  occ. eigenvalues --   -0.15937  -0.15494
  Beta virt. eigenvalues --    0.06544   0.07365   0.07664   0.08071   0.08474
  Beta virt. eigenvalues --    0.09177   0.10071   0.10234   0.10543   0.11252
  Beta virt. eigenvalues --    0.11402   0.11952   0.12563   0.12768   0.13277

 Mulliken charges and spin densities:
               1          2
     1  C   -0.342684  -0.002936
     2  C   -0.065727  -0.135143
     3  C   -0.445696  -0.013159
     4  N   -0.498097   0.011474
     5  O   -0.234520   0.005998
     6  C    1.884070  -2.536344
     7  C   -1.348170   1.722625
     8  O   -0.231707   0.052416
     9  C    1.531347  -1.932489
    10  C   -0.188377   0.042646
    11  C   -0.072164  -0.299086
    12  O   -0.248656   0.052407
    13  O   -0.135105   0.087655
    14  H    0.264475  -0.132809
    15  H    0.028962   0.131850
    16  H    0.015677   0.063605
    17  H    0.114427   0.037102
    18  H    0.144821   0.015563
    19  H    0.128976   0.046480
    20  H    0.191612   0.048980
    21  H    0.381363  -0.062681
    22  H    0.263900   0.012749
    23  H   -0.543769   0.720692
    24  H   -0.063096   0.219170
    25  H   -0.115511   0.277648
    26  H    0.093920   0.113375
    27  H   -0.883707   1.108993
    28  H   -0.655953   0.875304
    29  H    0.106054   0.101208
    30  H   -0.076665   0.366708
 Sum of Mulliken charges =  -1.00000   1.00000

 Dipole moment (field-independent basis, Debye):
    X=              8.1317    Y=             -1.9415    Z=              0.6539  Tot=              8.3858
 Quadrupole moment (field-independent basis, Debye-Ang):
   XX=           -167.4749   YY=           -123.0372   ZZ=           -103.8060
   XY=             -2.5984   XZ=             -8.8340   YZ=              1.6675

 Summary of Natural Population Analysis:

                                       Natural Population
                Natural  -----------------------------------------------
    Atom  No    Charge         Core      Valence    Rydberg      Total
 -----------------------------------------------------------------------
      C    1   -0.30311      0.99964     2.29524    0.00823     3.30311
      C    2    0.05848      0.99960     1.92796    0.01396     2.94152
      C    3   -0.10472      0.99963     2.09554    0.00956     3.10472
      N    4   -0.44182      0.99975     2.93257    0.00950     3.94182
      O    5   -0.38532      0.99990     3.37841    0.00701     4.38532
      C    6   -0.33367      0.99962     2.32855    0.00549     3.33367
      C    7    0.31214      0.99968     1.66795    0.02023     2.68786
      O    8   -0.30042      0.99986     3.29315    0.00741     4.30042
      C    9   -0.24104      0.99958     2.23194    0.00951     3.24104
      C   10   -0.23851      0.99958     2.22782    0.01112     3.23851
      C   11    0.41517      0.99972     1.55800    0.02711     2.58483
      O   12   -0.31528      0.99986     3.30896    0.00645     4.31528
      O   13   -0.34919      0.99987     3.34259    0.00673     4.34919
      H   14    0.10670      0.00000     0.39176    0.00154     0.39330
      H   15    0.10134      0.00000     0.39773    0.00093     0.39866
      H   16    0.08883      0.00000     0.40949    0.00168     0.41117
      H   17    0.07862      0.00000     0.41991    0.00147     0.42138
      H   18    0.08722      0.00000     0.41167    0.00110     0.41278
      H   19    0.09641      0.00000     0.40208    0.00151     0.40359
      H   20    0.17732      0.00000     0.32095    0.00173     0.32268
      H   21    0.19668      0.00000     0.30091    0.00241     0.30332
      H   22    0.24077      0.00000     0.25583    0.00340     0.25923
      H   23    0.11714      0.00000     0.37869    0.00417     0.38286
      H   24    0.10872      0.00000     0.39030    0.00098     0.39128
      H   25    0.11096      0.00000     0.38797    0.00107     0.38904
      H   26    0.11556      0.00000     0.38268    0.00175     0.38444
      H   27    0.12455      0.00000     0.36397    0.01148     0.37545
      H   28    0.12012      0.00000     0.37732    0.00256     0.37988
      H   29    0.11382      0.00000     0.38494    0.00125     0.38618
      H   30    0.24252      0.00000     0.25356    0.00391     0.25748
 =======================================================================
   * Total *   -0.00000     12.99630    38.81843    0.18526    52.00000

 Normal termination of Gaussian 16 at Mon Dec 14 17:27:53 2020.
