 Gaussian 16, Revision A.03,

 -----------------------------------------------------------
 # opt freq B3LYP/6-31G(d) empiricaldispersion=gd3bj scf=xqc
 -----------------------------------------------------------

 -------------------------------
 CID_116364174_JID_6613_neutraal
 -------------------------------
 Symbolic Z-matrix:
 Charge =  0 Multiplicity = 1

 SCF Done:  E(RB3LYP) =  -731.704033739     A.U. after   14 cycles
 SCF Done:  E(RB3LYP) =  -731.715216454     A.U. after   12 cycles
 SCF Done:  E(RB3LYP) =  -731.706806238     A.U. after   12 cycles
 SCF Done:  E(RB3LYP) =  -731.712194017     A.U. after   12 cycles
 SCF Done:  E(RB3LYP) =  -731.717072819     A.U. after    9 cycles
 SCF Done:  E(RB3LYP) =  -731.717946343     A.U. after   11 cycles
 SCF Done:  E(RB3LYP) =  -731.718356481     A.U. after   12 cycles
 SCF Done:  E(RB3LYP) =  -731.718633209     A.U. after   11 cycles
 SCF Done:  E(RB3LYP) =  -731.718858340     A.U. after   10 cycles
 SCF Done:  E(RB3LYP) =  -731.718837613     A.U. after   11 cycles
 SCF Done:  E(RB3LYP) =  -731.718967808     A.U. after    9 cycles
 SCF Done:  E(RB3LYP) =  -731.718970413     A.U. after    9 cycles
 SCF Done:  E(RB3LYP) =  -731.718973081     A.U. after    9 cycles
 SCF Done:  E(RB3LYP) =  -731.718973577     A.U. after    8 cycles
 SCF Done:  E(RB3LYP) =  -731.718973779     A.U. after    7 cycles
 Optimization completed.
    -- Stationary point found.
 Normal termination of Gaussian 16 at Thu Dec 10 22:24:58 2020.

 --------------------------------------------------------------------
 #N Geom=AllCheck Guess=TCheck SCRF=Check GenChk RB3LYP/6-31G(d) Freq
 --------------------------------------------------------------------

 Structure from the checkpoint file:  "JID_6613.chk"
 -------------------------------
 CID_116364174_JID_6613_neutraal
 -------------------------------
 Charge =  0 Multiplicity = 1

 SCF Done:  E(RB3LYP) =  -731.718973779     A.U. after    1 cycles

  Exact polarizability: 155.404  -2.093 153.871  -1.555   3.253 120.477
 Approx polarizability: 198.629  -6.844 211.992  -1.901  10.211 187.343

                      1                      2                      3
                      A                      A                      A
 Frequencies --     34.6242                38.6692                50.7740
 Red. masses --      4.8545                 3.0759                 4.9121
 Frc consts  --      0.0034                 0.0027                 0.0075
 IR Inten    --      0.4573                 0.0938                 1.4318

                      4                      5                      6
                      A                      A                      A
 Frequencies --     62.4070                81.8084                99.4689
 Red. masses --      4.0088                 3.0768                 3.0662
 Frc consts  --      0.0092                 0.0121                 0.0179
 IR Inten    --      0.3713                 0.1729                 3.7103

                      7                      8                      9
                      A                      A                      A
 Frequencies --    119.8714               123.3756               133.4270
 Red. masses --      2.8897                 2.5993                 3.3986
 Frc consts  --      0.0245                 0.0233                 0.0356
 IR Inten    --      0.0649                 0.3842                 0.1549

                     10                     11                     12
                      A                      A                      A
 Frequencies --    155.0893               184.1185               206.9183
 Red. masses --      2.1821                 3.4179                 1.4307
 Frc consts  --      0.0309                 0.0683                 0.0361
 IR Inten    --      1.7619                 0.9098                 0.2946

                     13                     14                     15
                      A                      A                      A
 Frequencies --    237.4554               245.7167               264.4720
 Red. masses --      2.2450                 1.1207                 2.6861
 Frc consts  --      0.0746                 0.0399                 0.1107
 IR Inten    --      3.0054                 0.7249                11.4910

                     16                     17                     18
                      A                      A                      A
 Frequencies --    297.3557               305.0415               316.0526
 Red. masses --      1.4764                 1.6000                 2.7115
 Frc consts  --      0.0769                 0.0877                 0.1596
 IR Inten    --    114.6438                22.3411                 1.0838

                     19                     20                     21
                      A                      A                      A
 Frequencies --    346.1859               373.7626               390.2037
 Red. masses --      2.8848                 2.0472                 2.6883
 Frc consts  --      0.2037                 0.1685                 0.2412
 IR Inten    --      0.7273                17.5160                 0.5360

                     22                     23                     24
                      A                      A                      A
 Frequencies --    425.8186               437.9552               462.4791
 Red. masses --      2.2948                 2.5284                 2.8329
 Frc consts  --      0.2452                 0.2857                 0.3570
 IR Inten    --      5.0376                 2.9621                 0.1131

                     25                     26                     27
                      A                      A                      A
 Frequencies --    487.9592               532.3990               586.6619
 Red. masses --      3.4508                 2.7956                 2.6625
 Frc consts  --      0.4841                 0.4669                 0.5399
 IR Inten    --      0.8870                 8.1759                52.7587

                     28                     29                     30
                      A                      A                      A
 Frequencies --    623.1959               665.7092               712.8354
 Red. masses --      1.7106                 1.9779                 2.3767
 Frc consts  --      0.3914                 0.5164                 0.7115
 IR Inten    --     37.2075                13.1874                29.9739

                     31                     32                     33
                      A                      A                      A
 Frequencies --    750.6844               768.9596               797.9543
 Red. masses --      1.7020                 1.6643                 1.3178
 Frc consts  --      0.5651                 0.5798                 0.4944
 IR Inten    --     21.3598                 2.7631                49.7992

                     34                     35                     36
                      A                      A                      A
 Frequencies --    809.6856               857.4637               858.6606
 Red. masses --      1.3289                 2.2379                 2.1663
 Frc consts  --      0.5133                 0.9695                 0.9411
 IR Inten    --     28.1387                 2.2719                 5.3991

                     37                     38                     39
                      A                      A                      A
 Frequencies --    866.8503               883.4742               903.6571
 Red. masses --      1.8933                 1.7510                 2.0127
 Frc consts  --      0.8382                 0.8052                 0.9684
 IR Inten    --      0.5444                 4.1453                 0.7143

                     40                     41                     42
                      A                      A                      A
 Frequencies --    918.9864               954.9896               960.4902
 Red. masses --      1.7520                 2.4381                 1.8875
 Frc consts  --      0.8718                 1.3101                 1.0260
 IR Inten    --      0.2964                 1.5927                42.3607

                     43                     44                     45
                      A                      A                      A
 Frequencies --    982.5707               985.0219              1015.2145
 Red. masses --      1.7804                 2.4667                 1.6447
 Frc consts  --      1.0128                 1.4101                 0.9987
 IR Inten    --      3.7977                 1.9854                 9.8218

                     46                     47                     48
                      A                      A                      A
 Frequencies --   1029.9689              1053.9463              1064.2948
 Red. masses --      1.3993                 2.0931                 3.2516
 Frc consts  --      0.8746                 1.3699                 2.1701
 IR Inten    --      3.1744                 6.8600                10.9042

                     49                     50                     51
                      A                      A                      A
 Frequencies --   1071.1148              1088.8758              1091.9369
 Red. masses --      1.2064                 2.6488                 3.3888
 Frc consts  --      0.8155                 1.8504                 2.3806
 IR Inten    --      3.0318                 2.4673                89.7414

                     52                     53                     54
                      A                      A                      A
 Frequencies --   1128.5594              1164.7900              1169.6449
 Red. masses --      2.1314                 2.0265                 2.4857
 Frc consts  --      1.5994                 1.6199                 2.0036
 IR Inten    --     11.5956                 6.0755                18.4282

                     55                     56                     57
                      A                      A                      A
 Frequencies --   1190.8557              1196.7881              1204.7062
 Red. masses --      1.9885                 2.6483                 1.5952
 Frc consts  --      1.6615                 2.2348                 1.3641
 IR Inten    --     22.7601                10.5202                 6.6471

                     58                     59                     60
                      A                      A                      A
 Frequencies --   1219.5907              1238.5101              1266.5489
 Red. masses --      1.3116                 1.3570                 1.3935
 Frc consts  --      1.1494                 1.2264                 1.3170
 IR Inten    --      6.7347                11.2061                 5.6025

                     61                     62                     63
                      A                      A                      A
 Frequencies --   1272.1532              1278.7489              1293.4200
 Red. masses --      1.3151                 1.3641                 1.4877
 Frc consts  --      1.2539                 1.3142                 1.4664
 IR Inten    --      8.7000                 1.2289                 2.7424

                     64                     65                     66
                      A                      A                      A
 Frequencies --   1297.9293              1307.2568              1334.0817
 Red. masses --      1.6214                 1.2446                 1.9796
 Frc consts  --      1.6093                 1.2532                 2.0759
 IR Inten    --      6.6871                 8.0734                37.5158

                     67                     68                     69
                      A                      A                      A
 Frequencies --   1354.6273              1359.4776              1368.5703
 Red. masses --      1.2977                 1.2987                 1.2701
 Frc consts  --      1.4030                 1.4142                 1.4016
 IR Inten    --      6.9085                 2.8091                 5.6988

                     70                     71                     72
                      A                      A                      A
 Frequencies --   1398.6625              1401.9305              1407.2198
 Red. masses --      1.4680                 1.2693                 1.4174
 Frc consts  --      1.6920                 1.4698                 1.6538
 IR Inten    --     22.6488                20.4530                15.4902

                     73                     74                     75
                      A                      A                      A
 Frequencies --   1417.5854              1435.1216              1439.6767
 Red. masses --      2.3040                 1.3164                 1.2581
 Frc consts  --      2.7280                 1.5974                 1.5364
 IR Inten    --     77.4874                63.3114                 3.8852

                     76                     77                     78
                      A                      A                      A
 Frequencies --   1442.1532              1498.8465              1500.3372
 Red. masses --      1.2762                 1.1309                 1.3086
 Frc consts  --      1.5638                 1.4969                 1.7355
 IR Inten    --     10.0980                 6.2855                32.3929

                     79                     80                     81
                      A                      A                      A
 Frequencies --   1502.6242              1508.2131              1510.2018
 Red. masses --      1.3081                 1.1455                 1.1121
 Frc consts  --      1.7402                 1.5352                 1.4944
 IR Inten    --     10.1104                 8.2662                 8.2182

                     82                     83                     84
                      A                      A                      A
 Frequencies --   1519.6446              1522.7029              1527.2296
 Red. masses --      1.0682                 1.0963                 1.1004
 Frc consts  --      1.4534                 1.4977                 1.5122
 IR Inten    --      1.3266                 2.4873                 2.9665

                     85                     86                     87
                      A                      A                      A
 Frequencies --   1531.2732              1534.0115              1537.4375
 Red. masses --      1.0692                 1.0540                 1.1085
 Frc consts  --      1.4772                 1.4613                 1.5437
 IR Inten    --      6.7829                 4.7626                 6.5750

                     88                     89                     90
                      A                      A                      A
 Frequencies --   1543.7910              1546.2217              1782.8273
 Red. masses --      1.0833                 1.0882                 7.8522
 Frc consts  --      1.5212                 1.5328                14.7049
 IR Inten    --      9.1321                16.4536               401.4557

                     91                     92                     93
                      A                      A                      A
 Frequencies --   2983.4536              3026.2963              3043.0646
 Red. masses --      1.0708                 1.0663                 1.0566
 Frc consts  --      5.6155                 5.7540                 5.7650
 IR Inten    --     71.4710                23.9788                26.5248

                     94                     95                     96
                      A                      A                      A
 Frequencies --   3048.6360              3050.6208              3053.7650
 Red. masses --      1.0439                 1.0364                 1.0655
 Frc consts  --      5.7166                 5.6829                 5.8541
 IR Inten    --     45.3693                15.0926                11.1521

                     97                     98                     99
                      A                      A                      A
 Frequencies --   3057.4955              3067.7541              3071.1518
 Red. masses --      1.0642                 1.1018                 1.0610
 Frc consts  --      5.8614                 6.1091                 5.8961
 IR Inten    --     50.4429                15.7418                26.5667

                    100                    101                    102
                      A                      A                      A
 Frequencies --   3082.2740              3085.9216              3094.9059
 Red. masses --      1.0611                 1.0927                 1.0959
 Frc consts  --      5.9396                 6.1310                 6.1844
 IR Inten    --     34.4317                37.4849                21.7237

                    103                    104                    105
                      A                      A                      A
 Frequencies --   3111.3641              3112.0860              3116.2853
 Red. masses --      1.0968                 1.0998                 1.1002
 Frc consts  --      6.2556                 6.2760                 6.2948
 IR Inten    --     27.6751                40.0807                19.3741

                    106                    107                    108
                      A                      A                      A
 Frequencies --   3119.8584              3123.6348              3132.3969
 Red. masses --      1.1051                 1.1017                 1.1019
 Frc consts  --      6.3377                 6.3334                 6.3700
 IR Inten    --     10.0125                51.5233                 0.9958

                    109                    110                    111
                      A                      A                      A
 Frequencies --   3135.3884              3142.5162              3145.2739
 Red. masses --      1.1029                 1.1011                 1.0885
 Frc consts  --      6.3879                 6.4066                 6.3443
 IR Inten    --     27.2779                83.3398                12.3839

                    112                    113                    114
                      A                      A                      A
 Frequencies --   3467.8290              3562.3076              3740.0612
 Red. masses --      1.0734                 1.0748                 1.0657
 Frc consts  --      7.6058                 8.0362                 8.7829
 IR Inten    --      0.0980                 8.8472                 7.2399

 - Thermochemistry -
 -------------------
 Temperature   298.150 Kelvin.  Pressure   1.00000 Atm.
 Atom     1 has atomic number  6 and mass  12.00000

 Molecular mass:   228.18378 amu.
 Principal axes and moments of inertia in atomic units:
                           1         2         3
     Eigenvalues --  3012.963894624.377266707.23600
           X            0.99988  -0.01405  -0.00604
           Y            0.01401   0.99988  -0.00708
           Z            0.00614   0.00699   0.99996
 This molecule is an asymmetric top.
 Rotational symmetry number  1.
 Warning -- assumption of classical behavior for rotation
           may cause significant error
 Rotational temperatures (Kelvin)      0.02875     0.01873     0.01291
 Rotational constants (GHZ):           0.59899     0.39027     0.26907
 Zero-point vibrational energy     947711.1 (Joules/Mol)
                                  226.50839 (Kcal/Mol)
 Warning -- explicit consideration of  27 degrees of freedom as
           vibrations may cause significant error
 Vibrational temperatures:     49.82    55.64    73.05    89.79   117.70
          (Kelvin)            143.11   172.47   177.51   191.97   223.14
                              264.91   297.71   341.65   353.53   380.52
                              427.83   438.89   454.73   498.08   537.76
                              561.42   612.66   630.12   665.40   702.06
                              766.00   844.08   896.64   957.81  1025.61
                             1080.07  1106.36  1148.08  1164.96  1233.70
                             1235.42  1247.20  1271.12  1300.16  1322.22
                             1374.02  1381.93  1413.70  1417.23  1460.67
                             1481.90  1516.39  1531.28  1541.10  1566.65
                             1571.05  1623.75  1675.87  1682.86  1713.38
                             1721.91  1733.30  1754.72  1781.94  1822.28
                             1830.34  1839.83  1860.94  1867.43  1880.85
                             1919.45  1949.01  1955.99  1969.07  2012.36
                             2017.07  2024.68  2039.59  2064.82  2071.37
                             2074.94  2156.51  2158.65  2161.94  2169.98
                             2172.84  2186.43  2190.83  2197.34  2203.16
                             2207.10  2212.03  2221.17  2224.67  2565.09
                             4292.52  4354.17  4378.29  4386.31  4389.16
                             4393.69  4399.05  4413.81  4418.70  4434.70
                             4439.95  4452.88  4476.56  4477.60  4483.64
                             4488.78  4494.21  4506.82  4511.12  4521.38
                             4525.35  4989.43  5125.37  5381.11

 Zero-point correction=                           0.360964 (Hartree/Particle)
 Thermal correction to Energy=                    0.379433
 Thermal correction to Enthalpy=                  0.380377
 Thermal correction to Gibbs Free Energy=         0.313896
 Sum of electronic and zero-point Energies=           -731.358010
 Sum of electronic and thermal Energies=              -731.339541
 Sum of electronic and thermal Enthalpies=            -731.338597
 Sum of electronic and thermal Free Energies=         -731.405078

                     E (Thermal)             CV                S
                      KCal/Mol        Cal/Mol-Kelvin    Cal/Mol-Kelvin
 Total                  238.098             68.876            139.922
 Electronic               0.000              0.000              0.000
 Translational            0.889              2.981             42.177
 Rotational               0.889              2.981             32.902
 Vibrational            236.320             62.914             64.843
 Vibration     1          0.594              1.983              5.545
 Vibration     2          0.594              1.981              5.326
 Vibration     3          0.595              1.977              4.787
 Vibration     4          0.597              1.972              4.380
 Vibration     5          0.600              1.962              3.847
 Vibration     6          0.604              1.949              3.465
 Vibration     7          0.609              1.933              3.102
 Vibration     8          0.610              1.930              3.047
 Vibration     9          0.613              1.920              2.896
 Vibration    10          0.620              1.897              2.609
 Vibration    11          0.631              1.861              2.286
 Vibration    12          0.641              1.830              2.071
 Vibration    13          0.656              1.783              1.822
 Vibration    14          0.660              1.770              1.761
 Vibration    15          0.671              1.738              1.632
 Vibration    16          0.691              1.679              1.432
 Vibration    17          0.696              1.664              1.389
 Vibration    18          0.703              1.643              1.330
 Vibration    19          0.724              1.583              1.183
 Vibration    20          0.745              1.526              1.064
 Vibration    21          0.758              1.491              0.999
 Vibration    22          0.788              1.414              0.872
 Vibration    23          0.798              1.387              0.833
 Vibration    24          0.820              1.333              0.759
 Vibration    25          0.844              1.277              0.689
 Vibration    26          0.887              1.178              0.582
 Vibration    27          0.944              1.060              0.473

 Optimization completed.
    -- Stationary point found.
 Normal termination of Gaussian 16 at Thu Dec 10 22:40:00 2020.

 ----------------------------------------------------------------------
 # B3LYP/6-311++G(d,p) empiricaldispersion=gd3bj scf=xqc pop=npa geom=c
 heck
 ----------------------------------------------------------------------

 ---------------------------------------
 CID_116364174_JID_6613_Energie_neutraal
 ---------------------------------------
 Structure from the checkpoint file:  "JID_6613.chk"
 Charge =  0 Multiplicity = 1

 SCF Done:  E(RB3LYP) =  -731.943467079     A.U. after   14 cycles
 Normal termination of Gaussian 16 at Thu Dec 10 22:46:48 2020.

 ----------------------------------------------------------------------
 # B3LYP/6-311++G(d,p) empiricaldispersion=gd3bj scf=xqc pop=npa geom=c
 heck
 ----------------------------------------------------------------------

 -------------------------------------
 CID_116364174_JID_6613_Energie_kation
 -------------------------------------
 Structure from the checkpoint file:  "JID_6613.chk"
 Charge =  1 Multiplicity = 2

 SCF Done:  E(UB3LYP) =  -731.646370725     A.U. after   29 cycles
 Normal termination of Gaussian 16 at Thu Dec 10 23:07:01 2020.
 Gaussian 16:  ES64L-G16RevA.03 25-Dec-2016

 ----------------------------------------------------------------------
 # B3LYP/6-311++G(d,p) empiricaldispersion=gd3bj scf=xqc pop=npa geom=c
 heck
 ----------------------------------------------------------------------

 ------------------------------------
 CID_116364174_JID_6613_Energie_anion
 ------------------------------------
 Structure from the checkpoint file:  "JID_6613.chk"
 Charge = -1 Multiplicity = 2

                         Standard orientation:
 ---------------------------------------------------------------------
 Center     Atomic      Atomic             Coordinates (Angstroms)
 Number     Number       Type             X           Y           Z
 ---------------------------------------------------------------------
      1          6           0       -1.724881    2.783842    0.138648
      2          6           0       -2.834864    2.026409   -0.596778
      3          6           0       -2.507801    0.552593   -0.876462
      4          6           0       -2.208150   -0.309741    0.363416
      5          6           0       -3.337053   -0.297660    1.398570
      6          7           0       -1.937561   -1.688058   -0.042334
      7          6           0       -0.739124   -2.325525   -0.205548
      8          8           0       -0.672384   -3.429725   -0.736526
      9          6           0        0.522558   -1.619879    0.290753
     10          7           0        0.847769   -0.513865   -0.621190
     11          6           0        1.970820    0.339977   -0.242006
     12          6           0        2.039422    1.660863   -1.064195
     13          6           0        2.192679    2.453330    0.259270
     14          6           0        1.725186    1.196181    1.036269
     15          6           0        3.346050   -0.346028   -0.230542
     16          8           0        3.490855   -1.365814    0.748512
     17          1           0       -1.559101    2.386512    1.146779
     18          1           0       -1.973365    3.845731    0.242818
     19          1           0       -0.776138    2.711099   -0.404315
     20          1           0       -3.770508    2.103108   -0.028179
     21          1           0       -3.027996    2.520410   -1.557730
     22          1           0       -3.348209    0.096187   -1.419227
     23          1           0       -1.629284    0.486338   -1.528241
     24          1           0       -1.296646    0.064621    0.830448
     25          1           0       -4.276233   -0.653649    0.955888
     26          1           0       -3.089871   -0.951283    2.240640
     27          1           0       -3.512870    0.711564    1.783881
     28          1           0       -2.708240   -2.194508   -0.466034
     29          1           0        0.365995   -1.198355    1.291224
     30          1           0        1.301483   -2.383342    0.367046
     31          1           0        1.027208   -0.904130   -1.546756
     32          1           0        2.846786    1.746315   -1.799687
     33          1           0        1.082897    1.847591   -1.558430
     34          1           0        1.579432    3.351385    0.370621
     35          1           0        3.232919    2.716678    0.472509
     36          1           0        0.661045    1.236849    1.279156
     37          1           0        2.279084    0.931044    1.945087
     38          1           0        3.507412   -0.838975   -1.196255
     39          1           0        4.135126    0.416767   -0.118887
     40          1           0        3.360801   -0.956362    1.618041
 ---------------------------------------------------------------------

 SCF Done:  E(UB3LYP) =  -731.934472287     A.U. after   33 cycles
 SCF Done:  E(UB3LYP) =  -731.934472287     a.u. after    1 cycles

 The electronic state is 2-A.
 Alpha  occ. eigenvalues --  -19.03167 -18.99405 -14.24138 -14.21471 -10.17755
 Alpha  occ. eigenvalues --  -10.12540 -10.12205 -10.11814 -10.10442 -10.07885
 Alpha  occ. eigenvalues --  -10.07745 -10.07666 -10.07548 -10.07506 -10.07353
 Alpha  occ. eigenvalues --  -10.06573  -0.94447  -0.93442  -0.83552  -0.82435
 Alpha  occ. eigenvalues --   -0.74488  -0.71015  -0.65876  -0.63192  -0.59762
 Alpha  occ. eigenvalues --   -0.59600  -0.57715  -0.54180  -0.53116  -0.49042
 Alpha  occ. eigenvalues --   -0.48074  -0.45119  -0.43906  -0.41463  -0.39881
 Alpha  occ. eigenvalues --   -0.39656  -0.37731  -0.37556  -0.35804  -0.34947
 Alpha  occ. eigenvalues --   -0.34345  -0.34064  -0.33187  -0.33025  -0.31633
 Alpha  occ. eigenvalues --   -0.30687  -0.29983  -0.29291  -0.29079  -0.27645
 Alpha  occ. eigenvalues --   -0.26838  -0.26646  -0.25652  -0.25200  -0.24435
 Alpha  occ. eigenvalues --   -0.23921  -0.23597  -0.22136  -0.21866  -0.20180
 Alpha  occ. eigenvalues --   -0.16623  -0.15989  -0.13509   0.03915
 Alpha virt. eigenvalues --    0.05686   0.06501   0.07069   0.07778   0.08132
 Alpha virt. eigenvalues --    0.08560   0.09339   0.09866   0.10288   0.10421
 Alpha virt. eigenvalues --    0.10833   0.11034   0.11250   0.11689   0.12414

  Beta  occ. eigenvalues --  -19.03138 -18.99400 -14.24134 -14.21469 -10.17751
  Beta  occ. eigenvalues --  -10.12523 -10.12200 -10.11815 -10.10434 -10.07877
  Beta  occ. eigenvalues --  -10.07723 -10.07647 -10.07506 -10.07498 -10.07319
  Beta  occ. eigenvalues --  -10.06542  -0.94437  -0.93379  -0.83542  -0.82425
  Beta  occ. eigenvalues --   -0.74466  -0.70988  -0.65840  -0.63158  -0.59717
  Beta  occ. eigenvalues --   -0.59554  -0.57656  -0.54123  -0.53067  -0.49022
  Beta  occ. eigenvalues --   -0.48023  -0.45060  -0.43868  -0.41429  -0.39856
  Beta  occ. eigenvalues --   -0.39611  -0.37681  -0.37524  -0.35783  -0.34918
  Beta  occ. eigenvalues --   -0.34326  -0.34033  -0.33157  -0.32989  -0.31616
  Beta  occ. eigenvalues --   -0.30665  -0.29951  -0.29266  -0.29052  -0.27607
  Beta  occ. eigenvalues --   -0.26806  -0.26620  -0.25615  -0.25169  -0.24401
  Beta  occ. eigenvalues --   -0.23884  -0.23570  -0.22098  -0.21840  -0.20153
  Beta  occ. eigenvalues --   -0.16612  -0.15980  -0.13499
  Beta virt. eigenvalues --    0.06021   0.06693   0.07121   0.07495   0.08287
  Beta virt. eigenvalues --    0.08501   0.08881   0.09511   0.10205   0.10407
  Beta virt. eigenvalues --    0.10838   0.11125   0.11226   0.11433   0.12028

 Mulliken charges and spin densities:
               1          2
     1  C   -0.231631  -0.250941
     2  C   -0.145008  -0.390814
     3  C   -0.204323   0.163127
     4  C   -0.368649   0.159696
     5  C    1.070007  -1.535981
     6  N   -0.111049   0.115235
     7  C   -0.241615   0.039206
     8  O   -0.321356   0.003454
     9  C   -0.078846  -0.091823
    10  N    0.029054   0.036624
    11  C   -0.809128   0.269493
    12  C   -0.349443   0.221627
    13  C    0.563401  -1.145932
    14  C    0.005963   0.275515
    15  C    1.282528  -1.863646
    16  O   -0.178994   0.020925
    17  H   -0.243825   0.400408
    18  H   -0.274625   0.431265
    19  H    0.665146  -0.550247
    20  H   -0.086791   0.233292
    21  H   -0.189628   0.349799
    22  H   -0.044207   0.184580
    23  H    0.097047   0.077121
    24  H    0.399739  -0.292260
    25  H   -0.208965   0.354360
    26  H   -0.054673   0.213847
    27  H   -0.154757   0.320695
    28  H    0.255225   0.032067
    29  H    0.029159   0.162188
    30  H    0.130446   0.116659
    31  H    0.275514  -0.039653
    32  H   -0.065967   0.245878
    33  H   -0.069166   0.204813
    34  H   -0.215362   0.365843
    35  H   -0.197748   0.352985
    36  H   -0.145059   0.245986
    37  H   -0.906654   1.082291
    38  H    0.153369   0.026399
    39  H   -0.128008   0.283250
    40  H    0.068879   0.172668
 Sum of Mulliken charges =  -1.00000   1.00000

 Dipole moment (field-independent basis, Debye):
    X=             -1.0352    Y=             -1.0237    Z=             -4.1548  Tot=              4.4025
 Quadrupole moment (field-independent basis, Debye-Ang):
   XX=           -173.9739   YY=           -167.9808   ZZ=           -139.0589
   XY=              3.8512   XZ=             -7.0656   YZ=             -6.5079

 Summary of Natural Population Analysis:

                                       Natural Population
                Natural  -----------------------------------------------
    Atom  No    Charge         Core      Valence    Rydberg      Total
 -----------------------------------------------------------------------
      C    1   -0.28693      0.99966     2.28165    0.00562     3.28693
      C    2   -0.19131      0.99964     2.18380    0.00787     3.19131
      C    3   -0.19052      0.99960     2.18217    0.00874     3.19052
      C    4   -0.01894      0.99958     2.00814    0.01122     3.01894
      C    5   -0.28843      0.99964     2.28289    0.00589     3.28843
      N    6   -0.31468      0.99966     2.80485    0.01017     3.81468
      C    7    0.34253      0.99967     1.63570    0.02209     2.65747
      O    8   -0.32780      0.99988     3.32220    0.00572     4.32780
      C    9   -0.13245      0.99958     2.12262    0.01025     3.13245
      N   10   -0.34388      0.99971     2.83365    0.01053     3.84388
      C   11    0.04941      0.99953     1.93520    0.01586     2.95059
      C   12   -0.18656      0.99959     2.17884    0.00813     3.18656
      C   13   -0.19023      0.99965     2.18160    0.00898     3.19023
      C   14   -0.19409      0.99959     2.18344    0.01107     3.19409
      C   15   -0.01311      0.99950     1.99982    0.01378     3.01311
      O   16   -0.36978      0.99990     3.36304    0.00684     4.36978
      H   17    0.09618      0.00000     0.40239    0.00142     0.40382
      H   18    0.10032      0.00000     0.39863    0.00105     0.39968
      H   19    0.09617      0.00000     0.40195    0.00188     0.40383
      H   20    0.09483      0.00000     0.40388    0.00130     0.40517
      H   21    0.09606      0.00000     0.40300    0.00093     0.40394
      H   22    0.09329      0.00000     0.40563    0.00107     0.40671
      H   23    0.10513      0.00000     0.39331    0.00155     0.39487
      H   24    0.10446      0.00000     0.39214    0.00339     0.39554
      H   25    0.09618      0.00000     0.40273    0.00109     0.40382
      H   26    0.10379      0.00000     0.39524    0.00097     0.39621
      H   27    0.10456      0.00000     0.39440    0.00104     0.39544
      H   28    0.18929      0.00000     0.30831    0.00240     0.31071
      H   29    0.09947      0.00000     0.39901    0.00152     0.40053
      H   30    0.10686      0.00000     0.39175    0.00139     0.39314
      H   31    0.17337      0.00000     0.32463    0.00200     0.32663
      H   32    0.09568      0.00000     0.40343    0.00088     0.40432
      H   33    0.10350      0.00000     0.39491    0.00159     0.39650
      H   34    0.09914      0.00000     0.39982    0.00104     0.40086
      H   35    0.09848      0.00000     0.39973    0.00179     0.40152
      H   36    0.10386      0.00000     0.39363    0.00251     0.39614
      H   37    0.09855      0.00000     0.39821    0.00325     0.40145
      H   38    0.08486      0.00000     0.41404    0.00110     0.41514
      H   39    0.08170      0.00000     0.41689    0.00141     0.41830
      H   40    0.23101      0.00000     0.26463    0.00436     0.26899
 =======================================================================
   * Total *    0.00000     15.99437    46.80193    0.20370    63.00000

 Normal termination of Gaussian 16 at Thu Dec 10 23:27:25 2020.
