 Gaussian 16, Revision A.03,

 -----------------------------------------------------------
 # opt freq B3LYP/6-31G(d) empiricaldispersion=gd3bj scf=xqc
 -----------------------------------------------------------

 -------------------------------
 CID_112513161_JID_6187_neutraal
 -------------------------------
 Symbolic Z-matrix:
 Charge =  0 Multiplicity = 1

 SCF Done:  E(RB3LYP) =  -693.407184027     A.U. after   13 cycles
 SCF Done:  E(RB3LYP) =  -693.411182583     A.U. after   12 cycles
 SCF Done:  E(RB3LYP) =  -693.411929925     A.U. after   11 cycles
 SCF Done:  E(RB3LYP) =  -693.412359113     A.U. after   13 cycles
 SCF Done:  E(RB3LYP) =  -693.412674934     A.U. after   11 cycles
 SCF Done:  E(RB3LYP) =  -693.412751023     A.U. after   11 cycles
 SCF Done:  E(RB3LYP) =  -693.412845814     A.U. after   11 cycles
 SCF Done:  E(RB3LYP) =  -693.412883921     A.U. after   11 cycles
 SCF Done:  E(RB3LYP) =  -693.412886047     A.U. after    8 cycles
 SCF Done:  E(RB3LYP) =  -693.412886778     A.U. after    8 cycles
 SCF Done:  E(RB3LYP) =  -693.412887017     A.U. after    9 cycles
 SCF Done:  E(RB3LYP) =  -693.412887089     A.U. after    7 cycles
 SCF Done:  E(RB3LYP) =  -693.412887106     A.U. after    6 cycles
 Optimization completed.
    -- Stationary point found.
 Normal termination of Gaussian 16 at Thu Dec 10 21:18:30 2020.

 --------------------------------------------------------------------
 #N Geom=AllCheck Guess=TCheck SCRF=Check GenChk RB3LYP/6-31G(d) Freq
 --------------------------------------------------------------------

 Structure from the checkpoint file:  "JID_6187.chk"
 -------------------------------
 CID_112513161_JID_6187_neutraal
 -------------------------------
 Charge =  0 Multiplicity = 1

 SCF Done:  E(RB3LYP) =  -693.412887106     A.U. after    1 cycles

  Exact polarizability: 176.577   4.481 171.779  18.748  -2.811 106.687
 Approx polarizability: 235.308   2.909 267.171  34.362  -3.963 165.538

                      1                      2                      3
                      A                      A                      A
 Frequencies --     17.6199                38.3698                42.8846
 Red. masses --      4.1968                 3.2256                 3.0956
 Frc consts  --      0.0008                 0.0028                 0.0034
 IR Inten    --      0.1960                 0.1305                 0.3791

                      4                      5                      6
                      A                      A                      A
 Frequencies --     53.2048                85.2181               133.6725
 Red. masses --      4.1986                 3.9263                 2.6591
 Frc consts  --      0.0070                 0.0168                 0.0280
 IR Inten    --      0.5526                 0.1483                 1.2064

                      7                      8                      9
                      A                      A                      A
 Frequencies --    164.4780               190.7409               205.8082
 Red. masses --      3.2844                 3.4372                 2.8843
 Frc consts  --      0.0524                 0.0737                 0.0720
 IR Inten    --      3.4905                 1.7698                 1.3641

                     10                     11                     12
                      A                      A                      A
 Frequencies --    229.4187               231.8308               251.2149
 Red. masses --      1.6691                 1.8731                 2.1962
 Frc consts  --      0.0518                 0.0593                 0.0817
 IR Inten    --      3.3814                 1.2768                 3.1556

                     13                     14                     15
                      A                      A                      A
 Frequencies --    259.0498               269.8946               294.3565
 Red. masses --      1.5152                 1.7453                 1.0516
 Frc consts  --      0.0599                 0.0749                 0.0537
 IR Inten    --      3.4441                 5.3014                22.8076

                     16                     17                     18
                      A                      A                      A
 Frequencies --    296.5450               326.0354               361.8624
 Red. masses --      1.2420                 3.0482                 2.4796
 Frc consts  --      0.0644                 0.1909                 0.1913
 IR Inten    --     70.9702                13.7615                 4.0022

                     19                     20                     21
                      A                      A                      A
 Frequencies --    385.3105               393.8007               443.0967
 Red. masses --      2.3416                 3.1203                 2.0413
 Frc consts  --      0.2048                 0.2851                 0.2361
 IR Inten    --      0.6878                 3.5176                 0.4725

                     22                     23                     24
                      A                      A                      A
 Frequencies --    448.7410               470.4978               482.9917
 Red. masses --      2.9437                 2.9214                 3.8070
 Frc consts  --      0.3493                 0.3810                 0.5233
 IR Inten    --      1.1211                21.9894                 1.5886

                     25                     26                     27
                      A                      A                      A
 Frequencies --    538.5180               561.9649               609.9656
 Red. masses --      6.3129                 2.5040                 1.6181
 Frc consts  --      1.0786                 0.4659                 0.3547
 IR Inten    --     11.0001                13.1349               246.2503

                     28                     29                     30
                      A                      A                      A
 Frequencies --    632.5077               662.9807               718.3839
 Red. masses --      3.6211                 2.9245                 2.1317
 Frc consts  --      0.8535                 0.7574                 0.6482
 IR Inten    --      8.3114               102.4335                15.2028

                     31                     32                     33
                      A                      A                      A
 Frequencies --    737.1818               778.6240               796.2363
 Red. masses --      2.4259                 1.5614                 1.5972
 Frc consts  --      0.7767                 0.5577                 0.5966
 IR Inten    --      8.4738                42.9925                37.3285

                     34                     35                     36
                      A                      A                      A
 Frequencies --    827.6738               847.9513               874.0196
 Red. masses --      2.2855                 2.2929                 1.4804
 Frc consts  --      0.9225                 0.9714                 0.6663
 IR Inten    --     18.5208                33.4849                30.8635

                     37                     38                     39
                      A                      A                      A
 Frequencies --    877.3884               906.2503               928.2575
 Red. masses --      1.3993                 2.1235                 1.5726
 Frc consts  --      0.6347                 1.0275                 0.7983
 IR Inten    --      2.6551                 4.1294                14.9247

                     40                     41                     42
                      A                      A                      A
 Frequencies --    942.5758               950.0838               963.5820
 Red. masses --      1.1871                 2.4995                 1.2594
 Frc consts  --      0.6214                 1.3293                 0.6890
 IR Inten    --      1.9541                 1.1923                 0.2358

                     43                     44                     45
                      A                      A                      A
 Frequencies --    976.8576               982.0868              1016.8956
 Red. masses --      1.4295                 1.8682                 6.0803
 Frc consts  --      0.8037                 1.0617                 3.7045
 IR Inten    --      2.0628                 4.6132                 1.8661

                     46                     47                     48
                      A                      A                      A
 Frequencies --   1029.3069              1064.9796              1079.5819
 Red. masses --      2.0082                 2.8530                 2.5562
 Frc consts  --      1.2535                 1.9065                 1.7553
 IR Inten    --      2.8543                29.5702                11.9488

                     49                     50                     51
                      A                      A                      A
 Frequencies --   1096.5397              1110.0341              1145.9304
 Red. masses --      2.4675                 1.9961                 1.4321
 Frc consts  --      1.7481                 1.4491                 1.1080
 IR Inten    --     23.9491                 4.6763                12.9593

                     52                     53                     54
                      A                      A                      A
 Frequencies --   1162.1096              1175.2893              1191.0149
 Red. masses --      1.7322                 2.3197                 2.0919
 Frc consts  --      1.3783                 1.8879                 1.7483
 IR Inten    --     14.5823                27.6934                15.3808

                     55                     56                     57
                      A                      A                      A
 Frequencies --   1196.6359              1204.0697              1207.6033
 Red. masses --      1.5231                 1.1861                 1.7061
 Frc consts  --      1.2850                 1.0132                 1.4659
 IR Inten    --     21.3858                10.8565                 1.9685

                     58                     59                     60
                      A                      A                      A
 Frequencies --   1240.7315              1258.3752              1275.1524
 Red. masses --      1.3874                 1.2607                 1.2400
 Frc consts  --      1.2584                 1.1762                 1.1879
 IR Inten    --     14.1737                36.0389                37.7520

                     61                     62                     63
                      A                      A                      A
 Frequencies --   1323.3355              1340.0432              1342.4669
 Red. masses --      1.3725                 2.4619                 1.4815
 Frc consts  --      1.4161                 2.6047                 1.5731
 IR Inten    --     11.7888                33.5947                12.7335

                     64                     65                     66
                      A                      A                      A
 Frequencies --   1359.1846              1364.1488              1378.0886
 Red. masses --      1.3036                 1.2328                 4.0426
 Frc consts  --      1.4189                 1.3517                 4.5235
 IR Inten    --      8.4238                 8.9290                11.0285

                     67                     68                     69
                      A                      A                      A
 Frequencies --   1388.8077              1398.3675              1411.4954
 Red. masses --      1.3470                 1.3425                 1.3031
 Frc consts  --      1.5307                 1.5468                 1.5296
 IR Inten    --      3.1402                 7.1478                10.3785

                     70                     71                     72
                      A                      A                      A
 Frequencies --   1422.9258              1431.9109              1450.0961
 Red. masses --      1.3119                 1.3534                 1.2472
 Frc consts  --      1.5650                 1.6350                 1.5452
 IR Inten    --      1.6194                 2.7765                 6.5192

                     73                     74                     75
                      A                      A                      A
 Frequencies --   1460.0813              1507.8730              1509.4682
 Red. masses --      1.6399                 1.1338                 1.1720
 Frc consts  --      2.0598                 1.5189                 1.5733
 IR Inten    --     20.0147                 5.6313                18.8267

                     76                     77                     78
                      A                      A                      A
 Frequencies --   1517.2263              1519.1611              1523.6280
 Red. masses --      1.0701                 1.1645                 1.8806
 Frc consts  --      1.4513                 1.5834                 2.5722
 IR Inten    --      2.1680                19.9902                21.6632

                     79                     80                     81
                      A                      A                      A
 Frequencies --   1529.9964              1536.2088              1541.6698
 Red. masses --      1.0826                 1.0698                 1.1133
 Frc consts  --      1.4932                 1.4874                 1.5589
 IR Inten    --     17.6988                 8.0654                15.9931

                     82                     83                     84
                      A                      A                      A
 Frequencies --   1550.0979              1550.7782              1652.4222
 Red. masses --      1.1081                 2.3363                 5.4353
 Frc consts  --      1.5687                 3.3104                 8.7441
 IR Inten    --     12.3335                20.7973                15.9598

                     85                     86                     87
                      A                      A                      A
 Frequencies --   1672.2044              1695.6514              2911.4670
 Red. masses --      3.7531                 1.2911                 1.0723
 Frc consts  --      6.1833                 2.1872                 5.3552
 IR Inten    --     36.5819               113.4735                59.3129

                     88                     89                     90
                      A                      A                      A
 Frequencies --   2990.5939              3020.0456              3032.9303
 Red. masses --      1.0834                 1.0650                 1.0402
 Frc consts  --      5.7090                 5.7229                 5.6373
 IR Inten    --     51.6130                37.2791                30.8134

                     91                     92                     93
                      A                      A                      A
 Frequencies --   3037.3800              3041.7913              3043.3862
 Red. masses --      1.0621                 1.0581                 1.0617
 Frc consts  --      5.7731                 5.7684                 5.7940
 IR Inten    --      5.1178                40.7566                26.7993

                     94                     95                     96
                      A                      A                      A
 Frequencies --   3049.6826              3074.6969              3097.6773
 Red. masses --      1.0869                 1.0969                 1.0997
 Frc consts  --      5.9557                 6.1097                 6.2172
 IR Inten    --     51.5011                30.1033                14.4549

                     97                     98                     99
                      A                      A                      A
 Frequencies --   3100.4557              3104.9282              3108.5948
 Red. masses --      1.0998                 1.1002                 1.1020
 Frc consts  --      6.2288                 6.2493                 6.2742
 IR Inten    --     48.7537                62.0463                42.1725

                    100                    101                    102
                      A                      A                      A
 Frequencies --   3113.6171              3158.3619              3175.4647
 Red. masses --      1.1018                 1.0891                 1.0870
 Frc consts  --      6.2934                 6.4007                 6.4579
 IR Inten    --     55.4855                19.4624                12.4132

                    103                    104                    105
                      A                      A                      A
 Frequencies --   3194.3455              3219.5791              3533.0068
 Red. masses --      1.0921                 1.0932                 1.0726
 Frc consts  --      6.5658                 6.6764                 7.8879
 IR Inten    --     26.3578                 8.7127                 4.7097

                    106                    107                    108
                      A                      A                      A
 Frequencies --   3550.3332              3649.0154              3728.8938
 Red. masses --      1.0479                 1.0981                 1.0658
 Frc consts  --      7.7823                 8.6145                 8.7318
 IR Inten    --     10.1140                 8.7877                 5.3449

 - Thermochemistry -
 -------------------
 Temperature   298.150 Kelvin.  Pressure   1.00000 Atm.
 Atom     1 has atomic number  6 and mass  12.00000

 Molecular mass:   222.17321 amu.
 Principal axes and moments of inertia in atomic units:
                           1         2         3
     Eigenvalues --  2554.926025766.632137210.00830
           X            0.99992  -0.00609   0.01117
           Y            0.00629   0.99983  -0.01724
           Z           -0.01107   0.01731   0.99979
 This molecule is an asymmetric top.
 Rotational symmetry number  1.
 Warning -- assumption of classical behavior for rotation
           may cause significant error
 Rotational temperatures (Kelvin)      0.03390     0.01502     0.01201
 Rotational constants (GHZ):           0.70638     0.31296     0.25031
 Zero-point vibrational energy     890964.1 (Joules/Mol)
                                  212.94553 (Kcal/Mol)
 Warning -- explicit consideration of  27 degrees of freedom as
           vibrations may cause significant error
 Vibrational temperatures:     25.35    55.21    61.70    76.55   122.61
          (Kelvin)            192.32   236.65   274.43   296.11   330.08
                              333.55   361.44   372.71   388.32   423.51
                              426.66   469.09   520.64   554.38   566.59
                              637.52   645.64   676.94   694.92   774.81
                              808.54   877.60   910.04   953.88  1033.59
                             1060.64  1120.27  1145.61  1190.84  1220.01
                             1257.52  1262.37  1303.89  1335.56  1356.16
                             1366.96  1386.38  1405.48  1413.00  1463.09
                             1480.94  1532.27  1553.28  1577.68  1597.09
                             1648.74  1672.02  1690.98  1713.60  1721.69
                             1732.39  1737.47  1785.14  1810.52  1834.66
                             1903.98  1928.02  1931.51  1955.56  1962.71
                             1982.76  1998.18  2011.94  2030.83  2047.27
                             2060.20  2086.36  2100.73  2169.49  2171.79
                             2182.95  2185.73  2192.16  2201.32  2210.26
                             2218.12  2230.25  2231.22  2377.47  2405.93
                             2439.66  4188.95  4302.80  4345.17  4363.71
                             4370.11  4376.46  4378.75  4387.81  4423.80
                             4456.87  4460.86  4467.30  4472.57  4479.80
                             4544.18  4568.79  4595.95  4632.26  5083.21
                             5108.14  5250.12  5365.05

 Zero-point correction=                           0.339350 (Hartree/Particle)
 Thermal correction to Energy=                    0.356732
 Thermal correction to Enthalpy=                  0.357677
 Thermal correction to Gibbs Free Energy=         0.293230
 Sum of electronic and zero-point Energies=           -693.073537
 Sum of electronic and thermal Energies=              -693.056155
 Sum of electronic and thermal Enthalpies=            -693.055211
 Sum of electronic and thermal Free Energies=         -693.119657

                     E (Thermal)             CV                S
                      KCal/Mol        Cal/Mol-Kelvin    Cal/Mol-Kelvin
 Total                  223.853             66.515            135.639
 Electronic               0.000              0.000              0.000
 Translational            0.889              2.981             42.098
 Rotational               0.889              2.981             33.029
 Vibrational            222.075             60.553             60.512
 Vibration     1          0.593              1.986              6.886
 Vibration     2          0.594              1.982              5.342
 Vibration     3          0.595              1.980              5.121
 Vibration     4          0.596              1.976              4.695
 Vibration     5          0.601              1.959              3.767
 Vibration     6          0.613              1.920              2.893
 Vibration     7          0.623              1.886              2.498
 Vibration     8          0.634              1.853              2.221
 Vibration     9          0.640              1.832              2.081
 Vibration    10          0.652              1.796              1.883
 Vibration    11          0.653              1.792              1.865
 Vibration    12          0.663              1.761              1.722
 Vibration    13          0.668              1.747              1.668
 Vibration    14          0.674              1.729              1.597
 Vibration    15          0.689              1.684              1.449
 Vibration    16          0.690              1.680              1.436
 Vibration    17          0.710              1.623              1.280
 Vibration    18          0.736              1.551              1.114
 Vibration    19          0.754              1.502              1.018
 Vibration    20          0.761              1.483              0.986
 Vibration    21          0.803              1.376              0.817
 Vibration    22          0.808              1.364              0.800
 Vibration    23          0.828              1.316              0.736
 Vibration    24          0.839              1.288              0.702
 Vibration    25          0.894              1.165              0.568
 Vibration    26          0.918              1.114              0.520
 Vibration    27          0.969              1.011              0.433

 Optimization completed.
    -- Stationary point found.
 Normal termination of Gaussian 16 at Thu Dec 10 21:32:18 2020.

 ----------------------------------------------------------------------
 # B3LYP/6-311++G(d,p) empiricaldispersion=gd3bj scf=xqc pop=npa geom=c
 heck
 ----------------------------------------------------------------------

 ---------------------------------------
 CID_112513161_JID_6187_Energie_neutraal
 ---------------------------------------
 Structure from the checkpoint file:  "JID_6187.chk"
 Charge =  0 Multiplicity = 1

 SCF Done:  E(RB3LYP) =  -693.624072927     A.U. after   14 cycles
 Normal termination of Gaussian 16 at Thu Dec 10 21:39:21 2020.

 ----------------------------------------------------------------------
 # B3LYP/6-311++G(d,p) empiricaldispersion=gd3bj scf=xqc pop=npa geom=c
 heck
 ----------------------------------------------------------------------

 -------------------------------------
 CID_112513161_JID_6187_Energie_kation
 -------------------------------------
 Structure from the checkpoint file:  "JID_6187.chk"
 Charge =  1 Multiplicity = 2

 SCF Done:  E(UB3LYP) =  -693.347761967     A.U. after   24 cycles
 Normal termination of Gaussian 16 at Thu Dec 10 21:56:28 2020.
 Gaussian 16:  ES64L-G16RevA.03 25-Dec-2016

 ----------------------------------------------------------------------
 # B3LYP/6-311++G(d,p) empiricaldispersion=gd3bj scf=xqc pop=npa geom=c
 heck
 ----------------------------------------------------------------------

 ------------------------------------
 CID_112513161_JID_6187_Energie_anion
 ------------------------------------
 Structure from the checkpoint file:  "JID_6187.chk"
 Charge = -1 Multiplicity = 2

                         Standard orientation:
 ---------------------------------------------------------------------
 Center     Atomic      Atomic             Coordinates (Angstroms)
 Number     Number       Type             X           Y           Z
 ---------------------------------------------------------------------
      1          6           0       -2.793475    1.879407   -0.594031
      2          6           0       -3.539896    0.834551    0.246947
      3          6           0       -4.871857    0.460049   -0.412807
      4          6           0       -2.689012   -0.422125    0.474596
      5          7           0       -1.463428   -0.125197    1.202804
      6          6           0       -0.645684   -1.283153    1.553341
      7          6           0       -0.213114   -2.219087    0.406395
      8          6           0        0.440511   -1.524181   -0.802187
      9          6           0        1.553226   -0.582906   -0.399040
     10          6           0        1.385185    0.793599   -0.548064
     11          6           0        2.370530    1.698596   -0.119703
     12          6           0        3.542640    1.188807    0.458202
     13          6           0        3.716222   -0.187569    0.589564
     14          6           0        2.731922   -1.079480    0.168345
     15          7           0        2.209763    3.071472   -0.326800
     16          8           0        0.993159   -2.498894   -1.692408
     17          1           0       -2.490106    1.457463   -1.561927
     18          1           0       -1.895658    2.247399   -0.084315
     19          1           0       -3.430168    2.748134   -0.796370
     20          1           0       -3.742835    1.270662    1.234210
     21          1           0       -4.708274    0.016307   -1.403396
     22          1           0       -5.426042   -0.267370    0.191829
     23          1           0       -5.508690    1.341816   -0.545888
     24          1           0       -3.263411   -1.142046    1.073541
     25          1           0       -2.517487   -0.905633   -0.508692
     26          1           0       -0.889792    0.523881    0.672098
     27          1           0        0.251859   -0.901538    2.051259
     28          1           0       -1.193811   -1.876859    2.296974
     29          1           0        0.503483   -2.948583    0.804748
     30          1           0       -1.078426   -2.792137    0.041417
     31          1           0       -0.328357   -0.937759   -1.329654
     32          1           0        0.486885    1.177191   -1.029501
     33          1           0        4.319147    1.873858    0.790219
     34          1           0        4.634505   -0.565613    1.031085
     35          1           0        2.875090   -2.150553    0.260875
     36          1           0        2.746839    3.659026    0.298797
     37          1           0        1.247584    3.381101   -0.385996
     38          1           0        0.314855   -3.180562   -1.823427
 ---------------------------------------------------------------------

 SCF Done:  E(UB3LYP) =  -693.613561784     A.U. after   33 cycles
 SCF Done:  E(UB3LYP) =  -693.613561784     a.u. after    1 cycles

 The electronic state is 2-A.
 Alpha  occ. eigenvalues --  -19.03065 -14.22123 -14.19957 -10.13363 -10.12256
 Alpha  occ. eigenvalues --  -10.09957 -10.09440 -10.08759 -10.08439 -10.08022
 Alpha  occ. eigenvalues --  -10.07634 -10.07607 -10.07575 -10.07078 -10.06752
 Alpha  occ. eigenvalues --  -10.06494  -0.93278  -0.82601  -0.81394  -0.75211
 Alpha  occ. eigenvalues --   -0.70931  -0.68442  -0.65061  -0.63484  -0.59403
 Alpha  occ. eigenvalues --   -0.59166  -0.56092  -0.52128  -0.51169  -0.48228
 Alpha  occ. eigenvalues --   -0.47206  -0.42908  -0.42481  -0.40880  -0.40203
 Alpha  occ. eigenvalues --   -0.38578  -0.37224  -0.36523  -0.35197  -0.34502
 Alpha  occ. eigenvalues --   -0.33506  -0.33387  -0.32642  -0.31249  -0.30458
 Alpha  occ. eigenvalues --   -0.29603  -0.29270  -0.28541  -0.27625  -0.26881
 Alpha  occ. eigenvalues --   -0.26431  -0.26047  -0.24134  -0.23665  -0.23441
 Alpha  occ. eigenvalues --   -0.22924  -0.22012  -0.18685  -0.16067  -0.13080
 Alpha  occ. eigenvalues --   -0.11729   0.03967
 Alpha virt. eigenvalues --    0.05399   0.06352   0.07104   0.07441   0.07753
 Alpha virt. eigenvalues --    0.08022   0.08922   0.09131   0.09504   0.09707
 Alpha virt. eigenvalues --    0.10291   0.11099   0.11523   0.11735   0.12300

  Beta  occ. eigenvalues --  -19.03043 -14.22061 -14.19952 -10.13358 -10.12253
  Beta  occ. eigenvalues --  -10.09951 -10.09424 -10.08758 -10.08437 -10.08015
  Beta  occ. eigenvalues --  -10.07624 -10.07589 -10.07561 -10.07072 -10.06728
  Beta  occ. eigenvalues --  -10.06462  -0.93232  -0.82533  -0.81379  -0.75181
  Beta  occ. eigenvalues --   -0.70906  -0.68416  -0.65038  -0.63440  -0.59347
  Beta  occ. eigenvalues --   -0.59134  -0.56053  -0.52102  -0.51131  -0.48171
  Beta  occ. eigenvalues --   -0.47155  -0.42858  -0.42447  -0.40844  -0.40155
  Beta  occ. eigenvalues --   -0.38527  -0.37185  -0.36494  -0.35165  -0.34470
  Beta  occ. eigenvalues --   -0.33478  -0.33361  -0.32615  -0.31215  -0.30424
  Beta  occ. eigenvalues --   -0.29574  -0.29248  -0.28514  -0.27605  -0.26858
  Beta  occ. eigenvalues --   -0.26406  -0.26024  -0.24105  -0.23629  -0.23414
  Beta  occ. eigenvalues --   -0.22901  -0.21982  -0.18662  -0.16058  -0.13067
  Beta  occ. eigenvalues --   -0.11693
  Beta virt. eigenvalues --    0.06102   0.06699   0.06875   0.07321   0.07722
  Beta virt. eigenvalues --    0.07976   0.08521   0.08939   0.09464   0.09672
  Beta virt. eigenvalues --    0.10005   0.10491   0.11370   0.11785   0.12016

 Mulliken charges and spin densities:
               1          2
     1  C    0.334604  -1.037679
     2  C   -0.693671   1.222063
     3  C    0.205751  -0.860465
     4  C   -0.000465  -0.827576
     5  N   -0.007616   0.045324
     6  C   -0.141248  -0.291833
     7  C    0.076416  -0.142335
     8  C    0.765802  -1.249994
     9  C    0.501382   0.269159
    10  C   -0.291058  -0.110645
    11  C    0.019199  -0.176354
    12  C   -0.174366   0.097207
    13  C   -0.105424  -0.287019
    14  C   -0.434196   0.026807
    15  N   -0.235663  -0.076264
    16  O   -0.205558   0.029238
    17  H    0.078533   0.074225
    18  H   -0.134429   0.273499
    19  H   -0.255384   0.412897
    20  H    0.079645   0.098099
    21  H   -0.166435   0.306846
    22  H   -0.138544   0.262665
    23  H   -0.055281   0.197280
    24  H    0.066695   0.089401
    25  H    0.186197  -0.049136
    26  H    0.251686  -0.069355
    27  H    0.160988   0.018602
    28  H    0.013573   0.125478
    29  H    0.062329   0.120588
    30  H   -0.330946   0.466420
    31  H    0.063057   0.187268
    32  H    0.000480   0.145963
    33  H   -0.297803   0.448458
    34  H    0.085267   0.067171
    35  H    0.105242   0.056221
    36  H   -0.321954   0.578245
    37  H   -0.083004   0.325554
    38  H    0.016198   0.233977
 Sum of Mulliken charges =  -1.00000   1.00000

 Dipole moment (field-independent basis, Debye):
    X=              0.8679    Y=             -3.9155    Z=              1.9390  Tot=              4.4546
 Quadrupole moment (field-independent basis, Debye-Ang):
   XX=           -171.6104   YY=           -165.0218   ZZ=           -133.4424
   XY=            -10.2572   XZ=             -0.0716   YZ=             -6.1898

 Summary of Natural Population Analysis:

                                       Natural Population
                Natural  -----------------------------------------------
    Atom  No    Charge         Core      Valence    Rydberg      Total
 -----------------------------------------------------------------------
      C    1   -0.28811      0.99965     2.28206    0.00640     3.28811
      C    2   -0.11773      0.99962     2.10817    0.00995     3.11773
      C    3   -0.28254      0.99965     2.27819    0.00469     3.28254
      C    4   -0.08580      0.99960     2.07462    0.01158     3.08580
      N    5   -0.34264      0.99974     2.83259    0.01031     3.84264
      C    6   -0.08624      0.99962     2.07629    0.01033     3.08624
      C    7   -0.20963      0.99961     2.20046    0.00956     3.20963
      C    8    0.05602      0.99950     1.93045    0.01404     2.94398
      C    9   -0.01219      0.99949     2.00151    0.01118     3.01219
      C   10   -0.12992      0.99947     2.12109    0.00936     3.12992
      C   11    0.08989      0.99949     1.89899    0.01164     2.91011
      C   12   -0.12881      0.99952     2.11918    0.01011     3.12881
      C   13   -0.09051      0.99957     2.08205    0.00889     3.09051
      C   14   -0.12004      0.99950     2.11196    0.00858     3.12004
      N   15   -0.39293      0.99971     2.88295    0.01027     3.89293
      O   16   -0.36781      0.99989     3.36215    0.00577     4.36781
      H   17    0.09577      0.00000     0.40295    0.00128     0.40423
      H   18    0.09929      0.00000     0.39902    0.00168     0.40071
      H   19    0.10124      0.00000     0.39781    0.00095     0.39876
      H   20    0.09470      0.00000     0.40342    0.00188     0.40530
      H   21    0.09760      0.00000     0.40128    0.00112     0.40240
      H   22    0.09801      0.00000     0.40093    0.00106     0.40199
      H   23    0.09863      0.00000     0.40046    0.00091     0.40137
      H   24    0.09170      0.00000     0.40698    0.00131     0.40830
      H   25    0.07702      0.00000     0.42111    0.00187     0.42298
      H   26    0.17637      0.00000     0.31910    0.00454     0.32363
      H   27    0.09852      0.00000     0.40032    0.00116     0.40148
      H   28    0.09038      0.00000     0.40861    0.00102     0.40962
      H   29    0.10180      0.00000     0.39693    0.00126     0.39820
      H   30    0.09746      0.00000     0.40099    0.00156     0.40254
      H   31    0.08134      0.00000     0.41611    0.00255     0.41866
      H   32    0.10073      0.00000     0.39727    0.00200     0.39927
      H   33    0.10056      0.00000     0.39845    0.00099     0.39944
      H   34    0.09753      0.00000     0.40172    0.00075     0.40247
      H   35    0.10466      0.00000     0.39428    0.00106     0.39534
      H   36    0.18847      0.00000     0.30618    0.00535     0.31153
      H   37    0.18835      0.00000     0.30859    0.00305     0.31165
      H   38    0.22883      0.00000     0.26780    0.00337     0.27117
 =======================================================================
   * Total *    0.00000     15.99364    44.81300    0.19336    61.00000

 Normal termination of Gaussian 16 at Thu Dec 10 22:21:47 2020.
