 Gaussian 16, Revision A.03,

 -----------------------------------------------------------
 # opt freq B3LYP/6-31G(d) empiricaldispersion=gd3bj scf=xqc
 -----------------------------------------------------------

 ------------------------------
 CID_69591648_JID_3274_neutraal
 ------------------------------
 Symbolic Z-matrix:
 Charge =  0 Multiplicity = 1

 SCF Done:  E(RB3LYP) =  -985.028939546     A.U. after   16 cycles
 SCF Done:  E(RB3LYP) =  -985.035870169     A.U. after   14 cycles
 SCF Done:  E(RB3LYP) =  -985.040781439     A.U. after   14 cycles
 SCF Done:  E(RB3LYP) =  -985.042507090     A.U. after   13 cycles
 SCF Done:  E(RB3LYP) =  -985.043323610     A.U. after   13 cycles
 SCF Done:  E(RB3LYP) =  -985.043603007     A.U. after   11 cycles
 SCF Done:  E(RB3LYP) =  -985.043686331     A.U. after   13 cycles
 SCF Done:  E(RB3LYP) =  -985.043798378     A.U. after   12 cycles
 SCF Done:  E(RB3LYP) =  -985.043869294     A.U. after   12 cycles
 SCF Done:  E(RB3LYP) =  -985.043946169     A.U. after   12 cycles
 SCF Done:  E(RB3LYP) =  -985.044891168     A.U. after    9 cycles
 SCF Done:  E(RB3LYP) =  -985.044891277     A.U. after    8 cycles
 SCF Done:  E(RB3LYP) =  -985.044891453     A.U. after    8 cycles
 SCF Done:  E(RB3LYP) =  -985.044891718     A.U. after    8 cycles
 SCF Done:  E(RB3LYP) =  -985.044891915     A.U. after    8 cycles
 Optimization completed.
    -- Stationary point found.
 Normal termination of Gaussian 16 at Wed Dec  9 22:44:28 2020.

 --------------------------------------------------------------------
 #N Geom=AllCheck Guess=TCheck SCRF=Check GenChk RB3LYP/6-31G(d) Freq
 --------------------------------------------------------------------

 Structure from the checkpoint file:  "JID_3274.chk"
 ------------------------------
 CID_69591648_JID_3274_neutraal
 ------------------------------
 Charge =  0 Multiplicity = 1

 SCF Done:  E(RB3LYP) =  -985.044891915     A.U. after    1 cycles

  Exact polarizability: 185.648  -9.750 129.774   0.837   0.038  56.745
 Approx polarizability: 259.152 -22.585 234.880   2.392  -5.768  90.326

                      1                      2                      3
                      A                      A                      A
 Frequencies --     25.3598                55.6399                76.5061
 Red. masses --      7.2195                 6.3125                 1.3811
 Frc consts  --      0.0027                 0.0115                 0.0048
 IR Inten    --      3.2628                 0.1461                 0.3885

                      4                      5                      6
                      A                      A                      A
 Frequencies --     88.7794               110.9660               181.3498
 Red. masses --      2.5317                 5.7566                 6.9223
 Frc consts  --      0.0118                 0.0418                 0.1341
 IR Inten    --      3.4733                 1.3939                 2.9817

                      7                      8                      9
                      A                      A                      A
 Frequencies --    208.8102               238.7836               245.8248
 Red. masses --      3.0268                 2.6645                 2.4438
 Frc consts  --      0.0778                 0.0895                 0.0870
 IR Inten    --      1.4384                17.7154                31.9867

                     10                     11                     12
                      A                      A                      A
 Frequencies --    287.8470               340.1398               361.4214
 Red. masses --      5.5229                 3.3965                 4.0763
 Frc consts  --      0.2696                 0.2315                 0.3137
 IR Inten    --     19.8190                 1.6984                20.5887

                     13                     14                     15
                      A                      A                      A
 Frequencies --    383.8804               419.9602               452.4430
 Red. masses --      4.0351                 3.5945                 3.5549
 Frc consts  --      0.3503                 0.3735                 0.4288
 IR Inten    --     70.8717                42.2247                 0.0858

                     16                     17                     18
                      A                      A                      A
 Frequencies --    468.9376               496.2534               558.5708
 Red. masses --      3.0711                 1.3872                 5.1999
 Frc consts  --      0.3979                 0.2013                 0.9559
 IR Inten    --     23.9518               161.1761                 0.8493

                     19                     20                     21
                      A                      A                      A
 Frequencies --    582.6263               624.8742               669.1360
 Red. masses --      6.3888                 4.0479                 3.2455
 Frc consts  --      1.2778                 0.9312                 0.8562
 IR Inten    --      5.2476                 9.4344                15.1274

                     22                     23                     24
                      A                      A                      A
 Frequencies --    681.8379               741.5680               745.5735
 Red. masses --      7.4459                 2.1179                 5.3885
 Frc consts  --      2.0395                 0.6862                 1.7648
 IR Inten    --    183.5176                 6.0977                26.7895

                     25                     26                     27
                      A                      A                      A
 Frequencies --    780.3426               789.4153               820.2128
 Red. masses --      2.7848                 1.5560                 2.0268
 Frc consts  --      0.9991                 0.5713                 0.8034
 IR Inten    --      6.3503                 9.4843                41.2339

                     28                     29                     30
                      A                      A                      A
 Frequencies --    907.7949               954.0112              1000.5487
 Red. masses --      1.4032                 2.7729                 1.2906
 Frc consts  --      0.6813                 1.4869                 0.7612
 IR Inten    --      2.8124                 7.1297                 0.1521

                     31                     32                     33
                      A                      A                      A
 Frequencies --   1017.1436              1049.1505              1075.2910
 Red. masses --      6.7140                 1.9014                 1.5627
 Frc consts  --      4.0926                 1.2331                 1.0646
 IR Inten    --     10.7750                 7.6069                 5.2116

                     34                     35                     36
                      A                      A                      A
 Frequencies --   1111.7184              1118.0891              1129.2616
 Red. masses --      1.8676                 1.6007                 1.8379
 Frc consts  --      1.3600                 1.1790                 1.3809
 IR Inten    --    120.4641                19.5373                 2.7992

                     37                     38                     39
                      A                      A                      A
 Frequencies --   1190.5632              1202.2381              1269.5219
 Red. masses --      1.1921                 2.6516                 2.0151
 Frc consts  --      0.9956                 2.2581                 1.9135
 IR Inten    --     13.7780               106.0636                13.9164

                     40                     41                     42
                      A                      A                      A
 Frequencies --   1304.9639              1312.7316              1356.5051
 Red. masses --      3.1026                 6.0217                 3.7214
 Frc consts  --      3.1130                 6.1139                 4.0346
 IR Inten    --     11.0014                14.3603                41.5506

                     43                     44                     45
                      A                      A                      A
 Frequencies --   1437.9469              1458.7767              1498.4874
 Red. masses --      1.2939                 3.0897                 2.5732
 Frc consts  --      1.5763                 3.8738                 3.4044
 IR Inten    --      4.0504                53.4704               119.0714

                     46                     47                     48
                      A                      A                      A
 Frequencies --   1508.9482              1523.0829              1547.1342
 Red. masses --      1.0450                 1.1599                 1.3142
 Frc consts  --      1.4020                 1.5854                 1.8533
 IR Inten    --      6.4985                80.2376                69.4799

                     49                     50                     51
                      A                      A                      A
 Frequencies --   1619.7093              1650.6118              1727.0091
 Red. masses --      5.8661                 5.4279                 7.6726
 Frc consts  --      9.0672                 8.7131                13.4829
 IR Inten    --    140.2604               177.9773               629.5446

                     52                     53                     54
                      A                      A                      A
 Frequencies --   3053.1003              3109.7660              3140.2803
 Red. masses --      1.0369                 1.1010                 1.1019
 Frc consts  --      5.6946                 6.2732                 6.4019
 IR Inten    --     18.6407                15.3416                16.9083

                     55                     56                     57
                      A                      A                      A
 Frequencies --   3195.4582              3214.5812              3237.7473
 Red. masses --      1.0880                 1.0940                 1.0945
 Frc consts  --      6.5457                 6.6607                 6.7598
 IR Inten    --     11.3275                18.8462                 2.8931

                     58                     59                     60
                      A                      A                      A
 Frequencies --   3434.0950              3635.6146              3657.8198
 Red. masses --      1.0543                 1.0660                 1.0947
 Frc consts  --      7.3254                 8.3014                 8.6294
 IR Inten    --    102.6895                66.2936               175.7211

 - Thermochemistry -
 -------------------
 Temperature   298.150 Kelvin.  Pressure   1.00000 Atm.
 Atom     1 has atomic number  6 and mass  12.00000

 Molecular mass:   199.04155 amu.
 Principal axes and moments of inertia in atomic units:
                           1         2         3
     Eigenvalues --  1065.782695066.816836022.33853
           X            0.99999   0.00291  -0.00153
           Y           -0.00290   0.99997   0.00718
           Z            0.00155  -0.00718   0.99997
 This molecule is an asymmetric top.
 Rotational symmetry number  1.
 Warning -- assumption of classical behavior for rotation
           may cause significant error
 Rotational temperatures (Kelvin)      0.08127     0.01709     0.01438
 Rotational constants (GHZ):           1.69335     0.35619     0.29967
 Zero-point vibrational energy     431174.6 (Joules/Mol)
                                  103.05320 (Kcal/Mol)
 Warning -- explicit consideration of  19 degrees of freedom as
           vibrations may cause significant error
 Vibrational temperatures:     36.49    80.05   110.08   127.73   159.66
          (Kelvin)            260.92   300.43   343.56   353.69   414.15
                              489.39   520.00   552.32   604.23   650.96
                              674.70   714.00   803.66   838.27   899.05
                              962.74   981.01  1066.95  1072.71  1122.74
                             1135.79  1180.10  1306.11  1372.61  1439.57
                             1463.44  1509.49  1547.10  1599.51  1608.68
                             1624.76  1712.95  1729.75  1826.56  1877.55
                             1888.73  1951.71  2068.88  2098.85  2155.99
                             2171.04  2191.38  2225.98  2330.40  2374.86
                             2484.78  4392.73  4474.26  4518.16  4597.55
                             4625.07  4658.40  4940.90  5230.84  5262.79

 Zero-point correction=                           0.164226 (Hartree/Particle)
 Thermal correction to Energy=                    0.177249
 Thermal correction to Enthalpy=                  0.178193
 Thermal correction to Gibbs Free Energy=         0.123344
 Sum of electronic and zero-point Energies=           -984.880666
 Sum of electronic and thermal Energies=              -984.867643
 Sum of electronic and thermal Enthalpies=            -984.866699
 Sum of electronic and thermal Free Energies=         -984.921548

                     E (Thermal)             CV                S
                      KCal/Mol        Cal/Mol-Kelvin    Cal/Mol-Kelvin
 Total                  111.225             47.774            115.441
 Electronic               0.000              0.000              0.000
 Translational            0.889              2.981             41.770
 Rotational               0.889              2.981             31.853
 Vibrational            109.448             41.812             41.818
 Vibration     1          0.593              1.985              6.163
 Vibration     2          0.596              1.975              4.606
 Vibration     3          0.599              1.965              3.979
 Vibration     4          0.602              1.957              3.687
 Vibration     5          0.607              1.940              3.252
 Vibration     6          0.630              1.865              2.314
 Vibration     7          0.642              1.827              2.054
 Vibration     8          0.657              1.781              1.812
 Vibration     9          0.660              1.770              1.760
 Vibration    10          0.685              1.696              1.487
 Vibration    11          0.720              1.595              1.211
 Vibration    12          0.736              1.552              1.116
 Vibration    13          0.753              1.505              1.024
 Vibration    14          0.783              1.427              0.892
 Vibration    15          0.811              1.355              0.788
 Vibration    16          0.826              1.319              0.741
 Vibration    17          0.852              1.258              0.668
 Vibration    18          0.914              1.121              0.527
 Vibration    19          0.939              1.069              0.481

                           ! Non-Optimized Parameters !
 Normal termination of Gaussian 16 at Wed Dec  9 22:49:30 2020.

 ----------------------------------------------------------------------
 # B3LYP/6-311++G(d,p) empiricaldispersion=gd3bj scf=xqc pop=npa geom=c
 heck
 ----------------------------------------------------------------------

 --------------------------------------
 CID_69591648_JID_3274_Energie_neutraal
 --------------------------------------
 Structure from the checkpoint file:  "JID_3274.chk"
 Charge =  0 Multiplicity = 1

 SCF Done:  E(RB3LYP) =  -985.248317848     A.U. after   16 cycles
 Normal termination of Gaussian 16 at Wed Dec  9 22:52:20 2020.

 ----------------------------------------------------------------------
 # B3LYP/6-311++G(d,p) empiricaldispersion=gd3bj scf=xqc pop=npa geom=c
 heck
 ----------------------------------------------------------------------

 ------------------------------------
 CID_69591648_JID_3274_Energie_kation
 ------------------------------------
 Structure from the checkpoint file:  "JID_3274.chk"
 Charge =  1 Multiplicity = 2

 SCF Done:  E(UB3LYP) =  -984.946259407     A.U. after   27 cycles
 Normal termination of Gaussian 16 at Wed Dec  9 22:58:12 2020.
 Gaussian 16:  ES64L-G16RevA.03 25-Dec-2016

 ----------------------------------------------------------------------
 # B3LYP/6-311++G(d,p) empiricaldispersion=gd3bj scf=xqc pop=npa geom=c
 heck
 ----------------------------------------------------------------------

 -----------------------------------
 CID_69591648_JID_3274_Energie_anion
 -----------------------------------
 Structure from the checkpoint file:  "JID_3274.chk"
 Charge = -1 Multiplicity = 2

                         Standard orientation:
 ---------------------------------------------------------------------
 Center     Atomic      Atomic             Coordinates (Angstroms)
 Number     Number       Type             X           Y           Z
 ---------------------------------------------------------------------
      1          6           0        3.457778    2.046366    0.103491
      2          6           0        2.882173    0.654659    0.052638
      3          7           0        1.542327    0.570628   -0.023725
      4          6           0        0.957150   -0.644377   -0.072818
      5          6           0        1.712808   -1.831582   -0.046960
      6          6           0        3.092499   -1.740584    0.031810
      7          6           0        3.693672   -0.479336    0.082551
      8          7           0       -0.425661   -0.782171   -0.151842
      9          6           0       -1.216629    0.229877   -0.151375
     10          7           0       -0.971145    1.549911   -0.136047
     11         16           0       -3.004621   -0.257805   -0.375711
     12          8           0       -3.273616   -1.345522    0.598691
     13          8           0       -3.663217    1.194440    0.235025
     14          1           0        4.549495    2.029311    0.162809
     15          1           0        3.167476    2.614066   -0.788072
     16          1           0        3.071660    2.589516    0.973782
     17          1           0        1.190577   -2.780101   -0.087744
     18          1           0        3.701998   -2.639681    0.054004
     19          1           0        4.771999   -0.375327    0.144183
     20          1           0       -1.740620    2.200280   -0.059993
     21          1           0        0.013247    1.814722   -0.082189
     22          1           0       -3.652572    1.102026    1.210147
 ---------------------------------------------------------------------

 SCF Done:  E(UB3LYP) =  -985.257120045     A.U. after   33 cycles
 SCF Done:  E(UB3LYP) =  -985.257120045     a.u. after    1 cycles

 The electronic state is 2-A.
 Alpha  occ. eigenvalues --  -88.84137 -19.02410 -18.96825 -14.18572 -14.15545
 Alpha  occ. eigenvalues --  -14.14573 -10.10294 -10.08337 -10.08293 -10.05895
 Alpha  occ. eigenvalues --  -10.04650 -10.03618 -10.03334  -7.91457  -5.87935
 Alpha  occ. eigenvalues --   -5.87536  -5.86974  -0.94237  -0.87117  -0.83275
 Alpha  occ. eigenvalues --   -0.79350  -0.73345  -0.66447  -0.64674  -0.58612
 Alpha  occ. eigenvalues --   -0.56423  -0.50351  -0.47494  -0.44288  -0.41351
 Alpha  occ. eigenvalues --   -0.39677  -0.37701  -0.36239  -0.34506  -0.32116
 Alpha  occ. eigenvalues --   -0.31663  -0.30955  -0.29172  -0.28848  -0.27963
 Alpha  occ. eigenvalues --   -0.26371  -0.25485  -0.24160  -0.22709  -0.21251
 Alpha  occ. eigenvalues --   -0.17447  -0.16305  -0.14830  -0.14320  -0.12971
 Alpha  occ. eigenvalues --   -0.10439  -0.08843   0.04514
 Alpha virt. eigenvalues --    0.07665   0.08496   0.09087   0.10202   0.10545
 Alpha virt. eigenvalues --    0.11649   0.12324   0.12800   0.13025   0.13561
 Alpha virt. eigenvalues --    0.13888   0.14996   0.15984   0.16354   0.16551

  Beta  occ. eigenvalues --  -88.84093 -19.02265 -18.96723 -14.18364 -14.15263
  Beta  occ. eigenvalues --  -14.14632 -10.09938 -10.08397 -10.08059 -10.05893
  Beta  occ. eigenvalues --  -10.04508 -10.03678 -10.03170  -7.91413  -5.87854
  Beta  occ. eigenvalues --   -5.87448  -5.86957  -0.93908  -0.86833  -0.82859
  Beta  occ. eigenvalues --   -0.78906  -0.73076  -0.66116  -0.64486  -0.58282
  Beta  occ. eigenvalues --   -0.56156  -0.49851  -0.47386  -0.43924  -0.41140
  Beta  occ. eigenvalues --   -0.39467  -0.37520  -0.36109  -0.34335  -0.31713
  Beta  occ. eigenvalues --   -0.31463  -0.30704  -0.29094  -0.28769  -0.27153
  Beta  occ. eigenvalues --   -0.26239  -0.24971  -0.24072  -0.21834  -0.21021
  Beta  occ. eigenvalues --   -0.16956  -0.15011  -0.14212  -0.13956  -0.12708
  Beta  occ. eigenvalues --   -0.10165  -0.07969
  Beta virt. eigenvalues --    0.07559   0.08514   0.09031   0.10155   0.10356
  Beta virt. eigenvalues --    0.10622   0.11710   0.12458   0.12848   0.13134
  Beta virt. eigenvalues --    0.13923   0.14142   0.15185   0.16124   0.16381

 Mulliken charges and spin densities:
               1          2
     1  C   -0.536223  -0.043538
     2  C   -0.050190  -0.067789
     3  N   -0.032536   0.118311
     4  C   -1.076351   0.165833
     5  C    0.710776   0.057307
     6  C   -0.754249   0.076223
     7  C    0.142099   0.178809
     8  N   -0.011807  -0.040922
     9  C   -0.406384   0.417732
    10  N   -0.446830   0.067871
    11  S    0.813865  -0.207730
    12  O   -0.431549  -0.011377
    13  O   -0.287726  -0.066917
    14  H    0.128160   0.000826
    15  H    0.136685   0.005500
    16  H    0.124639   0.017200
    17  H    0.171072   0.008259
    18  H    0.122531  -0.010576
    19  H    0.105951  -0.006292
    20  H    0.160020   0.103783
    21  H    0.345138   0.021417
    22  H    0.072908   0.216070
 Sum of Mulliken charges =  -1.00000   1.00000

 Dipole moment (field-independent basis, Debye):
    X=              4.2209    Y=              2.6172    Z=             -0.3947  Tot=              4.9821
 Quadrupole moment (field-independent basis, Debye-Ang):
   XX=           -131.6775   YY=            -98.0543   ZZ=            -93.0103
   XY=             -2.5358   XZ=              2.0950   YZ=              2.9334

 Summary of Natural Population Analysis:

                                       Natural Population
                Natural  -----------------------------------------------
    Atom  No    Charge         Core      Valence    Rydberg      Total
 -----------------------------------------------------------------------
      C    1   -0.29389      0.99964     2.28941    0.00485     3.29389
      C    2    0.09753      0.99956     1.89083    0.01207     2.90247
      N    3   -0.25188      0.99963     2.74022    0.01204     3.75188
      C    4    0.22676      0.99952     1.75872    0.01499     2.77324
      C    5   -0.13109      0.99953     2.12293    0.00863     3.13109
      C    6   -0.06543      0.99958     2.05700    0.00885     3.06543
      C    7   -0.11749      0.99951     2.10938    0.00860     3.11749
      N    8   -0.30805      0.99960     2.79744    0.01101     3.80805
      C    9    0.20556      0.99955     1.76820    0.02669     2.79444
      N   10   -0.38736      0.99967     2.87803    0.00967     3.88736
      S   11    0.70427      4.99949     2.23198    0.06426     7.29573
      O   12   -0.45232      0.99992     3.44539    0.00701     4.45232
      O   13   -0.44869      0.99992     3.44064    0.00813     4.44869
      H   14    0.09390      0.00000     0.40537    0.00073     0.40610
      H   15    0.10045      0.00000     0.39813    0.00142     0.39955
      H   16    0.10067      0.00000     0.39797    0.00135     0.39933
      H   17    0.10378      0.00000     0.39524    0.00098     0.39622
      H   18    0.08893      0.00000     0.40949    0.00158     0.41107
      H   19    0.09071      0.00000     0.40830    0.00098     0.40929
      H   20    0.19681      0.00000     0.30119    0.00199     0.30319
      H   21    0.21333      0.00000     0.28392    0.00275     0.28667
      H   22    0.23347      0.00000     0.26083    0.00570     0.26653
 =======================================================================
   * Total *   -0.00000     16.99511    34.79060    0.21429    52.00000

 Normal termination of Gaussian 16 at Wed Dec  9 23:05:33 2020.
