 Gaussian 16, Revision A.03,

 -----------------------------------------------------------
 # opt freq B3LYP/6-31G(d) empiricaldispersion=gd3bj scf=xqc
 -----------------------------------------------------------

 -------------------------------
 CID_112722295_JID_3771_neutraal
 -------------------------------
 Symbolic Z-matrix:
 Charge =  0 Multiplicity = 1

 SCF Done:  E(RB3LYP) =  -917.075342144     A.U. after   15 cycles
 SCF Done:  E(RB3LYP) =  -917.079736452     A.U. after   12 cycles
 SCF Done:  E(RB3LYP) =  -917.080678084     A.U. after   12 cycles
 SCF Done:  E(RB3LYP) =  -917.081297443     A.U. after   12 cycles
 SCF Done:  E(RB3LYP) =  -917.081565797     A.U. after   12 cycles
 SCF Done:  E(RB3LYP) =  -917.081686839     A.U. after   12 cycles
 SCF Done:  E(RB3LYP) =  -917.081738966     A.U. after   11 cycles
 SCF Done:  E(RB3LYP) =  -917.081748792     A.U. after    9 cycles
 SCF Done:  E(RB3LYP) =  -917.081753464     A.U. after   10 cycles
 SCF Done:  E(RB3LYP) =  -917.081755539     A.U. after    9 cycles
 SCF Done:  E(RB3LYP) =  -917.081757639     A.U. after    8 cycles
 SCF Done:  E(RB3LYP) =  -917.081758537     A.U. after    8 cycles
 SCF Done:  E(RB3LYP) =  -917.081758655     A.U. after    7 cycles
 SCF Done:  E(RB3LYP) =  -917.081758677     A.U. after    7 cycles
 Optimization completed.
    -- Stationary point found.
 Normal termination of Gaussian 16 at Sun Dec 13 12:20:46 2020.

 --------------------------------------------------------------------
 #N Geom=AllCheck Guess=TCheck SCRF=Check GenChk RB3LYP/6-31G(d) Freq
 --------------------------------------------------------------------

 Structure from the checkpoint file:  "JID_3771.chk"
 -------------------------------
 CID_112722295_JID_3771_neutraal
 -------------------------------
 Charge =  0 Multiplicity = 1

 SCF Done:  E(RB3LYP) =  -917.081758677     A.U. after    1 cycles

  Exact polarizability: 168.519   4.129 127.552  -8.603  -8.636  85.174
 Approx polarizability: 213.932   6.724 236.572 -21.536 -16.381 136.191

                      1                      2                      3
                      A                      A                      A
 Frequencies --     31.9772                43.6139                63.5100
 Red. masses --      4.9449                 4.5364                 4.1592
 Frc consts  --      0.0030                 0.0051                 0.0099
 IR Inten    --      1.0789                 1.0212                 1.7184

                      4                      5                      6
                      A                      A                      A
 Frequencies --    101.4928               114.4307               139.1958
 Red. masses --      3.4333                 2.1009                 1.7685
 Frc consts  --      0.0208                 0.0162                 0.0202
 IR Inten    --      0.5980                 4.8560                 0.3195

                      7                      8                      9
                      A                      A                      A
 Frequencies --    158.4264               207.5685               214.1918
 Red. masses --      1.9072                 3.2580                 2.0903
 Frc consts  --      0.0282                 0.0827                 0.0565
 IR Inten    --      1.1774                 0.8443                 1.3815

                     10                     11                     12
                      A                      A                      A
 Frequencies --    229.4088               244.1987               314.8612
 Red. masses --      3.2980                 1.8925                 4.0274
 Frc consts  --      0.1023                 0.0665                 0.2352
 IR Inten    --      0.8000                 7.2784                 3.2752

                     13                     14                     15
                      A                      A                      A
 Frequencies --    338.4572               401.9011               429.7798
 Red. masses --      2.9353                 2.3030                 3.1762
 Frc consts  --      0.1981                 0.2192                 0.3457
 IR Inten    --      1.6974                 5.9062                 4.2435

                     16                     17                     18
                      A                      A                      A
 Frequencies --    488.1053               520.3627               572.1189
 Red. masses --      5.2103                 4.2169                 3.5630
 Frc consts  --      0.7314                 0.6728                 0.6871
 IR Inten    --      1.4253                18.9569                 1.9972

                     19                     20                     21
                      A                      A                      A
 Frequencies --    615.8337               643.6744               697.6756
 Red. masses --      5.9061                 3.5954                 2.4054
 Frc consts  --      1.3197                 0.8777                 0.6898
 IR Inten    --      4.4311                 3.9029                16.7912

                     22                     23                     24
                      A                      A                      A
 Frequencies --    702.2592               724.2798               752.2782
 Red. masses --      1.9558                 3.2067                 6.8299
 Frc consts  --      0.5683                 0.9911                 2.2773
 IR Inten    --     36.8763                20.8536                 3.0550

                     25                     26                     27
                      A                      A                      A
 Frequencies --    775.0517               851.6652               863.0464
 Red. masses --      2.6459                 2.4315                 1.9558
 Frc consts  --      0.9365                 1.0391                 0.8583
 IR Inten    --     14.1718                13.8968                14.9529

                     28                     29                     30
                      A                      A                      A
 Frequencies --    866.8348               928.0344               939.7976
 Red. masses --      2.0705                 1.3697                 1.9055
 Frc consts  --      0.9166                 0.6951                 0.9916
 IR Inten    --      8.2748                 3.9382                 9.0640

                     31                     32                     33
                      A                      A                      A
 Frequencies --    961.4800              1012.6644              1022.0298
 Red. masses --      1.7544                 1.1553                 2.1737
 Frc consts  --      0.9556                 0.6980                 1.3378
 IR Inten    --     15.9654                21.8739                71.1621

                     34                     35                     36
                      A                      A                      A
 Frequencies --   1068.1026              1082.8251              1110.4075
 Red. masses --      1.5673                 1.5395                 1.2803
 Frc consts  --      1.0535                 1.0636                 0.9301
 IR Inten    --     19.0340                 1.7045                 2.0979

                     37                     38                     39
                      A                      A                      A
 Frequencies --   1129.6933              1150.0660              1163.9999
 Red. masses --      2.2501                 1.9014                 1.3140
 Frc consts  --      1.6919                 1.4817                 1.0489
 IR Inten    --     17.8073                13.1484                 5.3285

                     40                     41                     42
                      A                      A                      A
 Frequencies --   1202.6805              1225.7754              1274.2193
 Red. masses --      2.5415                 2.6047                 1.7134
 Frc consts  --      2.1659                 2.3059                 1.6390
 IR Inten    --     36.8662                32.5029                77.7862

                     43                     44                     45
                      A                      A                      A
 Frequencies --   1314.4882              1331.9022              1346.3352
 Red. masses --      1.2839                 1.8460                 1.2730
 Frc consts  --      1.3070                 1.9294                 1.3595
 IR Inten    --      6.6184                80.7139                 9.9881

                     46                     47                     48
                      A                      A                      A
 Frequencies --   1397.9188              1404.5567              1440.3260
 Red. masses --      1.3820                 2.1073                 1.2740
 Frc consts  --      1.5912                 2.4494                 1.5572
 IR Inten    --     15.7473                25.4962                 4.0870

                     49                     50                     51
                      A                      A                      A
 Frequencies --   1448.8030              1491.0915              1492.9396
 Red. masses --      1.9008                 1.1510                 5.6270
 Frc consts  --      2.3507                 1.5077                 7.3894
 IR Inten    --    102.8844                 9.6293                 9.2932

                     52                     53                     54
                      A                      A                      A
 Frequencies --   1501.4366              1507.8925              1516.7130
 Red. masses --      1.3100                 1.0461                 1.0598
 Frc consts  --      1.7399                 1.4014                 1.4365
 IR Inten    --     45.4089                 6.2709                10.2841

                     55                     56                     57
                      A                      A                      A
 Frequencies --   1527.1512              1551.1039              1600.2753
 Red. masses --      1.0517                 1.1313                 5.3135
 Frc consts  --      1.4451                 1.6037                 8.0171
 IR Inten    --      8.9200                29.1780                 1.2344

                     58                     59                     60
                      A                      A                      A
 Frequencies --   1713.9254              1742.6990              3035.4677
 Red. masses --      8.4943                 6.5485                 1.0426
 Frc consts  --     14.7015                11.7176                 5.6601
 IR Inten    --    162.7316               114.8627                41.9958

                     61                     62                     63
                      A                      A                      A
 Frequencies --   3036.6486              3070.0560              3084.2805
 Red. masses --      1.0377                 1.0685                 1.0998
 Frc consts  --      5.6377                 5.9338                 6.1641
 IR Inten    --     31.4712                31.1749                18.5128

                     64                     65                     66
                      A                      A                      A
 Frequencies --   3088.8952              3126.6919              3151.8841
 Red. masses --      1.1009                 1.0996                 1.0965
 Frc consts  --      6.1888                 6.3336                 6.4178
 IR Inten    --     18.9659                10.1555                 1.3699

                     67                     68                     69
                      A                      A                      A
 Frequencies --   3160.8829              3187.6323              3190.4208
 Red. masses --      1.0907                 1.0888                 1.0953
 Frc consts  --      6.4207                 6.5186                 6.5685
 IR Inten    --     18.2652                10.7961                 5.4142

                     70                     71                     72
                      A                      A                      A
 Frequencies --   3220.9264              3245.6350              3271.6751
 Red. masses --      1.0896                 1.0950                 1.0969
 Frc consts  --      6.6598                 6.7964                 6.9177
 IR Inten    --      8.7722                 0.6398                 1.4858

 - Thermochemistry -
 -------------------
 Temperature   298.150 Kelvin.  Pressure   1.00000 Atm.
 Atom     1 has atomic number  6 and mass  12.00000

 Molecular mass:   195.07179 amu.
 Principal axes and moments of inertia in atomic units:
                           1         2         3
     Eigenvalues --  1028.439735454.735375918.05956
           X            0.99988   0.01464   0.00417
           Y           -0.01455   0.99968  -0.02059
           Z           -0.00447   0.02053   0.99978
 This molecule is an asymmetric top.
 Rotational symmetry number  1.
 Warning -- assumption of classical behavior for rotation
           may cause significant error
 Rotational temperatures (Kelvin)      0.08422     0.01588     0.01464
 Rotational constants (GHZ):           1.75483     0.33086     0.30495
 Zero-point vibrational energy     559724.5 (Joules/Mol)
                                  133.77737 (Kcal/Mol)
 Warning -- explicit consideration of  19 degrees of freedom as
           vibrations may cause significant error
 Vibrational temperatures:     46.01    62.75    91.38   146.03   164.64
          (Kelvin)            200.27   227.94   298.64   308.17   330.07
                              351.35   453.01   486.96   578.25   618.36
                              702.27   748.69   823.15   886.05   926.10
                             1003.80  1010.39  1042.08  1082.36  1115.13
                             1225.36  1241.73  1247.18  1335.23  1352.16
                             1383.36  1457.00  1470.47  1536.76  1557.94
                             1597.63  1625.38  1654.69  1674.74  1730.39
                             1763.62  1833.32  1891.26  1916.31  1937.08
                             2011.29  2020.84  2072.31  2084.50  2145.35
                             2148.01  2160.23  2169.52  2182.21  2197.23
                             2231.69  2302.44  2465.96  2507.36  4367.36
                             4369.06  4417.13  4437.59  4444.23  4498.61
                             4534.86  4547.81  4586.29  4590.30  4634.19
                             4669.74  4707.21

 Zero-point correction=                           0.213188 (Hartree/Particle)
 Thermal correction to Energy=                    0.226834
 Thermal correction to Enthalpy=                  0.227778
 Thermal correction to Gibbs Free Energy=         0.171475
 Sum of electronic and zero-point Energies=           -916.868571
 Sum of electronic and thermal Energies=              -916.854925
 Sum of electronic and thermal Enthalpies=            -916.853980
 Sum of electronic and thermal Free Energies=         -916.910284

                     E (Thermal)             CV                S
                      KCal/Mol        Cal/Mol-Kelvin    Cal/Mol-Kelvin
 Total                  142.341             49.588            118.501
 Electronic               0.000              0.000              0.000
 Translational            0.889              2.981             41.710
 Rotational               0.889              2.981             31.874
 Vibrational            140.563             43.626             44.917
 Vibration     1          0.594              1.983              5.703
 Vibration     2          0.595              1.980              5.088
 Vibration     3          0.597              1.972              4.345
 Vibration     4          0.604              1.948              3.425
 Vibration     5          0.607              1.937              3.192
 Vibration     6          0.615              1.914              2.815
 Vibration     7          0.621              1.893              2.568
 Vibration     8          0.641              1.829              2.065
 Vibration     9          0.644              1.819              2.008
 Vibration    10          0.652              1.796              1.884
 Vibration    11          0.660              1.772              1.772
 Vibration    12          0.702              1.645              1.337
 Vibration    13          0.719              1.599              1.219
 Vibration    14          0.768              1.466              0.956
 Vibration    15          0.791              1.405              0.859
 Vibration    16          0.844              1.276              0.689
 Vibration    17          0.875              1.205              0.609
 Vibration    18          0.928              1.092              0.500
 Vibration    19          0.975              0.998              0.423

                           ! Non-Optimized Parameters !
 Normal termination of Gaussian 16 at Sun Dec 13 12:26:32 2020.

 ----------------------------------------------------------------------
 # B3LYP/6-311++G(d,p) empiricaldispersion=gd3bj scf=xqc pop=npa geom=c
 heck
 ----------------------------------------------------------------------

 ---------------------------------------
 CID_112722295_JID_3771_Energie_neutraal
 ---------------------------------------
 Structure from the checkpoint file:  "JID_3771.chk"
 Charge =  0 Multiplicity = 1

 SCF Done:  E(RB3LYP) =  -917.253474369     A.U. after   16 cycles
 Normal termination of Gaussian 16 at Sun Dec 13 12:28:54 2020.

 ----------------------------------------------------------------------
 # B3LYP/6-311++G(d,p) empiricaldispersion=gd3bj scf=xqc pop=npa geom=c
 heck
 ----------------------------------------------------------------------

 -------------------------------------
 CID_112722295_JID_3771_Energie_kation
 -------------------------------------
 Structure from the checkpoint file:  "JID_3771.chk"
 Charge =  1 Multiplicity = 2

 SCF Done:  E(UB3LYP) =  -916.953429137     A.U. after   33 cycles
 SCF Done:  E(UB3LYP) =  -916.953429137     a.u. after    1 cycles
 Normal termination of Gaussian 16 at Sun Dec 13 12:35:27 2020.
 Gaussian 16:  ES64L-G16RevA.03 25-Dec-2016

 ----------------------------------------------------------------------
 # B3LYP/6-311++G(d,p) empiricaldispersion=gd3bj scf=xqc pop=npa geom=c
 heck
 ----------------------------------------------------------------------

 ------------------------------------
 CID_112722295_JID_3771_Energie_anion
 ------------------------------------
 Structure from the checkpoint file:  "JID_3771.chk"
 Charge = -1 Multiplicity = 2

                         Standard orientation:
 ---------------------------------------------------------------------
 Center     Atomic      Atomic             Coordinates (Angstroms)
 Number     Number       Type             X           Y           Z
 ---------------------------------------------------------------------
      1          6           0       -5.136294   -0.285945   -0.672687
      2          6           0       -3.740164   -0.305481   -0.128605
      3          6           0       -2.817650    0.634998   -0.361441
      4          6           0       -1.487110    0.725893    0.307335
      5          8           0       -1.107571    1.820730    0.727049
      6          7           0       -0.750076   -0.419897    0.499894
      7          6           0       -0.858229   -1.629027   -0.304115
      8          6           0        0.478472   -0.288905    1.291614
      9          6           0        1.687215    0.072657    0.470936
     10          6           0        1.985970    1.286675   -0.091518
     11          6           0        3.197350    1.273456   -0.846285
     12          6           0        3.808757    0.049239   -0.854728
     13         16           0        2.906561   -1.112539    0.065002
     14          1           0       -5.305236    0.582612   -1.316641
     15          1           0       -5.873083   -0.259166    0.140934
     16          1           0       -5.344664   -1.193660   -1.254434
     17          1           0       -3.488352   -1.144256    0.520245
     18          1           0       -3.065092    1.513712   -0.952790
     19          1           0        0.097366   -1.826088   -0.804407
     20          1           0       -1.107985   -2.498067    0.318809
     21          1           0       -1.626858   -1.508173   -1.064868
     22          1           0        0.298829    0.490647    2.032871
     23          1           0        0.636708   -1.236661    1.817833
     24          1           0        1.340732    2.147749    0.035963
     25          1           0        3.599537    2.141425   -1.357381
     26          1           0        4.734315   -0.237371   -1.334856
 ---------------------------------------------------------------------

 SCF Done:  E(UB3LYP) =  -917.240552453     A.U. after   33 cycles
 SCF Done:  E(UB3LYP) =  -917.240645460     a.u. after    6 cycles

 The electronic state is 2-A.
 Alpha  occ. eigenvalues --  -88.77857 -18.97471 -14.23670 -10.15882 -10.11669
 Alpha  occ. eigenvalues --  -10.10285 -10.09976 -10.09649 -10.08071 -10.07246
 Alpha  occ. eigenvalues --  -10.07216 -10.06645 -10.06266  -7.86478  -5.82751
 Alpha  occ. eigenvalues --   -5.82394  -5.82099  -0.92783  -0.83191  -0.78198
 Alpha  occ. eigenvalues --   -0.69687  -0.66313  -0.63733  -0.60989  -0.60465
 Alpha  occ. eigenvalues --   -0.56996  -0.48308  -0.46831  -0.45163  -0.43335
 Alpha  occ. eigenvalues --   -0.41102  -0.39959  -0.37109  -0.35205  -0.33475
 Alpha  occ. eigenvalues --   -0.32818  -0.31488  -0.30955  -0.30814  -0.29779
 Alpha  occ. eigenvalues --   -0.29095  -0.28262  -0.27529  -0.27411  -0.26684
 Alpha  occ. eigenvalues --   -0.24984  -0.24574  -0.16706  -0.16007  -0.15172
 Alpha  occ. eigenvalues --   -0.13956  -0.13490   0.04545
 Alpha virt. eigenvalues --    0.05935   0.06611   0.07255   0.07558   0.08452
 Alpha virt. eigenvalues --    0.09089   0.09400   0.10199   0.10479   0.10828
 Alpha virt. eigenvalues --    0.11397   0.12304   0.12630   0.13330   0.13502

  Beta  occ. eigenvalues --  -88.77851 -18.97407 -14.23655 -10.15821 -10.11671
  Beta  occ. eigenvalues --  -10.10235 -10.09920 -10.09617 -10.08065 -10.07244
  Beta  occ. eigenvalues --  -10.07068 -10.06618 -10.06255  -7.86472  -5.82746
  Beta  occ. eigenvalues --   -5.82391  -5.82084  -0.92669  -0.83135  -0.78145
  Beta  occ. eigenvalues --   -0.69491  -0.66228  -0.63696  -0.60881  -0.60392
  Beta  occ. eigenvalues --   -0.56934  -0.48080  -0.46738  -0.45056  -0.43287
  Beta  occ. eigenvalues --   -0.41059  -0.39886  -0.37038  -0.35106  -0.33416
  Beta  occ. eigenvalues --   -0.32712  -0.31306  -0.30907  -0.30752  -0.29731
  Beta  occ. eigenvalues --   -0.29049  -0.28156  -0.27417  -0.27245  -0.26579
  Beta  occ. eigenvalues --   -0.24882  -0.24494  -0.16426  -0.15909  -0.14883
  Beta  occ. eigenvalues --   -0.13754  -0.13301
  Beta virt. eigenvalues --    0.06724   0.07074   0.07211   0.07936   0.08091
  Beta virt. eigenvalues --    0.08650   0.09596   0.09667   0.10406   0.10836
  Beta virt. eigenvalues --    0.11168   0.11677   0.12452   0.12758   0.13267

 Mulliken charges and spin densities:
               1          2
     1  C    1.651422  -2.283495
     2  C   -0.794131   0.989638
     3  C    0.259199  -0.088616
     4  C   -0.638516   0.151876
     5  O   -0.337102   0.023213
     6  N    0.116932   0.128617
     7  C    0.577303  -0.944204
     8  C   -0.376238  -0.455883
     9  C    0.249700  -0.069221
    10  C   -0.532985   0.976257
    11  C    0.451559  -1.032300
    12  C   -0.386134   0.362142
    13  S    0.477336  -0.662733
    14  H   -0.088696   0.221950
    15  H   -0.111575   0.248741
    16  H   -0.560173   0.721970
    17  H   -0.304955   0.460285
    18  H    0.088755   0.097274
    19  H   -0.336747   0.439963
    20  H   -0.238138   0.398683
    21  H    0.083227   0.088038
    22  H    0.188742   0.027494
    23  H    0.067716   0.107888
    24  H    0.211568   0.005163
    25  H    0.021506   0.105939
    26  H   -0.739578   0.981318
 Sum of Mulliken charges =  -1.00000   1.00000

 Dipole moment (field-independent basis, Debye):
    X=              4.0768    Y=              2.1216    Z=              2.7261  Tot=              5.3435
 Quadrupole moment (field-independent basis, Debye-Ang):
   XX=           -183.2597   YY=           -120.5476   ZZ=           -112.6100
   XY=             -8.6378   XZ=             -0.0731   YZ=             -8.1455

 Summary of Natural Population Analysis:

                                       Natural Population
                Natural  -----------------------------------------------
    Atom  No    Charge         Core      Valence    Rydberg      Total
 -----------------------------------------------------------------------
      C    1   -0.30286      0.99965     2.29709    0.00612     3.30286
      C    2   -0.03960      0.99954     2.03092    0.00914     3.03960
      C    3   -0.14640      0.99947     2.13567    0.01125     3.14640
      C    4    0.33950      0.99960     1.63757    0.02333     2.66050
      O    5   -0.32586      0.99988     3.32101    0.00497     4.32586
      N    6   -0.25253      0.99965     2.74181    0.01106     3.75253
      C    7   -0.17896      0.99963     2.17124    0.00809     3.17896
      C    8   -0.10283      0.99954     2.09110    0.01219     3.10283
      C    9   -0.10028      0.99950     2.08852    0.01227     3.10028
      C   10   -0.12652      0.99946     2.11687    0.01020     3.12652
      C   11   -0.12710      0.99954     2.11701    0.01056     3.12710
      C   12   -0.19263      0.99955     2.18122    0.01186     3.19263
      S   13    0.20203      4.99940     2.77780    0.02077     7.79797
      H   14    0.09813      0.00000     0.40088    0.00099     0.40187
      H   15    0.10256      0.00000     0.39651    0.00093     0.39744
      H   16    0.11009      0.00000     0.38570    0.00421     0.38991
      H   17    0.09123      0.00000     0.40699    0.00178     0.40877
      H   18    0.10096      0.00000     0.39803    0.00101     0.39904
      H   19    0.09711      0.00000     0.40131    0.00157     0.40289
      H   20    0.09075      0.00000     0.40783    0.00142     0.40925
      H   21    0.11092      0.00000     0.38770    0.00139     0.38908
      H   22    0.11983      0.00000     0.37897    0.00119     0.38017
      H   23    0.09796      0.00000     0.40105    0.00099     0.40204
      H   24    0.12000      0.00000     0.37895    0.00105     0.38000
      H   25    0.10457      0.00000     0.39466    0.00077     0.39543
      H   26    0.10993      0.00000     0.38844    0.00163     0.39007
 =======================================================================
   * Total *    0.00000     16.99441    34.83483    0.17076    52.00000

 Normal termination of Gaussian 16 at Sun Dec 13 13:12:15 2020.
