 Gaussian 16, Revision A.03,

 -----------------------------------------------------------
 # opt freq B3LYP/6-31G(d) empiricaldispersion=gd3bj scf=xqc
 -----------------------------------------------------------

 -------------------------------
 CID_128366074_JID_8065_neutraal
 -------------------------------
 Symbolic Z-matrix:
 Charge =  0 Multiplicity = 1

 SCF Done:  E(RB3LYP) =  -1144.58931413     A.U. after   15 cycles
 SCF Done:  E(RB3LYP) =  -1144.59964245     A.U. after   13 cycles
 SCF Done:  E(RB3LYP) =  -1144.59517654     A.U. after   13 cycles
 SCF Done:  E(RB3LYP) =  -1144.60083432     A.U. after   12 cycles
 SCF Done:  E(RB3LYP) =  -1144.60164915     A.U. after   12 cycles
 SCF Done:  E(RB3LYP) =  -1144.60191636     A.U. after   12 cycles
 SCF Done:  E(RB3LYP) =  -1144.60213208     A.U. after   11 cycles
 SCF Done:  E(RB3LYP) =  -1144.60236286     A.U. after   11 cycles
 SCF Done:  E(RB3LYP) =  -1144.60246631     A.U. after   11 cycles
 SCF Done:  E(RB3LYP) =  -1144.60249195     A.U. after   10 cycles
 SCF Done:  E(RB3LYP) =  -1144.60250040     A.U. after    8 cycles
 SCF Done:  E(RB3LYP) =  -1144.60250046     A.U. after    8 cycles
 SCF Done:  E(RB3LYP) =  -1144.60250051     A.U. after    8 cycles
 SCF Done:  E(RB3LYP) =  -1144.60250054     A.U. after    7 cycles
 SCF Done:  E(RB3LYP) =  -1144.60250055     A.U. after    6 cycles
 Optimization completed.
    -- Stationary point found.
 Normal termination of Gaussian 16 at Fri Dec 11 18:55:27 2020.

 --------------------------------------------------------------------
 #N Geom=AllCheck Guess=TCheck SCRF=Check GenChk RB3LYP/6-31G(d) Freq
 --------------------------------------------------------------------

 Structure from the checkpoint file:  "JID_8065.chk"
 -------------------------------
 CID_128366074_JID_8065_neutraal
 -------------------------------
 Charge =  0 Multiplicity = 1

 SCF Done:  E(RB3LYP) =  -1144.60250055     A.U. after    1 cycles

  Exact polarizability: 205.626  -1.346 174.606  -5.160  -1.811 123.236
 Approx polarizability: 287.675   3.302 276.670 -13.535   0.253 194.347

                      1                      2                      3
                      A                      A                      A
 Frequencies --     22.0686                47.0284                68.4142
 Red. masses --      6.0535                 3.7869                 4.3211
 Frc consts  --      0.0017                 0.0049                 0.0119
 IR Inten    --      0.3022                 0.4366                 0.5879

                      4                      5                      6
                      A                      A                      A
 Frequencies --     79.8692               117.6658               148.2144
 Red. masses --      7.1678                 3.4988                 1.9607
 Frc consts  --      0.0269                 0.0285                 0.0254
 IR Inten    --      3.0898                 0.2314                 0.0806

                      7                      8                      9
                      A                      A                      A
 Frequencies --    153.6090               207.5619               217.0431
 Red. masses --      1.4373                 4.0316                 4.5282
 Frc consts  --      0.0200                 0.1023                 0.1257
 IR Inten    --      0.7517                 5.0649                 1.6626

                     10                     11                     12
                      A                      A                      A
 Frequencies --    247.3703               265.3220               273.8839
 Red. masses --      2.3109                 4.1869                 3.6117
 Frc consts  --      0.0833                 0.1737                 0.1596
 IR Inten    --      1.4448                 1.2203                 8.2773

                     13                     14                     15
                      A                      A                      A
 Frequencies --    287.0261               341.1845               347.8941
 Red. masses --      5.2277                 2.7886                 2.6578
 Frc consts  --      0.2537                 0.1913                 0.1895
 IR Inten    --      7.4121                 0.8652                 0.1116

                     16                     17                     18
                      A                      A                      A
 Frequencies --    350.1986               389.2546               394.0022
 Red. masses --      2.5676                 2.7972                 1.9784
 Frc consts  --      0.1855                 0.2497                 0.1810
 IR Inten    --      2.3133                 0.3211                 0.7518

                     19                     20                     21
                      A                      A                      A
 Frequencies --    446.0762               485.8731               520.9556
 Red. masses --      2.6200                 4.5855                 2.0583
 Frc consts  --      0.3072                 0.6378                 0.3291
 IR Inten    --      6.6433                 3.0691                 0.6026

                     22                     23                     24
                      A                      A                      A
 Frequencies --    545.3113               561.8982               566.6260
 Red. masses --      3.9116                 4.4734                 3.8033
 Frc consts  --      0.6853                 0.8321                 0.7195
 IR Inten    --     24.8080                 4.8309                26.3504

                     25                     26                     27
                      A                      A                      A
 Frequencies --    635.7715               641.0909               662.6500
 Red. masses --      4.8705                 4.4590                 3.5716
 Frc consts  --      1.1599                 1.0798                 0.9240
 IR Inten    --     11.9869                20.4583                20.4453

                     28                     29                     30
                      A                      A                      A
 Frequencies --    666.7112               709.4581               724.0996
 Red. masses --      4.6998                 1.3090                 2.8989
 Frc consts  --      1.2309                 0.3882                 0.8955
 IR Inten    --      3.9854                24.3656                28.1417

                     31                     32                     33
                      A                      A                      A
 Frequencies --    754.3632               779.0382               805.1621
 Red. masses --      3.6337                 3.8118                 2.7213
 Frc consts  --      1.2183                 1.3630                 1.0394
 IR Inten    --      6.7058                42.8094                 2.0788

                     34                     35                     36
                      A                      A                      A
 Frequencies --    830.8799               840.6871               866.7683
 Red. masses --      2.4719                 3.9700                 2.5116
 Frc consts  --      1.0055                 1.6532                 1.1118
 IR Inten    --      3.7956                12.2321                 0.6422

                     37                     38                     39
                      A                      A                      A
 Frequencies --    879.3958               880.8353               925.1747
 Red. masses --      1.5468                 4.0674                 1.7057
 Frc consts  --      0.7048                 1.8593                 0.8602
 IR Inten    --      0.3602                 4.0286                 8.1636

                     40                     41                     42
                      A                      A                      A
 Frequencies --    955.6360               970.9624               985.5231
 Red. masses --      1.8437                 2.4768                 2.1382
 Frc consts  --      0.9920                 1.3758                 1.2236
 IR Inten    --      5.1842                 4.9839                 9.4292

                     43                     44                     45
                      A                      A                      A
 Frequencies --    993.4403              1019.5345              1033.7988
 Red. masses --      2.2852                 3.7547                 1.7427
 Frc consts  --      1.3288                 2.2995                 1.0973
 IR Inten    --      4.1044                 4.9162                 3.5799

                     46                     47                     48
                      A                      A                      A
 Frequencies --   1043.1578              1073.2748              1078.7373
 Red. masses --      2.4952                 1.6392                 1.5027
 Frc consts  --      1.5998                 1.1125                 1.0303
 IR Inten    --      7.4864                 6.5621                 2.9757

                     49                     50                     51
                      A                      A                      A
 Frequencies --   1084.2784              1103.2510              1140.7764
 Red. masses --      2.5487                 1.7717                 1.8209
 Frc consts  --      1.7654                 1.2705                 1.3962
 IR Inten    --     10.6100                 0.1183                13.1790

                     52                     53                     54
                      A                      A                      A
 Frequencies --   1145.6978              1152.5482              1156.9906
 Red. masses --      1.1138                 1.6579                 1.4956
 Frc consts  --      0.8614                 1.2975                 1.1796
 IR Inten    --      4.5062                 0.9295                10.2051

                     55                     56                     57
                      A                      A                      A
 Frequencies --   1168.7391              1210.5612              1226.2341
 Red. masses --      1.5852                 1.2893                 2.5596
 Frc consts  --      1.2757                 1.1132                 2.2676
 IR Inten    --     59.6587                 0.3727                90.0372

                     58                     59                     60
                      A                      A                      A
 Frequencies --   1281.4699              1287.3894              1297.7654
 Red. masses --      1.7101                 1.8488                 1.2118
 Frc consts  --      1.6546                 1.8054                 1.2025
 IR Inten    --    170.0736               149.8454                15.2502

                     61                     62                     63
                      A                      A                      A
 Frequencies --   1300.5663              1346.5361              1353.1140
 Red. masses --      1.2087                 1.8306                 4.2253
 Frc consts  --      1.2045                 1.9557                 4.5580
 IR Inten    --     23.2056                14.2509                22.1626

                     64                     65                     66
                      A                      A                      A
 Frequencies --   1357.2955              1371.8947              1383.1615
 Red. masses --      2.2339                 1.3147                 1.4661
 Frc consts  --      2.4248                 1.4578                 1.6526
 IR Inten    --    114.5178                 0.2291                 3.5427

                     67                     68                     69
                      A                      A                      A
 Frequencies --   1384.4052              1403.0303              1410.1218
 Red. masses --      1.3000                 1.6733                 1.4192
 Frc consts  --      1.4680                 1.9407                 1.6626
 IR Inten    --      0.2910                14.3681                21.4531

                     70                     71                     72
                      A                      A                      A
 Frequencies --   1417.7194              1424.6032              1430.7929
 Red. masses --      1.4230                 1.4908                 1.5282
 Frc consts  --      1.6851                 1.7826                 1.8433
 IR Inten    --      1.8569                12.9470               118.0080

                     73                     74                     75
                      A                      A                      A
 Frequencies --   1443.3406              1447.0644              1504.0281
 Red. masses --      1.3370                 2.0158                 1.0479
 Frc consts  --      1.6410                 2.4870                 1.3967
 IR Inten    --     13.7605               279.9706                 6.3197

                     76                     77                     78
                      A                      A                      A
 Frequencies --   1506.8238              1508.0580              1511.8066
 Red. masses --      1.2184                 1.3614                 1.1492
 Frc consts  --      1.6299                 1.8241                 1.5476
 IR Inten    --     12.9765                15.9506                49.3257

                     79                     80                     81
                      A                      A                      A
 Frequencies --   1512.4994              1518.0106              1523.2979
 Red. masses --      1.0985                 1.1005                 1.0990
 Frc consts  --      1.4806                 1.4941                 1.5025
 IR Inten    --      1.0050                 3.8897                17.8004

                     82                     83                     84
                      A                      A                      A
 Frequencies --   1536.1878              1541.9291              1601.9226
 Red. masses --      1.0988                 1.0924                 6.0242
 Frc consts  --      1.5278                 1.5302                 9.1082
 IR Inten    --     13.1165                 2.3650                53.2872

                     85                     86                     87
                      A                      A                      A
 Frequencies --   1611.7967              1789.3875              2991.6849
 Red. masses --      6.2706                 7.5179                 1.0750
 Frc consts  --      9.5980                14.1826                 5.6689
 IR Inten    --    144.0186               421.5873                38.3463

                     88                     89                     90
                      A                      A                      A
 Frequencies --   3002.9104              3021.1429              3021.9550
 Red. masses --      1.0743                 1.0656                 1.0706
 Frc consts  --      5.7077                 5.7303                 5.7602
 IR Inten    --     46.9678                24.7239                16.5595

                     91                     92                     93
                      A                      A                      A
 Frequencies --   3028.6931              3043.0860              3045.4248
 Red. masses --      1.0664                 1.0830                 1.0749
 Frc consts  --      5.7632                 5.9089                 5.8738
 IR Inten    --      8.0517                90.6831                99.8383

                     94                     95                     96
                      A                      A                      A
 Frequencies --   3051.5079              3053.4383              3065.4229
 Red. masses --      1.0783                 1.0376                 1.0992
 Frc consts  --      5.9161                 5.6998                 6.0856
 IR Inten    --     69.0995                29.4806                30.4706

                     97                     98                     99
                      A                      A                      A
 Frequencies --   3074.7881              3093.5440              3108.6814
 Red. masses --      1.1025                 1.0928                 1.1005
 Frc consts  --      6.1414                 6.1620                 6.2659
 IR Inten    --     49.6638                41.5931                14.1192

                    100                    101                    102
                      A                      A                      A
 Frequencies --   3141.3796              3142.2653              3143.3237
 Red. masses --      1.1018                 1.0898                 1.0912
 Frc consts  --      6.4062                 6.3400                 6.3522
 IR Inten    --     20.0866                 7.6358                13.8980

                    103                    104                    105
                      A                      A                      A
 Frequencies --   3190.0473              3279.9631              3582.0082
 Red. masses --      1.0879                 1.0949                 1.0752
 Frc consts  --      6.5226                 6.9399                 8.1284
 IR Inten    --      5.1162                 1.6575                45.7422

 - Thermochemistry -
 -------------------
 Temperature   298.150 Kelvin.  Pressure   1.00000 Atm.
 Atom     1 has atomic number  6 and mass  12.00000

 Molecular mass:   265.12488 amu.
 Principal axes and moments of inertia in atomic units:
                           1         2         3
     Eigenvalues --  2794.536056201.886237800.42298
           X            0.99994  -0.01006   0.00359
           Y            0.01012   0.99981  -0.01651
           Z           -0.00342   0.01654   0.99986
 This molecule is an asymmetric top.
 Rotational symmetry number  1.
 Warning -- assumption of classical behavior for rotation
           may cause significant error
 Rotational temperatures (Kelvin)      0.03099     0.01397     0.01110
 Rotational constants (GHZ):           0.64581     0.29100     0.23136
 Zero-point vibrational energy     833299.9 (Joules/Mol)
                                  199.16346 (Kcal/Mol)
 Warning -- explicit consideration of  24 degrees of freedom as
           vibrations may cause significant error
 Vibrational temperatures:     31.75    67.66    98.43   114.91   169.29
          (Kelvin)            213.25   221.01   298.64   312.28   355.91
                              381.74   394.06   412.97   490.89   500.54
                              503.86   560.05   566.88   641.80   699.06
                              749.54   784.58   808.45   815.25   914.73
                              922.39   953.41   959.25  1020.75  1041.82
                             1085.36  1120.86  1158.45  1195.45  1209.56
                             1247.09  1265.25  1267.33  1331.12  1374.95
                             1397.00  1417.95  1429.34  1466.88  1487.41
                             1500.87  1544.20  1552.06  1560.03  1587.33
                             1641.32  1648.40  1658.26  1664.65  1681.55
                             1741.73  1764.28  1843.75  1852.27  1867.19
                             1871.22  1937.37  1946.83  1952.85  1973.85
                             1990.06  1991.85  2018.65  2028.85  2039.78
                             2049.69  2058.59  2076.65  2082.00  2163.96
                             2167.98  2169.76  2175.15  2176.15  2184.08
                             2191.69  2210.23  2218.49  2304.81  2319.02
                             2574.53  4304.37  4320.52  4346.75  4347.92
                             4357.61  4378.32  4381.69  4390.44  4393.22
                             4410.46  4423.93  4450.92  4472.70  4519.74
                             4521.02  4522.54  4589.77  4719.14  5153.71

 Zero-point correction=                           0.317387 (Hartree/Particle)
 Thermal correction to Energy=                    0.333494
 Thermal correction to Enthalpy=                  0.334438
 Thermal correction to Gibbs Free Energy=         0.273176
 Sum of electronic and zero-point Energies=          -1144.285113
 Sum of electronic and thermal Energies=             -1144.269007
 Sum of electronic and thermal Enthalpies=           -1144.268062
 Sum of electronic and thermal Free Energies=        -1144.329324

                     E (Thermal)             CV                S
                      KCal/Mol        Cal/Mol-Kelvin    Cal/Mol-Kelvin
 Total                  209.271             63.878            128.937
 Electronic               0.000              0.000              0.000
 Translational            0.889              2.981             42.624
 Rotational               0.889              2.981             33.269
 Vibrational            207.493             57.917             53.043
 Vibration     1          0.593              1.985              6.439
 Vibration     2          0.595              1.979              4.939
 Vibration     3          0.598              1.969              4.198
 Vibration     4          0.600              1.963              3.894
 Vibration     5          0.608              1.935              3.138
 Vibration     6          0.618              1.905              2.695
 Vibration     7          0.619              1.899              2.627
 Vibration     8          0.641              1.829              2.065
 Vibration     9          0.646              1.815              1.984
 Vibration    10          0.661              1.767              1.749
 Vibration    11          0.671              1.737              1.626
 Vibration    12          0.676              1.722              1.572
 Vibration    13          0.684              1.698              1.491
 Vibration    14          0.721              1.593              1.207
 Vibration    15          0.726              1.580              1.176
 Vibration    16          0.727              1.575              1.165
 Vibration    17          0.757              1.493              1.003
 Vibration    18          0.761              1.483              0.985
 Vibration    19          0.805              1.370              0.808
 Vibration    20          0.842              1.281              0.694
 Vibration    21          0.876              1.204              0.608
 Vibration    22          0.900              1.150              0.554
 Vibration    23          0.918              1.114              0.520
 Vibration    24          0.923              1.103              0.511

                           ! Non-Optimized Parameters !
 Normal termination of Gaussian 16 at Fri Dec 11 19:17:39 2020.

 ----------------------------------------------------------------------
 # B3LYP/6-311++G(d,p) empiricaldispersion=gd3bj scf=xqc pop=npa geom=c
 heck
 ----------------------------------------------------------------------

 ---------------------------------------
 CID_128366074_JID_8065_Energie_neutraal
 ---------------------------------------
 Structure from the checkpoint file:  "JID_8065.chk"
 Charge =  0 Multiplicity = 1

 SCF Done:  E(RB3LYP) =  -1144.83093966     A.U. after   15 cycles
 Normal termination of Gaussian 16 at Fri Dec 11 19:27:18 2020.

 ----------------------------------------------------------------------
 # B3LYP/6-311++G(d,p) empiricaldispersion=gd3bj scf=xqc pop=npa geom=c
 heck
 ----------------------------------------------------------------------

 -------------------------------------
 CID_128366074_JID_8065_Energie_kation
 -------------------------------------
 Structure from the checkpoint file:  "JID_8065.chk"
 Charge =  1 Multiplicity = 2

 SCF Done:  E(UB3LYP) =  -1144.54234120     A.U. after   26 cycles
 Normal termination of Gaussian 16 at Fri Dec 11 19:51:15 2020.
 Gaussian 16:  ES64L-G16RevA.03 25-Dec-2016

 ----------------------------------------------------------------------
 # B3LYP/6-311++G(d,p) empiricaldispersion=gd3bj scf=xqc pop=npa geom=c
 heck
 ----------------------------------------------------------------------

 ------------------------------------
 CID_128366074_JID_8065_Energie_anion
 ------------------------------------
 Structure from the checkpoint file:  "JID_8065.chk"
 Charge = -1 Multiplicity = 2

                         Standard orientation:
 ---------------------------------------------------------------------
 Center     Atomic      Atomic             Coordinates (Angstroms)
 Number     Number       Type             X           Y           Z
 ---------------------------------------------------------------------
      1          6           0       -2.264330    2.825826   -0.598112
      2          6           0       -2.563876    1.397842   -0.261043
      3          6           0       -3.791430    0.882456    0.023549
      4         16           0       -3.677029   -0.830388    0.358615
      5          6           0       -1.936137   -0.707982    0.054366
      6          7           0       -1.517413    0.485478   -0.240121
      7          7           0       -1.154649   -1.845063    0.172336
      8          6           0        0.178648   -2.000971   -0.330326
      9          8           0        0.401493   -2.946741   -1.075577
     10          7           0        1.121870   -1.117598    0.097642
     11          6           0        2.478245   -1.359711   -0.417814
     12          6           0        3.374067   -0.118078   -0.329393
     13          6           0        2.971971    1.009975   -1.300517
     14          6           0        1.617352    1.652919   -0.959852
     15          6           0        1.491368    1.982625    0.535845
     16          6           0        1.928549    0.823804    1.453062
     17          6           0        3.366062    0.409525    1.111790
     18          6           0        1.014888   -0.409282    1.381892
     19          1           0       -1.598921    3.271822    0.150422
     20          1           0       -1.753394    2.893107   -1.565071
     21          1           0       -3.180392    3.421005   -0.643656
     22          1           0       -4.745357    1.388981    0.051267
     23          1           0       -1.655977   -2.704512   -0.022355
     24          1           0        2.939820   -2.183392    0.149478
     25          1           0        2.377386   -1.702203   -1.448569
     26          1           0        4.385312   -0.454593   -0.593169
     27          1           0        2.958009    0.628754   -2.329718
     28          1           0        3.759750    1.775981   -1.261725
     29          1           0        0.800540    0.984575   -1.237877
     30          1           0        1.489819    2.570796   -1.548694
     31          1           0        0.458039    2.265566    0.763148
     32          1           0        2.123211    2.849883    0.776469
     33          1           0        1.882244    1.171244    2.493751
     34          1           0        4.043714    1.266875    1.209980
     35          1           0        3.717897   -0.366122    1.805686
     36          1           0       -0.018406   -0.109330    1.535896
     37          1           0        1.296308   -1.101703    2.191834
 ---------------------------------------------------------------------

 SCF Done:  E(UB3LYP) =  -1144.82162889     A.U. after   33 cycles
 SCF Done:  E(UB3LYP) =  -1144.82162889     a.u. after    1 cycles

 The electronic state is 2-A.
 Alpha  occ. eigenvalues --  -88.78378 -18.99713 -14.26205 -14.24637 -14.20925
 Alpha  occ. eigenvalues --  -10.20525 -10.17661 -10.11540 -10.10440 -10.10314
 Alpha  occ. eigenvalues --  -10.09619 -10.07793 -10.07576 -10.07572 -10.06552
 Alpha  occ. eigenvalues --  -10.06505 -10.05898 -10.05391  -7.87001  -5.83299
 Alpha  occ. eigenvalues --   -5.82960  -5.82557  -0.96561  -0.88888  -0.84858
 Alpha  occ. eigenvalues --   -0.82340  -0.73766  -0.70249  -0.68278  -0.67516
 Alpha  occ. eigenvalues --   -0.65193  -0.60102  -0.59213  -0.57665  -0.52346
 Alpha  occ. eigenvalues --   -0.51490  -0.50330  -0.48754  -0.45710  -0.43034
 Alpha  occ. eigenvalues --   -0.42036  -0.41197  -0.37724  -0.37159  -0.36859
 Alpha  occ. eigenvalues --   -0.35388  -0.35242  -0.34287  -0.33882  -0.33058
 Alpha  occ. eigenvalues --   -0.32990  -0.31893  -0.31713  -0.30805  -0.29887
 Alpha  occ. eigenvalues --   -0.28564  -0.27991  -0.27111  -0.26345  -0.25271
 Alpha  occ. eigenvalues --   -0.24278  -0.23871  -0.22626  -0.22194  -0.20137
 Alpha  occ. eigenvalues --   -0.19961  -0.18850  -0.18364  -0.17952  -0.14751
 Alpha  occ. eigenvalues --   -0.12418   0.03981
 Alpha virt. eigenvalues --    0.05718   0.06425   0.07185   0.07408   0.07761
 Alpha virt. eigenvalues --    0.08380   0.08778   0.09566   0.09794   0.10238
 Alpha virt. eigenvalues --    0.10757   0.11230   0.11372   0.11974   0.12112

  Beta  occ. eigenvalues --  -88.78365 -18.99671 -14.26219 -14.24646 -14.20918
  Beta  occ. eigenvalues --  -10.20479 -10.17549 -10.11538 -10.10423 -10.10304
  Beta  occ. eigenvalues --  -10.09551 -10.07786 -10.07567 -10.07543 -10.06530
  Beta  occ. eigenvalues --  -10.06492 -10.05881 -10.05385  -7.86989  -5.83271
  Beta  occ. eigenvalues --   -5.82955  -5.82533  -0.96487  -0.88800  -0.84834
  Beta  occ. eigenvalues --   -0.82314  -0.73736  -0.70160  -0.68247  -0.67455
  Beta  occ. eigenvalues --   -0.65165  -0.60025  -0.59165  -0.57601  -0.52256
  Beta  occ. eigenvalues --   -0.51433  -0.50293  -0.48704  -0.45662  -0.42971
  Beta  occ. eigenvalues --   -0.41935  -0.41155  -0.37684  -0.37112  -0.36777
  Beta  occ. eigenvalues --   -0.35296  -0.35143  -0.34254  -0.33826  -0.33007
  Beta  occ. eigenvalues --   -0.32934  -0.31842  -0.31633  -0.30745  -0.29838
  Beta  occ. eigenvalues --   -0.28417  -0.27941  -0.27072  -0.26250  -0.25246
  Beta  occ. eigenvalues --   -0.24253  -0.23844  -0.22552  -0.22120  -0.20092
  Beta  occ. eigenvalues --   -0.19926  -0.18760  -0.18313  -0.17879  -0.14672
  Beta  occ. eigenvalues --   -0.12241
  Beta virt. eigenvalues --    0.06102   0.06689   0.07057   0.07520   0.07965
  Beta virt. eigenvalues --    0.08049   0.08816   0.09144   0.09899   0.10077
  Beta virt. eigenvalues --    0.10505   0.10990   0.11492   0.11588   0.12084

 Mulliken charges and spin densities:
               1          2
     1  C    1.423801  -2.135439
     2  C   -1.073360   0.548777
     3  C   -0.140592   0.296558
     4  S   -0.145912  -0.292752
     5  C   -0.050284   0.271805
     6  N    0.079762   0.079673
     7  N   -0.045017  -0.007575
     8  C    0.290066  -0.056727
     9  O   -0.322566   0.010279
    10  N    0.027371  -0.018626
    11  C   -0.023191  -0.469057
    12  C   -0.153396   0.636924
    13  C    0.645511  -1.399733
    14  C   -0.898177   0.695342
    15  C    0.608930  -0.874026
    16  C   -0.107910   0.359955
    17  C    0.244951  -1.025089
    18  C    0.000617  -0.489069
    19  H   -0.042182   0.203782
    20  H    0.045138   0.124374
    21  H   -0.276381   0.426010
    22  H   -0.692232   0.948558
    23  H    0.314884  -0.000323
    24  H    0.020652   0.167755
    25  H    0.160328   0.042108
    26  H   -0.210922   0.436269
    27  H    0.048251   0.088055
    28  H   -0.057761   0.203026
    29  H    0.100198   0.129129
    30  H    0.034263   0.128761
    31  H    0.307041  -0.221508
    32  H   -0.198676   0.371434
    33  H   -0.323696   0.562041
    34  H   -0.142378   0.287164
    35  H   -0.250883   0.404229
    36  H   -0.060719   0.222063
    37  H   -0.135532   0.345851
 Sum of Mulliken charges =  -1.00000   1.00000

 Dipole moment (field-independent basis, Debye):
    X=             -1.3894    Y=             -2.5173    Z=             -0.6795  Tot=              2.9545
 Quadrupole moment (field-independent basis, Debye-Ang):
   XX=           -195.6464   YY=           -165.3234   ZZ=           -152.3035
   XY=              9.7476   XZ=             -6.9496   YZ=             -3.4085

 Summary of Natural Population Analysis:

                                       Natural Population
                Natural  -----------------------------------------------
    Atom  No    Charge         Core      Valence    Rydberg      Total
 -----------------------------------------------------------------------
      C    1   -0.29374      0.99962     2.28846    0.00567     3.29374
      C    2    0.07010      0.99949     1.91674    0.01368     2.92990
      C    3   -0.20591      0.99944     2.19601    0.01046     3.20591
      S    4    0.16352      4.99946     2.81715    0.01987     7.83648
      C    5    0.15464      0.99960     1.82566    0.02010     2.84536
      N    6   -0.27621      0.99961     2.76530    0.01130     3.77621
      N    7   -0.33438      0.99962     2.82511    0.00964     3.83438
      C    8    0.42352      0.99965     1.55343    0.02339     2.57648
      O    9   -0.32656      0.99988     3.32190    0.00478     4.32656
      N   10   -0.25852      0.99962     2.74972    0.00918     3.75852
      C   11   -0.08165      0.99959     2.07017    0.01189     3.08165
      C   12   -0.11576      0.99959     2.10493    0.01124     3.11576
      C   13   -0.18668      0.99961     2.17829    0.00878     3.18668
      C   14   -0.19971      0.99962     2.19159    0.00850     3.19971
      C   15   -0.18750      0.99961     2.17847    0.00942     3.18750
      C   16   -0.11460      0.99959     2.10273    0.01229     3.11460
      C   17   -0.18899      0.99960     2.17925    0.01014     3.18899
      C   18   -0.08033      0.99957     2.06948    0.01129     3.08033
      H   19    0.10685      0.00000     0.39194    0.00120     0.39315
      H   20    0.10756      0.00000     0.39132    0.00112     0.39244
      H   21    0.10355      0.00000     0.39550    0.00095     0.39645
      H   22    0.11241      0.00000     0.38602    0.00156     0.38759
      H   23    0.20065      0.00000     0.29782    0.00153     0.29935
      H   24    0.09420      0.00000     0.40479    0.00101     0.40580
      H   25    0.11069      0.00000     0.38832    0.00099     0.38931
      H   26    0.10182      0.00000     0.39676    0.00142     0.39818
      H   27    0.09679      0.00000     0.40233    0.00088     0.40321
      H   28    0.09516      0.00000     0.40378    0.00107     0.40484
      H   29    0.11020      0.00000     0.38755    0.00225     0.38980
      H   30    0.09513      0.00000     0.40388    0.00098     0.40487
      H   31    0.10327      0.00000     0.39526    0.00148     0.39673
      H   32    0.09400      0.00000     0.40474    0.00126     0.40600
      H   33    0.10311      0.00000     0.39524    0.00164     0.39689
      H   34    0.10112      0.00000     0.39751    0.00137     0.39888
      H   35    0.09999      0.00000     0.39844    0.00156     0.40001
      H   36    0.11066      0.00000     0.38727    0.00207     0.38934
      H   37    0.09160      0.00000     0.40710    0.00130     0.40840
 =======================================================================
   * Total *    0.00000     21.99276    48.76999    0.23725    71.00000

 Normal termination of Gaussian 16 at Fri Dec 11 20:22:08 2020.
