 Gaussian 16, Revision A.03,

 -----------------------------------------------------------
 # opt freq B3LYP/6-31G(d) empiricaldispersion=gd3bj scf=xqc
 -----------------------------------------------------------

 -------------------------------
 CID_119343030_JID_8150_neutraal
 -------------------------------
 Symbolic Z-matrix:
 Charge =  0 Multiplicity = 1

 SCF Done:  E(RB3LYP) =  -769.655631570     A.U. after   15 cycles
 SCF Done:  E(RB3LYP) =  -769.660375143     A.U. after   13 cycles
 SCF Done:  E(RB3LYP) =  -769.661068945     A.U. after   13 cycles
 SCF Done:  E(RB3LYP) =  -769.662089847     A.U. after   12 cycles
 SCF Done:  E(RB3LYP) =  -769.662726659     A.U. after   12 cycles
 SCF Done:  E(RB3LYP) =  -769.662324692     A.U. after   13 cycles
 SCF Done:  E(RB3LYP) =  -769.663025478     A.U. after   13 cycles
 SCF Done:  E(RB3LYP) =  -769.663135468     A.U. after   12 cycles
 SCF Done:  E(RB3LYP) =  -769.663235855     A.U. after   11 cycles
 SCF Done:  E(RB3LYP) =  -769.663242091     A.U. after   11 cycles
 SCF Done:  E(RB3LYP) =  -769.663253817     A.U. after    8 cycles
 SCF Done:  E(RB3LYP) =  -769.663254176     A.U. after    8 cycles
 SCF Done:  E(RB3LYP) =  -769.663254096     A.U. after    7 cycles
 SCF Done:  E(RB3LYP) =  -769.663254041     A.U. after    6 cycles
 Optimization completed.
    -- Stationary point found.
 Normal termination of Gaussian 16 at Fri Dec 11 19:13:12 2020.

 --------------------------------------------------------------------
 #N Geom=AllCheck Guess=TCheck SCRF=Check GenChk RB3LYP/6-31G(d) Freq
 --------------------------------------------------------------------

 Structure from the checkpoint file:  "JID_8150.chk"
 -------------------------------
 CID_119343030_JID_8150_neutraal
 -------------------------------
 Charge =  0 Multiplicity = 1

 SCF Done:  E(RB3LYP) =  -769.663254041     A.U. after    1 cycles

  Exact polarizability: 213.560  -3.160 150.586   1.324  12.907 131.425
 Approx polarizability: 282.065  -3.019 245.806  -3.360  26.774 207.488

                      1                      2                      3
                      A                      A                      A
 Frequencies --     24.5944                39.3319                61.8515
 Red. masses --      3.7495                 4.4344                 4.1116
 Frc consts  --      0.0013                 0.0040                 0.0093
 IR Inten    --      0.0169                 0.1698                 2.1176

                      4                      5                      6
                      A                      A                      A
 Frequencies --     74.7041               110.2114               112.9060
 Red. masses --      3.9817                 3.1929                 3.6347
 Frc consts  --      0.0131                 0.0228                 0.0273
 IR Inten    --      0.2478                 3.3721                 4.3187

                      7                      8                      9
                      A                      A                      A
 Frequencies --    118.7067               141.7573               218.0646
 Red. masses --      3.1581                 3.0968                 3.7552
 Frc consts  --      0.0262                 0.0367                 0.1052
 IR Inten    --      0.4918                 0.9201                 1.6670

                     10                     11                     12
                      A                      A                      A
 Frequencies --    233.7355               244.7641               253.5654
 Red. masses --      3.1777                 2.6357                 1.7880
 Frc consts  --      0.1023                 0.0930                 0.0677
 IR Inten    --      0.1301                 3.8422                14.9012

                     13                     14                     15
                      A                      A                      A
 Frequencies --    272.0606               288.6089               297.0624
 Red. masses --      3.1862                 1.6900                 1.4724
 Frc consts  --      0.1389                 0.0829                 0.0766
 IR Inten    --      1.5017                27.5562                13.2306

                     16                     17                     18
                      A                      A                      A
 Frequencies --    339.4507               359.3109               399.7499
 Red. masses --      2.6996                 2.1036                 2.7781
 Frc consts  --      0.1833                 0.1600                 0.2616
 IR Inten    --     21.1708                 0.5930                 0.7983

                     19                     20                     21
                      A                      A                      A
 Frequencies --    410.3220               416.0624               451.6562
 Red. masses --      2.0750                 2.9714                 3.3300
 Frc consts  --      0.2058                 0.3031                 0.4002
 IR Inten    --      1.0931                 0.0720                 3.7786

                     22                     23                     24
                      A                      A                      A
 Frequencies --    485.6937               519.1783               542.3125
 Red. masses --      2.6441                 3.8700                 2.9734
 Frc consts  --      0.3675                 0.6146                 0.5152
 IR Inten    --      4.2263                 4.3176                 3.9627

                     25                     26                     27
                      A                      A                      A
 Frequencies --    580.1833               637.6511               652.7948
 Red. masses --      4.1237                 6.3036                 4.3495
 Frc consts  --      0.8178                 1.5101                 1.0920
 IR Inten    --     10.3996                 0.0578                 0.7941

                     28                     29                     30
                      A                      A                      A
 Frequencies --    694.7290               703.5133               715.0605
 Red. masses --      4.0615                 2.9913                 1.7065
 Frc consts  --      1.1550                 0.8723                 0.5141
 IR Inten    --      1.7248                 2.4281                26.9677

                     31                     32                     33
                      A                      A                      A
 Frequencies --    730.3515               767.9519               784.3561
 Red. masses --      4.2498                 2.0368                 1.9124
 Frc consts  --      1.3356                 0.7077                 0.6932
 IR Inten    --     15.2023                 4.5401                21.7876

                     34                     35                     36
                      A                      A                      A
 Frequencies --    801.4280               836.1395               859.1884
 Red. masses --      1.4233                 2.5824                 1.2513
 Frc consts  --      0.5386                 1.0637                 0.5442
 IR Inten    --      3.9150                 6.2200                 0.0708

                     37                     38                     39
                      A                      A                      A
 Frequencies --    888.7436               895.0174               920.4784
 Red. masses --      1.8377                 1.7098                 1.4615
 Frc consts  --      0.8552                 0.8070                 0.7296
 IR Inten    --     41.2092                31.5557                 1.3740

                     40                     41                     42
                      A                      A                      A
 Frequencies --    936.8589               944.6051               965.3137
 Red. masses --      2.4772                 2.0411                 1.3517
 Frc consts  --      1.2810                 1.0730                 0.7421
 IR Inten    --      2.2841                12.7838                 0.1369

                     43                     44                     45
                      A                      A                      A
 Frequencies --    980.7103               993.3428              1012.6264
 Red. masses --      2.2111                 1.2660                 1.7201
 Frc consts  --      1.2529                 0.7360                 1.0392
 IR Inten    --      4.0882                 0.9538                65.7182

                     46                     47                     48
                      A                      A                      A
 Frequencies --   1019.5364              1022.7649              1048.8849
 Red. masses --      2.2517                 5.8084                 1.9418
 Frc consts  --      1.3790                 3.5798                 1.2586
 IR Inten    --     35.4464                 0.2523                11.9217

                     49                     50                     51
                      A                      A                      A
 Frequencies --   1059.7685              1064.4883              1077.2529
 Red. masses --      2.7522                 2.1786                 2.0628
 Frc consts  --      1.8212                 1.4545                 1.4104
 IR Inten    --      4.4339                 2.7300                 7.7183

                     52                     53                     54
                      A                      A                      A
 Frequencies --   1096.4676              1108.8435              1121.9906
 Red. masses --      1.8235                 1.6473                 1.8187
 Frc consts  --      1.2916                 1.1933                 1.3489
 IR Inten    --     16.3186                 8.3471                 1.7236

                     55                     56                     57
                      A                      A                      A
 Frequencies --   1146.6563              1170.6951              1178.4682
 Red. masses --      1.9907                 1.2756                 1.6974
 Frc consts  --      1.5422                 1.0300                 1.3889
 IR Inten    --      0.5748                 4.2420                 2.3720

                     58                     59                     60
                      A                      A                      A
 Frequencies --   1193.7481              1215.8186              1228.2381
 Red. masses --      1.0954                 1.1795                 1.7234
 Frc consts  --      0.9197                 1.0273                 1.5318
 IR Inten    --      0.0235                 1.2750                 4.5791

                     61                     62                     63
                      A                      A                      A
 Frequencies --   1238.4276              1252.0111              1271.5070
 Red. masses --      1.9205                 2.3242                 1.5599
 Frc consts  --      1.7355                 2.1466                 1.4859
 IR Inten    --      2.5847                23.7301                38.0590

                     64                     65                     66
                      A                      A                      A
 Frequencies --   1296.4876              1314.7542              1321.4429
 Red. masses --      1.3371                 1.3540                 1.4853
 Frc consts  --      1.3242                 1.3789                 1.5282
 IR Inten    --     38.6568                 5.4253                18.2198

                     67                     68                     69
                      A                      A                      A
 Frequencies --   1330.0987              1343.2778              1366.6933
 Red. masses --      1.3590                 1.7186                 1.3971
 Frc consts  --      1.4165                 1.8271                 1.5375
 IR Inten    --      3.7702                12.2657                 6.9433

                     70                     71                     72
                      A                      A                      A
 Frequencies --   1372.0425              1375.4502              1385.4319
 Red. masses --      2.0229                 1.3501                 1.3731
 Frc consts  --      2.2437                 1.5049                 1.5528
 IR Inten    --      3.5860                 0.7888                 1.5987

                     73                     74                     75
                      A                      A                      A
 Frequencies --   1406.0833              1415.8259              1423.1461
 Red. masses --      1.4185                 1.3255                 1.3495
 Frc consts  --      1.6524                 1.5655                 1.6103
 IR Inten    --      5.4237                 1.4771                24.7197

                     76                     77                     78
                      A                      A                      A
 Frequencies --   1427.8435              1430.9945              1452.2752
 Red. masses --      1.4545                 1.4424                 1.2644
 Frc consts  --      1.7471                 1.7403                 1.5713
 IR Inten    --      3.3898                 3.9841                 4.6868

                     79                     80                     81
                      A                      A                      A
 Frequencies --   1500.9383              1503.2911              1509.0448
 Red. masses --      2.2301                 2.1717                 1.1090
 Frc consts  --      2.9600                 2.8915                 1.4880
 IR Inten    --    110.5823                25.8190                 3.5107

                     82                     83                     84
                      A                      A                      A
 Frequencies --   1513.9574              1520.9939              1526.1870
 Red. masses --      1.1247                 1.1175                 1.1610
 Frc consts  --      1.5188                 1.5232                 1.5933
 IR Inten    --     15.9012                10.4152                15.1257

                     85                     86                     87
                      A                      A                      A
 Frequencies --   1539.4221              1543.1073              1549.0616
 Red. masses --      1.0560                 1.0773                 2.0275
 Frc consts  --      1.4745                 1.5113                 2.8664
 IR Inten    --      4.6125                 5.8045                13.6504

                     88                     89                     90
                      A                      A                      A
 Frequencies --   1553.6419              1645.5429              1668.1369
 Red. masses --      1.1023                 5.4218                 5.5902
 Frc consts  --      1.5677                 8.6499                 9.1653
 IR Inten    --      8.0634                 1.7845                 8.0266

                     91                     92                     93
                      A                      A                      A
 Frequencies --   1696.6560              1744.9987              2989.8822
 Red. masses --      1.0972                 8.8014                 1.0828
 Frc consts  --      1.8608                15.7904                 5.7028
 IR Inten    --     52.9022               289.9291                10.6288

                     94                     95                     96
                      A                      A                      A
 Frequencies --   3003.3172              3008.0447              3022.4746
 Red. masses --      1.0744                 1.0760                 1.0784
 Frc consts  --      5.7096                 5.7364                 5.8044
 IR Inten    --     31.1794                35.2852                69.2534

                     97                     98                     99
                      A                      A                      A
 Frequencies --   3038.5259              3041.4337              3057.6775
 Red. masses --      1.0589                 1.0710                 1.0433
 Frc consts  --      5.7603                 5.8371                 5.7472
 IR Inten    --     48.2720                52.5332                29.0679

                    100                    101                    102
                      A                      A                      A
 Frequencies --   3061.8595              3079.2851              3085.5559
 Red. masses --      1.0657                 1.1054                 1.0950
 Frc consts  --      5.8866                 6.1755                 6.1420
 IR Inten    --     25.7175                27.1081                23.8011

                    103                    104                    105
                      A                      A                      A
 Frequencies --   3116.2500              3135.0133              3152.6836
 Red. masses --      1.0977                 1.0932                 1.1010
 Frc consts  --      6.2804                 6.3306                 6.4476
 IR Inten    --     56.0641                11.5830                15.9586

                    106                    107                    108
                      A                      A                      A
 Frequencies --   3159.1803              3170.5830              3183.0935
 Red. masses --      1.0905                 1.0868                 1.0863
 Frc consts  --      6.4127                 6.4372                 6.4846
 IR Inten    --      4.7367                10.2087                 0.1041

                    109                    110                    111
                      A                      A                      A
 Frequencies --   3193.1604              3197.8137              3205.6136
 Red. masses --      1.0912                 1.0889                 1.0939
 Frc consts  --      6.5554                 6.5607                 6.6231
 IR Inten    --     24.2991                 8.7047                43.5947

                    112                    113                    114
                      A                      A                      A
 Frequencies --   3213.5760              3468.0098              3552.4166
 Red. masses --      1.0952                 1.0497                 1.0930
 Frc consts  --      6.6640                 7.4384                 8.1264
 IR Inten    --     12.5402                 0.9453                 0.3331

 - Thermochemistry -
 -------------------
 Temperature   298.150 Kelvin.  Pressure   1.00000 Atm.
 Atom     1 has atomic number  6 and mass  12.00000

 Molecular mass:   246.17321 amu.
 Principal axes and moments of inertia in atomic units:
                           1         2         3
     Eigenvalues --  1935.461907769.490617973.06205
           X            0.99993  -0.01183   0.00302
           Y            0.01159   0.99748   0.07000
           Z           -0.00384  -0.06996   0.99754
 This molecule is an asymmetric top.
 Rotational symmetry number  1.
 Warning -- assumption of classical behavior for rotation
           may cause significant error
 Rotational temperatures (Kelvin)      0.04475     0.01115     0.01086
 Rotational constants (GHZ):           0.93246     0.23229     0.22635
 Zero-point vibrational energy     933353.7 (Joules/Mol)
                                  223.07688 (Kcal/Mol)
 Warning -- explicit consideration of  25 degrees of freedom as
           vibrations may cause significant error
 Vibrational temperatures:     35.39    56.59    88.99   107.48   158.57
          (Kelvin)            162.45   170.79   203.96   313.75   336.29
                              352.16   364.82   391.43   415.24   427.41
                              488.39   516.97   575.15   590.36   598.62
                              649.83   698.80   746.98   780.27   834.75
                              917.44   939.23   999.56  1012.20  1028.81
                             1050.81  1104.91  1128.51  1153.08  1203.02
                             1236.18  1278.70  1287.73  1324.36  1347.93
                             1359.08  1388.87  1411.02  1429.20  1456.94
                             1466.89  1471.53  1509.11  1524.77  1531.56
                             1549.93  1577.57  1595.38  1614.29  1649.78
                             1684.37  1695.55  1717.54  1749.29  1767.16
                             1781.82  1801.36  1829.41  1865.36  1891.64
                             1901.26  1913.72  1932.68  1966.37  1974.06
                             1978.97  1993.33  2023.04  2037.06  2047.59
                             2054.35  2058.88  2089.50  2159.52  2162.90
                             2171.18  2178.25  2188.37  2195.84  2214.89
                             2220.19  2228.75  2235.34  2367.57  2400.08
                             2441.11  2510.66  4301.77  4321.10  4327.91
                             4348.67  4371.76  4375.94  4399.32  4405.33
                             4430.40  4439.43  4483.59  4510.58  4536.01
                             4545.36  4561.76  4579.76  4594.25  4600.94
                             4612.16  4623.62  4989.69  5111.14

 Zero-point correction=                           0.355496 (Hartree/Particle)
 Thermal correction to Energy=                    0.372562
 Thermal correction to Enthalpy=                  0.373506
 Thermal correction to Gibbs Free Energy=         0.310138
 Sum of electronic and zero-point Energies=           -769.307758
 Sum of electronic and thermal Energies=              -769.290692
 Sum of electronic and thermal Enthalpies=            -769.289748
 Sum of electronic and thermal Free Energies=         -769.353116

                     E (Thermal)             CV                S
                      KCal/Mol        Cal/Mol-Kelvin    Cal/Mol-Kelvin
 Total                  233.786             66.799            133.369
 Electronic               0.000              0.000              0.000
 Translational            0.889              2.981             42.403
 Rotational               0.889              2.981             33.150
 Vibrational            232.009             60.838             57.816
 Vibration     1          0.593              1.985              6.224
 Vibration     2          0.594              1.981              5.292
 Vibration     3          0.597              1.973              4.397
 Vibration     4          0.599              1.966              4.025
 Vibration     5          0.606              1.941              3.265
 Vibration     6          0.607              1.939              3.218
 Vibration     7          0.609              1.934              3.121
 Vibration     8          0.615              1.911              2.780
 Vibration     9          0.646              1.814              1.975
 Vibration    10          0.654              1.789              1.850
 Vibration    11          0.660              1.771              1.768
 Vibration    12          0.665              1.757              1.706
 Vibration    13          0.675              1.725              1.583
 Vibration    14          0.685              1.695              1.482
 Vibration    15          0.691              1.679              1.433
 Vibration    16          0.719              1.597              1.215
 Vibration    17          0.734              1.556              1.125
 Vibration    18          0.766              1.471              0.964
 Vibration    19          0.774              1.448              0.925
 Vibration    20          0.779              1.435              0.905
 Vibration    21          0.810              1.357              0.791
 Vibration    22          0.842              1.282              0.695
 Vibration    23          0.874              1.208              0.612
 Vibration    24          0.897              1.157              0.560
 Vibration    25          0.937              1.074              0.485

                           ! Non-Optimized Parameters !
 Normal termination of Gaussian 16 at Fri Dec 11 19:32:44 2020.

 ----------------------------------------------------------------------
 # B3LYP/6-311++G(d,p) empiricaldispersion=gd3bj scf=xqc pop=npa geom=c
 heck
 ----------------------------------------------------------------------

 ---------------------------------------
 CID_119343030_JID_8150_Energie_neutraal
 ---------------------------------------
 Structure from the checkpoint file:  "JID_8150.chk"
 Charge =  0 Multiplicity = 1

 SCF Done:  E(RB3LYP) =  -769.878577422     A.U. after   15 cycles
 Normal termination of Gaussian 16 at Fri Dec 11 19:41:53 2020.

 ----------------------------------------------------------------------
 # B3LYP/6-311++G(d,p) empiricaldispersion=gd3bj scf=xqc pop=npa geom=c
 heck
 ----------------------------------------------------------------------

 -------------------------------------
 CID_119343030_JID_8150_Energie_kation
 -------------------------------------
 Structure from the checkpoint file:  "JID_8150.chk"
 Charge =  1 Multiplicity = 2

 SCF Done:  E(UB3LYP) =  -769.579611323     A.U. after   33 cycles
 SCF Done:  E(UB3LYP) =  -769.579611323     a.u. after    1 cycles
 Normal termination of Gaussian 16 at Fri Dec 11 20:09:54 2020.
 Gaussian 16:  ES64L-G16RevA.03 25-Dec-2016

 ----------------------------------------------------------------------
 # B3LYP/6-311++G(d,p) empiricaldispersion=gd3bj scf=xqc pop=npa geom=c
 heck
 ----------------------------------------------------------------------

 ------------------------------------
 CID_119343030_JID_8150_Energie_anion
 ------------------------------------
 Structure from the checkpoint file:  "JID_8150.chk"
 Charge = -1 Multiplicity = 2

                         Standard orientation:
 ---------------------------------------------------------------------
 Center     Atomic      Atomic             Coordinates (Angstroms)
 Number     Number       Type             X           Y           Z
 ---------------------------------------------------------------------
      1          6           0       -0.681793    0.184849    2.152923
      2          6           0        0.215816   -0.957177    1.660949
      3          6           0        0.138263   -1.387040    0.180173
      4          6           0       -1.281065   -1.760825   -0.289065
      5          7           0       -2.081058   -0.591600   -0.647460
      6          6           0       -1.493956    0.240365   -1.692105
      7          6           0       -0.116554    0.743095   -1.258337
      8          6           0        0.795680   -0.430256   -0.864950
      9          6           0        2.197790   -0.019513   -0.459764
     10          6           0        2.467214    1.168855    0.230744
     11          6           0        3.767131    1.491993    0.622062
     12          6           0        4.824852    0.630877    0.330710
     13          6           0        4.571553   -0.556806   -0.357075
     14          6           0        3.271232   -0.873102   -0.746879
     15          6           0       -3.246047   -0.338075    0.016298
     16          8           0       -3.683078   -1.080200    0.896536
     17          6           0       -3.994866    0.955817   -0.317314
     18          7           0       -3.180093    2.125983    0.044889
     19          1           0       -0.524272    1.113216    1.596338
     20          1           0       -0.460560    0.393265    3.206306
     21          1           0       -1.739272   -0.083346    2.086651
     22          1           0        1.260788   -0.715332    1.884854
     23          1           0       -0.021959   -1.847121    2.259193
     24          1           0        0.724501   -2.315604    0.128004
     25          1           0       -1.205889   -2.405378   -1.177802
     26          1           0       -1.826727   -2.305362    0.481689
     27          1           0       -2.142999    1.085635   -1.903152
     28          1           0       -1.401093   -0.367608   -2.605751
     29          1           0       -0.266294    1.444989   -0.435170
     30          1           0        0.344692    1.302596   -2.081522
     31          1           0        0.901072   -1.041661   -1.774893
     32          1           0        1.657493    1.850386    0.470233
     33          1           0        3.951949    2.420224    1.156055
     34          1           0        5.836930    0.883621    0.633957
     35          1           0        5.387094   -1.234362   -0.595130
     36          1           0        3.080760   -1.798289   -1.286747
     37          1           0       -4.216688    1.010130   -1.390118
     38          1           0       -4.950044    0.877609    0.217816
     39          1           0       -3.716217    2.976092   -0.121361
     40          1           0       -2.992083    2.098878    1.046022
 ---------------------------------------------------------------------

 SCF Done:  E(UB3LYP) =  -769.867389183     A.U. after   33 cycles
 SCF Done:  E(UB3LYP) =  -769.867389183     a.u. after    1 cycles

 The electronic state is 2-A.
 Alpha  occ. eigenvalues --  -18.99258 -14.24879 -14.20698 -10.17565 -10.11129
 Alpha  occ. eigenvalues --  -10.10847 -10.10843 -10.09403 -10.09144 -10.08951
 Alpha  occ. eigenvalues --  -10.08921 -10.08831 -10.08745 -10.08557 -10.08493
 Alpha  occ. eigenvalues --  -10.07674 -10.07471 -10.06306  -0.94448  -0.85002
 Alpha  occ. eigenvalues --   -0.79491  -0.77530  -0.72991  -0.69158  -0.66268
 Alpha  occ. eigenvalues --   -0.65923  -0.64652  -0.61192  -0.57702  -0.55809
 Alpha  occ. eigenvalues --   -0.53290  -0.51589  -0.50041  -0.47438  -0.44672
 Alpha  occ. eigenvalues --   -0.42765  -0.42431  -0.38834  -0.38484  -0.38089
 Alpha  occ. eigenvalues --   -0.37067  -0.36854  -0.36145  -0.35398  -0.33956
 Alpha  occ. eigenvalues --   -0.33703  -0.33345  -0.32148  -0.31531  -0.30685
 Alpha  occ. eigenvalues --   -0.30427  -0.30115  -0.28991  -0.28048  -0.27886
 Alpha  occ. eigenvalues --   -0.27018  -0.26270  -0.25280  -0.24757  -0.23157
 Alpha  occ. eigenvalues --   -0.22436  -0.22163  -0.16971  -0.16535  -0.16290
 Alpha  occ. eigenvalues --   -0.15782  -0.14874   0.03897
 Alpha virt. eigenvalues --    0.05151   0.05932   0.06952   0.07041   0.07173
 Alpha virt. eigenvalues --    0.07418   0.08141   0.08756   0.08975   0.09209
 Alpha virt. eigenvalues --    0.09852   0.10174   0.10903   0.11216   0.11699

  Beta  occ. eigenvalues --  -18.99255 -14.24870 -14.20647 -10.17567 -10.11111
  Beta  occ. eigenvalues --  -10.10838 -10.10820 -10.09404 -10.09135 -10.08948
  Beta  occ. eigenvalues --  -10.08910 -10.08817 -10.08735 -10.08550 -10.08477
  Beta  occ. eigenvalues --  -10.07665 -10.07466 -10.06295  -0.94440  -0.84985
  Beta  occ. eigenvalues --   -0.79408  -0.77510  -0.72970  -0.69140  -0.66245
  Beta  occ. eigenvalues --   -0.65898  -0.64629  -0.61136  -0.57661  -0.55770
  Beta  occ. eigenvalues --   -0.53261  -0.51553  -0.50017  -0.47415  -0.44637
  Beta  occ. eigenvalues --   -0.42729  -0.42385  -0.38786  -0.38457  -0.38059
  Beta  occ. eigenvalues --   -0.37039  -0.36816  -0.36111  -0.35363  -0.33934
  Beta  occ. eigenvalues --   -0.33673  -0.33315  -0.32122  -0.31509  -0.30664
  Beta  occ. eigenvalues --   -0.30403  -0.30089  -0.28962  -0.28024  -0.27864
  Beta  occ. eigenvalues --   -0.26994  -0.26246  -0.25256  -0.24733  -0.23141
  Beta  occ. eigenvalues --   -0.22420  -0.22145  -0.16946  -0.16512  -0.16256
  Beta  occ. eigenvalues --   -0.15767  -0.14829
  Beta virt. eigenvalues --    0.05820   0.06464   0.06518   0.06996   0.07150
  Beta virt. eigenvalues --    0.07589   0.07809   0.08379   0.09092   0.09362
  Beta virt. eigenvalues --    0.09575   0.09996   0.10367   0.11131   0.11536

 Mulliken charges and spin densities:
               1          2
     1  C   -0.441130  -0.135531
     2  C   -0.580677  -0.108687
     3  C    0.742401  -0.004190
     4  C   -0.130641  -0.438277
     5  N    0.070599   0.063362
     6  C   -0.381426  -0.169524
     7  C    0.797417  -0.965268
     8  C    0.069030  -0.367600
     9  C    1.040282  -0.220686
    10  C   -0.937757   0.420537
    11  C   -0.934630   0.699193
    12  C    0.666012  -1.019873
    13  C    0.242233  -0.587610
    14  C   -0.395431   0.343568
    15  C   -0.268497   0.146410
    16  O   -0.316187   0.012195
    17  C    0.798152  -1.189438
    18  N   -0.388983  -0.039831
    19  H    0.028826   0.087752
    20  H    0.002689   0.141827
    21  H    0.145532   0.055814
    22  H    0.252484  -0.110388
    23  H    0.119712   0.033196
    24  H    0.087926   0.130270
    25  H   -0.167915   0.353778
    26  H    0.252139  -0.035748
    27  H    0.224566  -0.017207
    28  H   -0.217301   0.376989
    29  H    0.280509  -0.160084
    30  H   -0.032995   0.240103
    31  H    0.206881  -0.005189
    32  H   -0.003146   0.093498
    33  H   -0.178072   0.363550
    34  H   -0.166492   0.313099
    35  H   -0.424433   0.604211
    36  H   -0.488985   0.651625
    37  H   -0.328479   0.519351
    38  H    0.022976   0.159632
    39  H   -0.369914   0.639786
    40  H    0.102726   0.125385
 Sum of Mulliken charges =  -1.00000   1.00000

 Dipole moment (field-independent basis, Debye):
    X=              1.2463    Y=             -1.7674    Z=              1.2852  Tot=              2.5157
 Quadrupole moment (field-independent basis, Debye-Ang):
   XX=           -215.9757   YY=           -158.8683   ZZ=           -146.1370
   XY=             13.8480   XZ=              4.1401   YZ=              0.0195

 Summary of Natural Population Analysis:

                                       Natural Population
                Natural  -----------------------------------------------
    Atom  No    Charge         Core      Valence    Rydberg      Total
 -----------------------------------------------------------------------
      C    1   -0.29185      0.99965     2.28757    0.00463     3.29185
      C    2   -0.19075      0.99961     2.18356    0.00758     3.19075
      C    3   -0.10406      0.99956     2.09391    0.01059     3.10406
      C    4   -0.08811      0.99958     2.07710    0.01143     3.08811
      N    5   -0.25323      0.99963     2.74165    0.01195     3.75323
      C    6   -0.07960      0.99960     2.06962    0.01038     3.07960
      C    7   -0.19331      0.99960     2.18485    0.00886     3.19331
      C    8   -0.11617      0.99954     2.10391    0.01272     3.11617
      C    9   -0.00912      0.99950     1.99739    0.01223     3.00912
      C   10   -0.10387      0.99950     2.09560    0.00877     3.10387
      C   11   -0.09771      0.99956     2.08880    0.00935     3.09771
      C   12   -0.10748      0.99956     2.09785    0.01007     3.10748
      C   13   -0.09785      0.99956     2.08820    0.01009     3.09785
      C   14   -0.09763      0.99950     2.08840    0.00972     3.09763
      C   15    0.34156      0.99963     1.63574    0.02306     2.65844
      O   16   -0.33342      0.99988     3.32835    0.00519     4.33342
      C   17   -0.12709      0.99960     2.11606    0.01143     3.12709
      N   18   -0.42197      0.99977     2.91104    0.01116     3.92197
      H   19    0.09507      0.00000     0.40356    0.00136     0.40493
      H   20    0.09621      0.00000     0.40308    0.00070     0.40379
      H   21    0.10493      0.00000     0.39378    0.00129     0.39507
      H   22    0.10202      0.00000     0.39678    0.00120     0.39798
      H   23    0.09490      0.00000     0.40412    0.00098     0.40510
      H   24    0.10150      0.00000     0.39711    0.00139     0.39850
      H   25    0.09388      0.00000     0.40506    0.00105     0.40612
      H   26    0.11736      0.00000     0.38146    0.00118     0.38264
      H   27    0.11421      0.00000     0.38401    0.00178     0.38579
      H   28    0.08853      0.00000     0.41014    0.00133     0.41147
      H   29    0.10305      0.00000     0.39475    0.00220     0.39695
      H   30    0.10266      0.00000     0.39643    0.00091     0.39734
      H   31    0.10081      0.00000     0.39699    0.00220     0.39919
      H   32    0.10271      0.00000     0.39561    0.00168     0.39729
      H   33    0.10020      0.00000     0.39895    0.00085     0.39980
      H   34    0.10090      0.00000     0.39813    0.00097     0.39910
      H   35    0.10197      0.00000     0.39677    0.00125     0.39803
      H   36    0.10128      0.00000     0.39688    0.00184     0.39872
      H   37    0.09734      0.00000     0.40111    0.00155     0.40266
      H   38    0.09470      0.00000     0.40390    0.00140     0.40530
      H   39    0.18161      0.00000     0.31286    0.00553     0.31839
      H   40    0.17580      0.00000     0.32202    0.00218     0.32420
 =======================================================================
   * Total *    0.00000     17.99284    48.78310    0.22406    67.00000

 Normal termination of Gaussian 16 at Fri Dec 11 20:37:57 2020.
