 Gaussian 16, Revision A.03,

 -----------------------------------------------------------
 # opt freq B3LYP/6-31G(d) empiricaldispersion=gd3bj scf=xqc
 -----------------------------------------------------------

 -------------------------------
 CID_105450446_JID_4951_neutraal
 -------------------------------
 Symbolic Z-matrix:
 Charge =  0 Multiplicity = 1

 SCF Done:  E(RB3LYP) =  -705.259178172     A.U. after   15 cycles
 SCF Done:  E(RB3LYP) =  -705.263085378     A.U. after   13 cycles
 SCF Done:  E(RB3LYP) =  -705.261421110     A.U. after   13 cycles
 SCF Done:  E(RB3LYP) =  -705.264074999     A.U. after   12 cycles
 SCF Done:  E(RB3LYP) =  -705.264193544     A.U. after   12 cycles
 SCF Done:  E(RB3LYP) =  -705.264359023     A.U. after   13 cycles
 SCF Done:  E(RB3LYP) =  -705.264449198     A.U. after   12 cycles
 SCF Done:  E(RB3LYP) =  -705.264487370     A.U. after   12 cycles
 SCF Done:  E(RB3LYP) =  -705.264498856     A.U. after   11 cycles
 SCF Done:  E(RB3LYP) =  -705.264502740     A.U. after   10 cycles
 SCF Done:  E(RB3LYP) =  -705.264506091     A.U. after   11 cycles
 SCF Done:  E(RB3LYP) =  -705.264507148     A.U. after   10 cycles
 SCF Done:  E(RB3LYP) =  -705.264507553     A.U. after    9 cycles
 SCF Done:  E(RB3LYP) =  -705.264507647     A.U. after    7 cycles
 SCF Done:  E(RB3LYP) =  -705.264507673     A.U. after    7 cycles
 Optimization completed.
    -- Stationary point found.
 Normal termination of Gaussian 16 at Thu Dec 10 10:58:57 2020.

 --------------------------------------------------------------------
 #N Geom=AllCheck Guess=TCheck SCRF=Check GenChk RB3LYP/6-31G(d) Freq
 --------------------------------------------------------------------

 Structure from the checkpoint file:  "JID_4951.chk"
 -------------------------------
 CID_105450446_JID_4951_neutraal
 -------------------------------
 Charge =  0 Multiplicity = 1

 SCF Done:  E(RB3LYP) =  -705.264507673     A.U. after    1 cycles

  Exact polarizability: 154.024   0.246 140.203   0.461   0.556  59.265
 Approx polarizability: 227.022  -1.640 220.115   1.404   2.422  89.080

                      1                      2                      3
                      A                      A                      A
 Frequencies --      8.4418                54.7530                83.4829
 Red. masses --     10.5908                 3.3321                 3.9690
 Frc consts  --      0.0004                 0.0059                 0.0163
 IR Inten    --      1.1087                 1.4880                 4.0837

                      4                      5                      6
                      A                      A                      A
 Frequencies --    115.1383               135.4837               158.0468
 Red. masses --      2.6416                 1.1986                 1.4424
 Frc consts  --      0.0206                 0.0130                 0.0212
 IR Inten    --      3.2595                 0.4260                 0.3868

                      7                      8                      9
                      A                      A                      A
 Frequencies --    159.6387               200.7632               203.5795
 Red. masses --      4.5863                 1.8466                 3.4412
 Frc consts  --      0.0689                 0.0439                 0.0840
 IR Inten    --      3.3040                 2.1093                 2.4999

                     10                     11                     12
                      A                      A                      A
 Frequencies --    233.3688               236.2951               284.8348
 Red. masses --      2.9637                 2.8010                 1.3734
 Frc consts  --      0.0951                 0.0921                 0.0656
 IR Inten    --      0.9779                 0.5999                 0.9725

                     13                     14                     15
                      A                      A                      A
 Frequencies --    316.2639               354.6571               383.9209
 Red. masses --      3.7124                 7.1529                 6.3635
 Frc consts  --      0.2188                 0.5301                 0.5526
 IR Inten    --      0.4213                 1.9242                 3.2496

                     16                     17                     18
                      A                      A                      A
 Frequencies --    420.4958               473.1990               489.3688
 Red. masses --      5.1657                 4.5754                 4.8301
 Frc consts  --      0.5382                 0.6036                 0.6815
 IR Inten    --      0.3236                 0.2175                 7.7152

                     19                     20                     21
                      A                      A                      A
 Frequencies --    512.2496               591.8048               597.5123
 Red. masses --      5.8322                 2.2989                 4.0793
 Frc consts  --      0.9017                 0.4744                 0.8581
 IR Inten    --      0.1079                35.7503                16.0984

                     22                     23                     24
                      A                      A                      A
 Frequencies --    669.0302               680.3017               692.0616
 Red. masses --      3.6900                 2.2279                 4.9992
 Frc consts  --      0.9731                 0.6075                 1.4107
 IR Inten    --     21.9451                48.4892                70.4807

                     25                     26                     27
                      A                      A                      A
 Frequencies --    743.7705               747.0918               801.8790
 Red. masses --      5.8229                 5.8294                 9.0213
 Frc consts  --      1.8979                 1.9170                 3.4177
 IR Inten    --     10.2646                28.6027                17.8574

                     28                     29                     30
                      A                      A                      A
 Frequencies --    861.1100               892.9092              1030.6835
 Red. masses --      5.1728                 1.3832                 6.3369
 Frc consts  --      2.2599                 0.6497                 3.9662
 IR Inten    --     20.9547                16.1924                 0.1741

                     31                     32                     33
                      A                      A                      A
 Frequencies --   1039.7976              1069.2807              1072.9626
 Red. masses --      1.5559                 7.8202                 1.4956
 Frc consts  --      0.9911                 5.2681                 1.0145
 IR Inten    --     20.0527               149.4537                 3.1328

                     34                     35                     36
                      A                      A                      A
 Frequencies --   1130.2249              1183.6051              1186.4926
 Red. masses --      8.0246                 1.2687                 1.2694
 Frc consts  --      6.0396                 1.0471                 1.0529
 IR Inten    --     28.5321                 0.8402                 0.8299

                     37                     38                     39
                      A                      A                      A
 Frequencies --   1189.8005              1208.5990              1219.3919
 Red. masses --      2.4385                 1.8030                 1.4445
 Frc consts  --      2.0338                 1.5517                 1.2655
 IR Inten    --    300.8327                 6.7387                 0.2380

                     40                     41                     42
                      A                      A                      A
 Frequencies --   1233.2310              1291.9926              1330.2088
 Red. masses --      2.0734                 2.5809                 5.0879
 Frc consts  --      1.8579                 2.5383                 5.3043
 IR Inten    --     36.0923               392.7447                55.6598

                     43                     44                     45
                      A                      A                      A
 Frequencies --   1362.5781              1409.4983              1443.0321
 Red. masses --      2.9171                 4.0283                 1.2859
 Frc consts  --      3.1910                 4.7152                 1.5776
 IR Inten    --     14.7041                 9.0302                18.5881

                     46                     47                     48
                      A                      A                      A
 Frequencies --   1460.7211              1479.3021              1503.4353
 Red. masses --      2.0595                 3.1381                 1.0441
 Frc consts  --      2.5891                 4.0460                 1.3904
 IR Inten    --    299.0767                51.3788                 5.6714

                     49                     50                     51
                      A                      A                      A
 Frequencies --   1506.2913              1507.7335              1515.2816
 Red. masses --      1.2444                 1.0477                 1.2634
 Frc consts  --      1.6636                 1.4033                 1.7091
 IR Inten    --      9.8587                 5.5797                36.6973

                     52                     53                     54
                      A                      A                      A
 Frequencies --   1524.1386              1526.4021              1532.3214
 Red. masses --      1.0479                 1.0796                 1.1548
 Frc consts  --      1.4343                 1.4821                 1.5975
 IR Inten    --      5.7615                37.4276               115.3157

                     55                     56                     57
                      A                      A                      A
 Frequencies --   1541.7334              1610.4021              1670.7035
 Red. masses --      1.5529                 8.6549                 6.4615
 Frc consts  --      2.1748                13.2246                10.6264
 IR Inten    --    145.3293                 6.7316                10.1526

                     58                     59                     60
                      A                      A                      A
 Frequencies --   1822.4533              3026.2602              3053.5562
 Red. masses --      9.7329                 1.0351                 1.0356
 Frc consts  --     19.0461                 5.5854                 5.6894
 IR Inten    --    317.6296                58.7493                21.5913

                     61                     62                     63
                      A                      A                      A
 Frequencies --   3066.7961              3086.6483              3108.9663
 Red. masses --      1.0293                 1.1069                 1.1002
 Frc consts  --      5.7037                 6.2132                 6.2653
 IR Inten    --     45.2097                41.7037                10.6077

                     64                     65                     66
                      A                      A                      A
 Frequencies --   3135.2694              3137.7021              3165.5332
 Red. masses --      1.1036                 1.1069                 1.0993
 Frc consts  --      6.3917                 6.4207                 6.4902
 IR Inten    --     17.8881                23.3796                21.6503

                     67                     68                     69
                      A                      A                      A
 Frequencies --   3170.2129              3225.8633              3684.1332
 Red. masses --      1.1071                 1.0895                 1.0637
 Frc consts  --      6.5559                 6.6799                 8.5064
 IR Inten    --     27.0416                 9.4829                57.5166

 - Thermochemistry -
 -------------------
 Temperature   298.150 Kelvin.  Pressure   1.00000 Atm.
 Atom     1 has atomic number  6 and mass  12.00000

 Molecular mass:   197.06881 amu.
 Principal axes and moments of inertia in atomic units:
                           1         2         3
     Eigenvalues --  2019.269273081.671645060.19513
           X            0.99873   0.05045  -0.00021
           Y           -0.05045   0.99873  -0.00134
           Z            0.00014   0.00135   1.00000
 This molecule is an asymmetric top.
 Rotational symmetry number  1.
 Warning -- assumption of classical behavior for rotation
           may cause significant error
 Rotational temperatures (Kelvin)      0.04289     0.02811     0.01712
 Rotational constants (GHZ):           0.89376     0.58564     0.35665
 Zero-point vibrational energy     517771.8 (Joules/Mol)
                                  123.75044 (Kcal/Mol)
 Warning -- explicit consideration of  21 degrees of freedom as
           vibrations may cause significant error
 Vibrational temperatures:     12.15    78.78   120.11   165.66   194.93
          (Kelvin)            227.39   229.68   288.85   292.91   335.77
                              339.98   409.81   455.03   510.27   552.38
                              605.00   680.83   704.09   737.01   851.48
                              859.69   962.59   978.80   995.72  1070.12
                             1074.90  1153.72  1238.95  1284.70  1482.92
                             1496.04  1538.46  1543.75  1626.14  1702.94
                             1707.10  1711.86  1738.90  1754.43  1774.34
                             1858.89  1913.87  1960.45  2027.95  2076.20
                             2101.65  2128.39  2163.11  2167.22  2169.29
                             2180.15  2192.90  2196.15  2204.67  2218.21
                             2317.01  2403.77  2622.10  4354.11  4393.39
                             4412.44  4441.00  4473.11  4510.95  4514.45
                             4554.50  4561.23  4641.30  5300.65

 Zero-point correction=                           0.197209 (Hartree/Particle)
 Thermal correction to Energy=                    0.211238
 Thermal correction to Enthalpy=                  0.212182
 Thermal correction to Gibbs Free Energy=         0.154622
 Sum of electronic and zero-point Energies=           -705.067299
 Sum of electronic and thermal Energies=              -705.053269
 Sum of electronic and thermal Enthalpies=            -705.052325
 Sum of electronic and thermal Free Energies=         -705.109886

                     E (Thermal)             CV                S
                      KCal/Mol        Cal/Mol-Kelvin    Cal/Mol-Kelvin
 Total                  132.554             50.516            121.146
 Electronic               0.000              0.000              0.000
 Translational            0.889              2.981             41.740
 Rotational               0.889              2.981             31.821
 Vibrational            130.777             44.555             47.585
 Vibration     1          0.593              1.987              8.348
 Vibration     2          0.596              1.976              4.638
 Vibration     3          0.600              1.961              3.807
 Vibration     4          0.608              1.937              3.180
 Vibration     5          0.613              1.918              2.867
 Vibration     6          0.621              1.894              2.573
 Vibration     7          0.622              1.892              2.554
 Vibration     8          0.638              1.839              2.126
 Vibration     9          0.639              1.835              2.101
 Vibration    10          0.654              1.790              1.853
 Vibration    11          0.655              1.785              1.831
 Vibration    12          0.683              1.702              1.504
 Vibration    13          0.703              1.643              1.329
 Vibration    14          0.731              1.566              1.145
 Vibration    15          0.753              1.504              1.024
 Vibration    16          0.783              1.426              0.890
 Vibration    17          0.830              1.310              0.729
 Vibration    18          0.845              1.274              0.685
 Vibration    19          0.867              1.223              0.628
 Vibration    20          0.949              1.049              0.464
 Vibration    21          0.955              1.037              0.454

                           ! Non-Optimized Parameters !
 Normal termination of Gaussian 16 at Thu Dec 10 11:05:41 2020.

 ----------------------------------------------------------------------
 # B3LYP/6-311++G(d,p) empiricaldispersion=gd3bj scf=xqc pop=npa geom=c
 heck
 ----------------------------------------------------------------------

 ---------------------------------------
 CID_105450446_JID_4951_Energie_neutraal
 ---------------------------------------
 Structure from the checkpoint file:  "JID_4951.chk"
 Charge =  0 Multiplicity = 1

 SCF Done:  E(RB3LYP) =  -705.471365735     A.U. after   16 cycles
 Normal termination of Gaussian 16 at Thu Dec 10 11:08:51 2020.

 ----------------------------------------------------------------------
 # B3LYP/6-311++G(d,p) empiricaldispersion=gd3bj scf=xqc pop=npa geom=c
 heck
 ----------------------------------------------------------------------

 -------------------------------------
 CID_105450446_JID_4951_Energie_kation
 -------------------------------------
 Structure from the checkpoint file:  "JID_4951.chk"
 Charge =  1 Multiplicity = 2

 SCF Done:  E(UB3LYP) =  -705.179419733     A.U. after   22 cycles
 Normal termination of Gaussian 16 at Thu Dec 10 11:14:52 2020.
 Gaussian 16:  ES64L-G16RevA.03 25-Dec-2016

 ----------------------------------------------------------------------
 # B3LYP/6-311++G(d,p) empiricaldispersion=gd3bj scf=xqc pop=npa geom=c
 heck
 ----------------------------------------------------------------------

 ------------------------------------
 CID_105450446_JID_4951_Energie_anion
 ------------------------------------
 Structure from the checkpoint file:  "JID_4951.chk"
 Charge = -1 Multiplicity = 2

                         Standard orientation:
 ---------------------------------------------------------------------
 Center     Atomic      Atomic             Coordinates (Angstroms)
 Number     Number       Type             X           Y           Z
 ---------------------------------------------------------------------
      1          6           0       -2.437808    2.387721    0.010315
      2          6           0       -1.329728    1.375042    0.005673
      3          6           0        0.010642    1.720562   -0.004146
      4          6           0        1.018396    0.734845   -0.007174
      5          6           0        0.611922   -0.612429    0.000421
      6          7           0       -0.693346   -0.945450    0.004707
      7          6           0       -1.615481   -0.010476    0.009069
      8          8           0       -2.927179   -0.355188    0.016880
      9          6           0       -3.211430   -1.757308    0.014543
     10          6           0        1.520186   -1.802917   -0.009946
     11          8           0        1.134976   -2.943364   -0.157221
     12          8           0        2.830848   -1.509607    0.173423
     13          8           0        2.341447    1.032383   -0.027558
     14          6           0        2.730748    2.395992   -0.043253
     15          1           0       -3.085909    2.259352   -0.864147
     16          1           0       -3.077289    2.260645    0.891273
     17          1           0       -2.043119    3.407884    0.007599
     18          1           0        0.275877    2.771247   -0.010594
     19          1           0       -4.300132   -1.829761    0.014448
     20          1           0       -2.791215   -2.239868   -0.872604
     21          1           0       -2.792134   -2.242424    0.900879
     22          1           0        3.277977   -2.376407    0.145336
     23          1           0        2.358508    2.913190   -0.937280
     24          1           0        2.384043    2.926118    0.853385
     25          1           0        3.821404    2.388200   -0.058447
 ---------------------------------------------------------------------

 SCF Done:  E(UB3LYP) =  -705.474011645     A.U. after   33 cycles
 SCF Done:  E(UB3LYP) =  -705.474011645     a.u. after    1 cycles

 The electronic state is 2-A.
 Alpha  occ. eigenvalues --  -19.01790 -19.01680 -19.00660 -18.93354 -14.13609
 Alpha  occ. eigenvalues --  -10.12075 -10.10595 -10.09947 -10.09398 -10.08612
 Alpha  occ. eigenvalues --  -10.03981 -10.03908 -10.02477 -10.01989  -0.94675
 Alpha  occ. eigenvalues --   -0.93761  -0.93510  -0.84867  -0.77955  -0.66723
 Alpha  occ. eigenvalues --   -0.63827  -0.59370  -0.57434  -0.55876  -0.49282
 Alpha  occ. eigenvalues --   -0.45876  -0.45222  -0.40030  -0.38766  -0.37586
 Alpha  occ. eigenvalues --   -0.34860  -0.33990  -0.32534  -0.31730  -0.31189
 Alpha  occ. eigenvalues --   -0.30193  -0.29532  -0.28885  -0.27830  -0.26594
 Alpha  occ. eigenvalues --   -0.24857  -0.24669  -0.24424  -0.21920  -0.21805
 Alpha  occ. eigenvalues --   -0.19430  -0.17643  -0.16012  -0.13017  -0.11588
 Alpha  occ. eigenvalues --   -0.11125  -0.07238   0.05350
 Alpha virt. eigenvalues --    0.07418   0.08712   0.09410   0.10344   0.11009
 Alpha virt. eigenvalues --    0.11483   0.12610   0.12813   0.13015   0.14236
 Alpha virt. eigenvalues --    0.14501   0.15002   0.15154   0.16811   0.17943

  Beta  occ. eigenvalues --  -19.01792 -19.01706 -19.00580 -18.93103 -14.13244
  Beta  occ. eigenvalues --  -10.11869 -10.10575 -10.10065 -10.09395 -10.08591
  Beta  occ. eigenvalues --  -10.04011 -10.03680 -10.02390 -10.01564  -0.94444
  Beta  occ. eigenvalues --   -0.93791  -0.93448  -0.84477  -0.77417  -0.66129
  Beta  occ. eigenvalues --   -0.63608  -0.59340  -0.57250  -0.55453  -0.48843
  Beta  occ. eigenvalues --   -0.45782  -0.44923  -0.39919  -0.38634  -0.37467
  Beta  occ. eigenvalues --   -0.34742  -0.33948  -0.32313  -0.31549  -0.30941
  Beta  occ. eigenvalues --   -0.30063  -0.28875  -0.28035  -0.27679  -0.26394
  Beta  occ. eigenvalues --   -0.24697  -0.24247  -0.24094  -0.21790  -0.21777
  Beta  occ. eigenvalues --   -0.19311  -0.16951  -0.15049  -0.11490  -0.11111
  Beta  occ. eigenvalues --   -0.10672  -0.06023
  Beta virt. eigenvalues --    0.07564   0.08690   0.09391   0.10312   0.10973
  Beta virt. eigenvalues --    0.11120   0.11997   0.12665   0.12782   0.12962
  Beta virt. eigenvalues --    0.14355   0.14462   0.15088   0.15282   0.16795

 Mulliken charges and spin densities:
               1          2
     1  C   -0.371309  -0.161882
     2  C    0.120859   0.312265
     3  C    0.124734   0.122802
     4  C   -0.027475   0.009487
     5  C   -0.643612   0.133897
     6  N   -0.038256   0.166828
     7  C   -0.438272  -0.109511
     8  O   -0.161944   0.000861
     9  C   -0.234984  -0.008404
    10  C    0.382082   0.128614
    11  O   -0.410083   0.090552
    12  O   -0.250586   0.013468
    13  O   -0.159552   0.026468
    14  C    0.015504  -0.299671
    15  H    0.089288   0.070105
    16  H    0.148056   0.004574
    17  H    0.042810   0.069539
    18  H    0.070275   0.014328
    19  H    0.109972   0.000606
    20  H    0.173371   0.003803
    21  H    0.173410  -0.001326
    22  H    0.269683   0.003784
    23  H   -0.116111   0.252039
    24  H    0.104525   0.022573
    25  H    0.027618   0.134203
 Sum of Mulliken charges =  -1.00000   1.00000

 Dipole moment (field-independent basis, Debye):
    X=             -0.8562    Y=              2.1816    Z=              1.0641  Tot=              2.5738
 Quadrupole moment (field-independent basis, Debye-Ang):
   XX=           -103.3137   YY=           -112.3057   ZZ=            -91.0086
   XY=              4.2575   XZ=              0.5154   YZ=              2.1101

 Summary of Natural Population Analysis:

                                       Natural Population
                Natural  -----------------------------------------------
    Atom  No    Charge         Core      Valence    Rydberg      Total
 -----------------------------------------------------------------------
      C    1   -0.29313      0.99965     2.28848    0.00500     3.29313
      C    2    0.03128      0.99949     1.95922    0.01001     2.96872
      C    3   -0.12256      0.99950     2.11514    0.00792     3.12256
      C    4    0.15543      0.99937     1.83125    0.01395     2.84457
      C    5    0.05444      0.99947     1.93238    0.01371     2.94556
      N    6   -0.18979      0.99962     2.68183    0.00834     3.68979
      C    7    0.23218      0.99941     1.75150    0.01692     2.76782
      O    8   -0.28739      0.99986     3.27958    0.00795     4.28739
      C    9   -0.10234      0.99961     2.09409    0.00865     3.10234
      C   10    0.41327      0.99970     1.56125    0.02578     2.58673
      O   11   -0.30134      0.99987     3.29505    0.00642     4.30134
      O   12   -0.34388      0.99988     3.33683    0.00717     4.34388
      O   13   -0.26678      0.99985     3.25775    0.00918     4.26678
      C   14   -0.10072      0.99961     2.09141    0.00971     3.10072
      H   15    0.10318      0.00000     0.39496    0.00186     0.39682
      H   16    0.10180      0.00000     0.39691    0.00128     0.39820
      H   17    0.09291      0.00000     0.40615    0.00094     0.40709
      H   18    0.09326      0.00000     0.40543    0.00132     0.40674
      H   19    0.07785      0.00000     0.42131    0.00083     0.42215
      H   20    0.09028      0.00000     0.40836    0.00136     0.40972
      H   21    0.08898      0.00000     0.40963    0.00140     0.41102
      H   22    0.22346      0.00000     0.27082    0.00572     0.27654
      H   23    0.08289      0.00000     0.41535    0.00176     0.41711
      H   24    0.07907      0.00000     0.41981    0.00113     0.42093
      H   25    0.08765      0.00000     0.41150    0.00085     0.41235
 =======================================================================
   * Total *   -0.00000     13.99489    37.83597    0.16914    52.00000

 Normal termination of Gaussian 16 at Thu Dec 10 11:23:46 2020.
