 Gaussian 16, Revision A.03,

 -----------------------------------------------------------
 # opt freq B3LYP/6-31G(d) empiricaldispersion=gd3bj scf=xqc
 -----------------------------------------------------------

 ------------------------------
 CID_19091968_JID_6709_neutraal
 ------------------------------
 Symbolic Z-matrix:
 Charge =  0 Multiplicity = 1

 SCF Done:  E(RB3LYP) =  -842.142960191     A.U. after   14 cycles
 SCF Done:  E(RB3LYP) =  -842.145151306     A.U. after   13 cycles
 SCF Done:  E(RB3LYP) =  -842.141964172     A.U. after   14 cycles
 SCF Done:  E(RB3LYP) =  -842.144484694     A.U. after   12 cycles
 SCF Done:  E(RB3LYP) =  -842.146685825     A.U. after   10 cycles
 SCF Done:  E(RB3LYP) =  -842.147023136     A.U. after   12 cycles
 SCF Done:  E(RB3LYP) =  -842.147442853     A.U. after   12 cycles
 SCF Done:  E(RB3LYP) =  -842.147487508     A.U. after   12 cycles
 SCF Done:  E(RB3LYP) =  -842.147658057     A.U. after   11 cycles
 SCF Done:  E(RB3LYP) =  -842.147690494     A.U. after   11 cycles
 SCF Done:  E(RB3LYP) =  -842.147789427     A.U. after   10 cycles
 SCF Done:  E(RB3LYP) =  -842.147792270     A.U. after    9 cycles
 SCF Done:  E(RB3LYP) =  -842.147794163     A.U. after   10 cycles
 SCF Done:  E(RB3LYP) =  -842.147794653     A.U. after    9 cycles
 SCF Done:  E(RB3LYP) =  -842.147795270     A.U. after    7 cycles
 SCF Done:  E(RB3LYP) =  -842.147795407     A.U. after    7 cycles
 Optimization completed.
    -- Stationary point found.
 Normal termination of Gaussian 16 at Fri Dec 11 00:25:23 2020.

 --------------------------------------------------------------------
 #N Geom=AllCheck Guess=TCheck SCRF=Check GenChk RB3LYP/6-31G(d) Freq
 --------------------------------------------------------------------

 Structure from the checkpoint file:  "JID_6709.chk"
 ------------------------------
 CID_19091968_JID_6709_neutraal
 ------------------------------
 Charge =  0 Multiplicity = 1

 SCF Done:  E(RB3LYP) =  -842.147795407     A.U. after    1 cycles

  Exact polarizability: 123.426   4.724 123.177   2.043  -5.524 101.378
 Approx polarizability: 163.137   1.827 168.759   5.453 -12.470 173.372

                      1                      2                      3
                      A                      A                      A
 Frequencies --     28.8907                38.1358                49.6482
 Red. masses --      6.5203                 7.2817                 8.9510
 Frc consts  --      0.0032                 0.0062                 0.0130
 IR Inten    --      0.1645                 2.1835                 1.7400

                      4                      5                      6
                      A                      A                      A
 Frequencies --     61.9505                77.0110                87.2755
 Red. masses --      3.8867                 7.6371                 3.7588
 Frc consts  --      0.0088                 0.0267                 0.0169
 IR Inten    --      0.0618                 3.1725                 0.2096

                      7                      8                      9
                      A                      A                      A
 Frequencies --    109.1138               123.8351               136.7291
 Red. masses --      7.2037                 4.1480                 5.7963
 Frc consts  --      0.0505                 0.0375                 0.0638
 IR Inten    --      0.2433                 0.3766                 0.6511

                     10                     11                     12
                      A                      A                      A
 Frequencies --    166.3319               173.8363               219.0445
 Red. masses --      3.3275                 3.4245                 2.0635
 Frc consts  --      0.0542                 0.0610                 0.0583
 IR Inten    --      0.6148                 0.4983                 0.3526

                     13                     14                     15
                      A                      A                      A
 Frequencies --    258.3011               296.2801               307.4262
 Red. masses --      2.2873                 2.7934                 2.9184
 Frc consts  --      0.0899                 0.1445                 0.1625
 IR Inten    --      0.1065                 1.1134                 0.7392

                     16                     17                     18
                      A                      A                      A
 Frequencies --    329.1567               377.8204               442.1675
 Red. masses --      3.0740                 2.6970                 3.3212
 Frc consts  --      0.1962                 0.2268                 0.3826
 IR Inten    --      0.9445                 3.7297                 1.2653

                     19                     20                     21
                      A                      A                      A
 Frequencies --    444.6023               457.4674               484.6327
 Red. masses --      2.7345                 3.3518                 4.2191
 Frc consts  --      0.3185                 0.4133                 0.5838
 IR Inten    --      3.2301                 1.7743                10.3677

                     22                     23                     24
                      A                      A                      A
 Frequencies --    509.5131               527.6194               576.6255
 Red. masses --      2.2093                 2.3092                 2.5992
 Frc consts  --      0.3379                 0.3787                 0.5092
 IR Inten    --      5.1311                44.6417               102.8770

                     25                     26                     27
                      A                      A                      A
 Frequencies --    598.8063               627.3857               664.9792
 Red. masses --      2.8461                 2.5887                 1.5256
 Frc consts  --      0.6013                 0.6004                 0.3975
 IR Inten    --     37.5193                35.4389                88.9659

                     28                     29                     30
                      A                      A                      A
 Frequencies --    669.8598               697.4154               748.3659
 Red. masses --      1.4324                 1.9225                 2.1856
 Frc consts  --      0.3787                 0.5509                 0.7212
 IR Inten    --     23.4788                65.6378                13.5499

                     31                     32                     33
                      A                      A                      A
 Frequencies --    754.4698               765.9188               804.6012
 Red. masses --      1.8244                 3.5538                 2.6603
 Frc consts  --      0.6119                 1.2283                 1.0147
 IR Inten    --     88.8719                46.9920                18.7041

                     34                     35                     36
                      A                      A                      A
 Frequencies --    837.2235               866.5014               887.0208
 Red. masses --      2.0865                 2.4372                 2.8187
 Frc consts  --      0.8617                 1.0781                 1.3067
 IR Inten    --      5.0271                 9.2652                 2.1322

                     37                     38                     39
                      A                      A                      A
 Frequencies --    899.6287               936.4956               949.3792
 Red. masses --      1.7395                 3.0968                 1.9299
 Frc consts  --      0.8295                 1.6002                 1.0249
 IR Inten    --      8.6616                 1.1232                10.3198

                     40                     41                     42
                      A                      A                      A
 Frequencies --   1009.1660              1046.3019              1075.4042
 Red. masses --      2.3201                 1.6797                 2.1545
 Frc consts  --      1.3921                 1.0834                 1.4681
 IR Inten    --     11.5203                 3.8566                12.0848

                     43                     44                     45
                      A                      A                      A
 Frequencies --   1084.3378              1104.1691              1145.5630
 Red. masses --      1.9500                 1.8451                 2.2052
 Frc consts  --      1.3509                 1.3254                 1.7050
 IR Inten    --     11.6892                22.5913                36.1018

                     46                     47                     48
                      A                      A                      A
 Frequencies --   1156.6685              1179.9030              1196.5260
 Red. masses --      2.2602                 2.6328                 2.1884
 Frc consts  --      1.7816                 2.1595                 1.8460
 IR Inten    --      3.0858               257.3538               417.3916

                     49                     50                     51
                      A                      A                      A
 Frequencies --   1207.9918              1235.9519              1254.3730
 Red. masses --      2.0839                 1.2883                 1.3785
 Frc consts  --      1.7917                 1.1595                 1.2779
 IR Inten    --      9.5914                30.9428                 7.9365

                     52                     53                     54
                      A                      A                      A
 Frequencies --   1272.8479              1301.6967              1312.5559
 Red. masses --      1.2930                 1.3242                 1.2941
 Frc consts  --      1.2343                 1.3220                 1.3136
 IR Inten    --     10.3253                 1.2868                 0.5357

                     55                     56                     57
                      A                      A                      A
 Frequencies --   1328.6881              1341.4337              1353.9315
 Red. masses --      1.4276                 1.4681                 1.2389
 Frc consts  --      1.4849                 1.5565                 1.3380
 IR Inten    --      1.1225                 3.2142                 5.0078

                     58                     59                     60
                      A                      A                      A
 Frequencies --   1359.8549              1383.8831              1393.3194
 Red. masses --      1.5335                 1.7509                 2.4071
 Frc consts  --      1.6708                 1.9756                 2.7533
 IR Inten    --      5.4451                22.8754                30.2536

                     61                     62                     63
                      A                      A                      A
 Frequencies --   1402.0552              1411.8973              1425.6627
 Red. masses --      1.4007                 1.5984                 1.5064
 Frc consts  --      1.6222                 1.8773                 1.8040
 IR Inten    --      2.7318                 0.2547                 2.2195

                     64                     65                     66
                      A                      A                      A
 Frequencies --   1440.0916              1446.2256              1500.4789
 Red. masses --      1.9932                 1.2823                 1.1075
 Frc consts  --      2.4354                 1.5802                 1.4691
 IR Inten    --     63.3398                12.5221                22.6709

                     67                     68                     69
                      A                      A                      A
 Frequencies --   1516.1023              1521.8068              1532.5230
 Red. masses --      1.0728                 1.0769                 1.0598
 Frc consts  --      1.4528                 1.4694                 1.4666
 IR Inten    --      3.2998                 3.9588                16.6688

                     70                     71                     72
                      A                      A                      A
 Frequencies --   1535.5170              1541.8564              1831.6760
 Red. masses --      1.0550                 1.0759                 9.7154
 Frc consts  --      1.4656                 1.5070                19.2048
 IR Inten    --      0.4359                12.5135               211.5772

                     73                     74                     75
                      A                      A                      A
 Frequencies --   1837.6775              1846.9768              3036.3151
 Red. masses --      9.8728                 9.6406                 1.0800
 Frc consts  --     19.6439                19.3765                 5.8665
 IR Inten    --    299.3763               206.4889                15.1258

                     76                     77                     78
                      A                      A                      A
 Frequencies --   3038.6601              3043.8782              3047.5626
 Red. masses --      1.0760                 1.0640                 1.0395
 Frc consts  --      5.8539                 5.8084                 5.6884
 IR Inten    --      3.2830                13.9802                28.9494

                     79                     80                     81
                      A                      A                      A
 Frequencies --   3057.5761              3073.3785              3087.5092
 Red. masses --      1.0678                 1.0953                 1.0656
 Frc consts  --      5.8817                 6.0954                 5.9848
 IR Inten    --     11.7521                21.6279                 3.8438

                     82                     83                     84
                      A                      A                      A
 Frequencies --   3095.6516              3108.9318              3112.7876
 Red. masses --      1.1025                 1.0652                 1.0989
 Frc consts  --      6.2246                 6.0660                 6.2734
 IR Inten    --     38.0788                13.4435                59.6380

                     85                     86                     87
                      A                      A                      A
 Frequencies --   3118.5692              3140.8754              3154.4790
 Red. masses --      1.1015                 1.0970                 1.1029
 Frc consts  --      6.3116                 6.3763                 6.4660
 IR Inten    --     43.4829                 3.4959                 5.4064

                     88                     89                     90
                      A                      A                      A
 Frequencies --   3676.1190              3685.3207              3686.3493
 Red. masses --      1.0639                 1.0639                 1.0639
 Frc consts  --      8.4707                 8.5134                 8.5180
 IR Inten    --     50.5722                55.2503                57.1277

 - Thermochemistry -
 -------------------
 Temperature   298.150 Kelvin.  Pressure   1.00000 Atm.
 Atom     1 has atomic number  6 and mass  12.00000

 Molecular mass:   232.09469 amu.
 Principal axes and moments of inertia in atomic units:
                           1         2         3
     Eigenvalues --  2991.227734028.538726021.35979
           X            0.99754   0.07005  -0.00176
           Y           -0.07007   0.99748  -0.01132
           Z            0.00096   0.01141   0.99993
 This molecule is an asymmetric top.
 Rotational symmetry number  1.
 Warning -- assumption of classical behavior for rotation
           may cause significant error
 Rotational temperatures (Kelvin)      0.02896     0.02150     0.01438
 Rotational constants (GHZ):           0.60334     0.44799     0.29972
 Zero-point vibrational energy     697964.5 (Joules/Mol)
                                  166.81751 (Kcal/Mol)
 Warning -- explicit consideration of  25 degrees of freedom as
           vibrations may cause significant error
 Vibrational temperatures:     41.57    54.87    71.43    89.13   110.80
          (Kelvin)            125.57   156.99   178.17   196.72   239.31
                              250.11   315.16   371.64   426.28   442.32
                              473.58   543.60   636.18   639.68   658.19
                              697.28   733.08   759.13   829.64   861.55
                              902.67   956.76   963.78  1003.43  1076.73
                             1085.51  1101.99  1157.64  1204.58  1246.70
                             1276.23  1294.37  1347.41  1365.94  1451.96
                             1505.40  1547.27  1560.12  1588.65  1648.21
                             1664.19  1697.62  1721.53  1738.03  1778.26
                             1804.76  1831.34  1872.85  1888.48  1911.69
                             1930.02  1948.01  1956.53  1991.10  2004.68
                             2017.24  2031.41  2051.21  2071.97  2080.80
                             2158.85  2181.33  2189.54  2204.96  2209.27
                             2218.39  2635.37  2644.01  2657.39  4368.58
                             4371.95  4379.46  4384.76  4399.17  4421.91
                             4442.24  4453.95  4473.06  4478.61  4486.93
                             4519.02  4538.59  5289.12  5302.35  5303.83

 Zero-point correction=                           0.265841 (Hartree/Particle)
 Thermal correction to Energy=                    0.282850
 Thermal correction to Enthalpy=                  0.283794
 Thermal correction to Gibbs Free Energy=         0.219476
 Sum of electronic and zero-point Energies=           -841.881955
 Sum of electronic and thermal Energies=              -841.864946
 Sum of electronic and thermal Enthalpies=            -841.864002
 Sum of electronic and thermal Free Energies=         -841.928319

                     E (Thermal)             CV                S
                      KCal/Mol        Cal/Mol-Kelvin    Cal/Mol-Kelvin
 Total                  177.491             61.927            135.368
 Electronic               0.000              0.000              0.000
 Translational            0.889              2.981             42.228
 Rotational               0.889              2.981             32.651
 Vibrational            175.713             55.965             60.489
 Vibration     1          0.593              1.984              5.904
 Vibration     2          0.594              1.982              5.354
 Vibration     3          0.595              1.978              4.831
 Vibration     4          0.597              1.972              4.394
 Vibration     5          0.599              1.964              3.966
 Vibration     6          0.601              1.958              3.720
 Vibration     7          0.606              1.942              3.285
 Vibration     8          0.610              1.929              3.040
 Vibration     9          0.614              1.917              2.849
 Vibration    10          0.624              1.884              2.477
 Vibration    11          0.627              1.875              2.394
 Vibration    12          0.647              1.812              1.967
 Vibration    13          0.667              1.749              1.673
 Vibration    14          0.690              1.681              1.438
 Vibration    15          0.697              1.660              1.376
 Vibration    16          0.712              1.617              1.264
 Vibration    17          0.748              1.517              1.048
 Vibration    18          0.802              1.378              0.820
 Vibration    19          0.804              1.373              0.812
 Vibration    20          0.816              1.344              0.774
 Vibration    21          0.841              1.284              0.698
 Vibration    22          0.865              1.229              0.635
 Vibration    23          0.883              1.189              0.593
 Vibration    24          0.933              1.082              0.492
 Vibration    25          0.957              1.034              0.452

 Optimization completed.
    -- Stationary point found.
 Normal termination of Gaussian 16 at Fri Dec 11 00:36:16 2020.

 ----------------------------------------------------------------------
 # B3LYP/6-311++G(d,p) empiricaldispersion=gd3bj scf=xqc pop=npa geom=c
 heck
 ----------------------------------------------------------------------

 --------------------------------------
 CID_19091968_JID_6709_Energie_neutraal
 --------------------------------------
 Structure from the checkpoint file:  "JID_6709.chk"
 Charge =  0 Multiplicity = 1

 SCF Done:  E(RB3LYP) =  -842.422218295     A.U. after   15 cycles
 Normal termination of Gaussian 16 at Fri Dec 11 00:40:28 2020.

 ----------------------------------------------------------------------
 # B3LYP/6-311++G(d,p) empiricaldispersion=gd3bj scf=xqc pop=npa geom=c
 heck
 ----------------------------------------------------------------------

 ------------------------------------
 CID_19091968_JID_6709_Energie_kation
 ------------------------------------
 Structure from the checkpoint file:  "JID_6709.chk"
 Charge =  1 Multiplicity = 2

 SCF Done:  E(UB3LYP) =  -842.070424762     A.U. after   25 cycles
 Normal termination of Gaussian 16 at Fri Dec 11 00:49:56 2020.
 Gaussian 16:  ES64L-G16RevA.03 25-Dec-2016

 ----------------------------------------------------------------------
 # B3LYP/6-311++G(d,p) empiricaldispersion=gd3bj scf=xqc pop=npa geom=c
 heck
 ----------------------------------------------------------------------

 -----------------------------------
 CID_19091968_JID_6709_Energie_anion
 -----------------------------------
 Structure from the checkpoint file:  "JID_6709.chk"
 Charge = -1 Multiplicity = 2

                         Standard orientation:
 ---------------------------------------------------------------------
 Center     Atomic      Atomic             Coordinates (Angstroms)
 Number     Number       Type             X           Y           Z
 ---------------------------------------------------------------------
      1          6           0       -4.051860   -1.144333    0.511124
      2          6           0       -3.124983   -1.027855   -0.702728
      3          6           0       -2.362098    0.303442   -0.783338
      4          6           0       -1.455904    0.584386    0.427111
      5          6           0       -0.419081   -0.523768    0.730660
      6          6           0        0.466701   -0.931278   -0.460513
      7          6           0        1.320180    0.199339   -1.052621
      8          6           0        2.280122    0.783692   -0.041054
      9          8           0        2.660774    0.230792    0.967067
     10          8           0        2.704290    2.014297   -0.409198
     11          6           0        1.373063   -2.122729   -0.167909
     12          8           0        2.344452   -2.419008   -0.828294
     13          8           0        0.944067   -2.880347    0.866917
     14          6           0       -0.772045    1.944168    0.396694
     15          8           0       -0.011330    2.345420    1.251277
     16          8           0       -1.088170    2.698641   -0.686431
     17          1           0       -3.492450   -1.159005    1.453368
     18          1           0       -4.640556   -2.066829    0.467926
     19          1           0       -4.752803   -0.301620    0.553512
     20          1           0       -2.420601   -1.869697   -0.704393
     21          1           0       -3.718698   -1.131583   -1.619626
     22          1           0       -1.768506    0.327042   -1.704669
     23          1           0       -3.084146    1.122741   -0.876582
     24          1           0       -2.087799    0.643514    1.323936
     25          1           0        0.211616   -0.194840    1.558801
     26          1           0       -0.957089   -1.409091    1.075880
     27          1           0       -0.184277   -1.286997   -1.271729
     28          1           0        1.925283   -0.206182   -1.871011
     29          1           0        0.702846    0.994042   -1.477159
     30          1           0        3.304917    2.313856    0.299083
     31          1           0        1.586447   -3.611042    0.941245
     32          1           0       -0.581416    3.526951   -0.583841
 ---------------------------------------------------------------------

 SCF Done:  E(UB3LYP) =  -842.412821291     A.U. after   32 cycles

 The electronic state is 2-A.
 Alpha  occ. eigenvalues --  -19.08215 -19.08179 -19.07727 -19.02624 -19.02233
 Alpha  occ. eigenvalues --  -19.02036 -10.21862 -10.21552 -10.21212 -10.10912
 Alpha  occ. eigenvalues --  -10.09968 -10.09850 -10.08144 -10.07435 -10.07333
 Alpha  occ. eigenvalues --  -10.06565  -1.02345  -1.02095  -1.01760  -0.93388
 Alpha  occ. eigenvalues --   -0.93016  -0.92703  -0.75027  -0.71214  -0.66623
 Alpha  occ. eigenvalues --   -0.63523  -0.58569  -0.56407  -0.53801  -0.50696
 Alpha  occ. eigenvalues --   -0.48803  -0.47015  -0.43292  -0.42129  -0.40368
 Alpha  occ. eigenvalues --   -0.39992  -0.39479  -0.38970  -0.37853  -0.37244
 Alpha  occ. eigenvalues --   -0.36663  -0.34908  -0.33887  -0.32758  -0.32248
 Alpha  occ. eigenvalues --   -0.31787  -0.31190  -0.30169  -0.30117  -0.28883
 Alpha  occ. eigenvalues --   -0.26923  -0.26569  -0.25824  -0.24931  -0.24364
 Alpha  occ. eigenvalues --   -0.24011  -0.23335  -0.22923  -0.22449  -0.19526
 Alpha  occ. eigenvalues --   -0.19127  -0.18633   0.04009
 Alpha virt. eigenvalues --    0.05823   0.06424   0.07186   0.07495   0.08079
 Alpha virt. eigenvalues --    0.08446   0.08979   0.09149   0.10014   0.10580
 Alpha virt. eigenvalues --    0.11289   0.11746   0.12033   0.12576   0.13313

  Beta  occ. eigenvalues --  -19.08194 -19.08154 -19.07684 -19.02619 -19.02219
  Beta  occ. eigenvalues --  -19.02019 -10.21861 -10.21525 -10.21198 -10.10901
  Beta  occ. eigenvalues --  -10.09957 -10.09827 -10.08134 -10.07414 -10.07310
  Beta  occ. eigenvalues --  -10.06531  -1.02311  -1.02053  -1.01697  -0.93365
  Beta  occ. eigenvalues --   -0.92981  -0.92650  -0.74995  -0.71174  -0.66578
  Beta  occ. eigenvalues --   -0.63468  -0.58510  -0.56332  -0.53742  -0.50610
  Beta  occ. eigenvalues --   -0.48733  -0.46946  -0.43255  -0.42090  -0.40349
  Beta  occ. eigenvalues --   -0.39961  -0.39444  -0.38941  -0.37821  -0.37207
  Beta  occ. eigenvalues --   -0.36592  -0.34864  -0.33841  -0.32726  -0.32213
  Beta  occ. eigenvalues --   -0.31746  -0.31162  -0.30138  -0.30074  -0.28850
  Beta  occ. eigenvalues --   -0.26877  -0.26541  -0.25793  -0.24886  -0.24316
  Beta  occ. eigenvalues --   -0.23984  -0.23298  -0.22887  -0.22407  -0.19509
  Beta  occ. eigenvalues --   -0.19105  -0.18587
  Beta virt. eigenvalues --    0.06186   0.06733   0.07128   0.07690   0.08140
  Beta virt. eigenvalues --    0.08310   0.08742   0.09405   0.09722   0.10271
  Beta virt. eigenvalues --    0.10793   0.11561   0.12069   0.12317   0.12942

 Mulliken charges and spin densities:
               1          2
     1  C    0.781397  -1.377860
     2  C   -0.682797   0.406883
     3  C    0.622940  -1.054505
     4  C    0.283385   0.345911
     5  C   -0.316851  -0.616875
     6  C   -0.455161   1.060904
     7  C    0.717946  -1.304433
     8  C   -0.542173   0.385643
     9  O   -0.198190  -0.020711
    10  O   -0.121010   0.023291
    11  C    0.160541  -0.435945
    12  O   -0.278680   0.008055
    13  O   -0.157394   0.030747
    14  C    0.451903  -0.963582
    15  O   -0.228617   0.040489
    16  O   -0.148092   0.075009
    17  H   -0.145422   0.278462
    18  H   -0.410252   0.566271
    19  H    0.029073   0.105339
    20  H   -0.128141   0.258348
    21  H   -0.436856   0.604848
    22  H    0.069997   0.113208
    23  H   -0.263422   0.476539
    24  H    0.073504   0.180274
    25  H    0.261502  -0.001370
    26  H    0.318444  -0.081998
    27  H   -0.137806   0.389807
    28  H   -0.092746   0.330536
    29  H    0.379912  -0.086127
    30  H   -0.008351   0.295707
    31  H   -0.062407   0.337886
    32  H   -0.336172   0.629249
 Sum of Mulliken charges =  -1.00000   1.00000

 Dipole moment (field-independent basis, Debye):
    X=              2.6950    Y=             -0.2717    Z=              1.0230  Tot=              2.8955
 Quadrupole moment (field-independent basis, Debye-Ang):
   XX=           -160.7625   YY=           -152.0640   ZZ=           -128.3381
   XY=             -1.5946   XZ=             -4.0121   YZ=              0.0292

 Summary of Natural Population Analysis:

                                       Natural Population
                Natural  -----------------------------------------------
    Atom  No    Charge         Core      Valence    Rydberg      Total
 -----------------------------------------------------------------------
      C    1   -0.28590      0.99967     2.28181    0.00443     3.28590
      C    2   -0.19109      0.99964     2.18337    0.00809     3.19109
      C    3   -0.19317      0.99961     2.18312    0.01043     3.19317
      C    4   -0.15737      0.99953     2.14588    0.01195     3.15737
      C    5   -0.19220      0.99959     2.18350    0.00912     3.19220
      C    6   -0.15631      0.99954     2.14468    0.01209     3.15631
      C    7   -0.24663      0.99956     2.23749    0.00959     3.24663
      C    8    0.41131      0.99972     1.56275    0.02623     2.58869
      O    9   -0.30500      0.99987     3.29954    0.00559     4.30500
      O   10   -0.34167      0.99987     3.33527    0.00653     4.34167
      C   11    0.42098      0.99968     1.55274    0.02659     2.57902
      O   12   -0.31251      0.99987     3.30680    0.00584     4.31251
      O   13   -0.34229      0.99987     3.33612    0.00630     4.34229
      C   14    0.41135      0.99967     1.56257    0.02641     2.58865
      O   15   -0.30977      0.99987     3.30362    0.00629     4.30977
      O   16   -0.34417      0.99988     3.33727    0.00702     4.34417
      H   17    0.09455      0.00000     0.40431    0.00114     0.40545
      H   18    0.10125      0.00000     0.39750    0.00125     0.39875
      H   19    0.09619      0.00000     0.40259    0.00123     0.40381
      H   20    0.09352      0.00000     0.40494    0.00154     0.40648
      H   21    0.09911      0.00000     0.39952    0.00136     0.40089
      H   22    0.10131      0.00000     0.39717    0.00152     0.39869
      H   23    0.10581      0.00000     0.39270    0.00149     0.39419
      H   24    0.11808      0.00000     0.38061    0.00131     0.38192
      H   25    0.11863      0.00000     0.38004    0.00132     0.38137
      H   26    0.11139      0.00000     0.38702    0.00159     0.38861
      H   27    0.11992      0.00000     0.37826    0.00181     0.38008
      H   28    0.12918      0.00000     0.36968    0.00114     0.37082
      H   29    0.11879      0.00000     0.37942    0.00179     0.38121
      H   30    0.24086      0.00000     0.25549    0.00365     0.25914
      H   31    0.24100      0.00000     0.25453    0.00447     0.25900
      H   32    0.24486      0.00000     0.24518    0.00996     0.25514
 =======================================================================
   * Total *    0.00000     15.99544    45.78549    0.21908    62.00000

 Normal termination of Gaussian 16 at Fri Dec 11 01:02:06 2020.
