 Gaussian 16, Revision A.03,

 -----------------------------------------------------------
 # opt freq B3LYP/6-31G(d) empiricaldispersion=gd3bj scf=xqc
 -----------------------------------------------------------

 ------------------------------
 CID_79097151_JID_6077_neutraal
 ------------------------------
 Symbolic Z-matrix:
 Charge =  0 Multiplicity = 1

 SCF Done:  E(RB3LYP) =  -694.602387556     A.U. after   14 cycles
 SCF Done:  E(RB3LYP) =  -694.607191837     A.U. after   12 cycles
 SCF Done:  E(RB3LYP) =  -694.608283089     A.U. after   11 cycles
 SCF Done:  E(RB3LYP) =  -694.608615384     A.U. after   11 cycles
 SCF Done:  E(RB3LYP) =  -694.608746588     A.U. after   11 cycles
 SCF Done:  E(RB3LYP) =  -694.608787891     A.U. after   10 cycles
 SCF Done:  E(RB3LYP) =  -694.608795766     A.U. after    9 cycles
 SCF Done:  E(RB3LYP) =  -694.608802534     A.U. after    9 cycles
 SCF Done:  E(RB3LYP) =  -694.608803660     A.U. after    9 cycles
 SCF Done:  E(RB3LYP) =  -694.608804203     A.U. after    7 cycles
 SCF Done:  E(RB3LYP) =  -694.608804078     A.U. after    7 cycles
 SCF Done:  E(RB3LYP) =  -694.608803980     A.U. after    7 cycles
 SCF Done:  E(RB3LYP) =  -694.608804259     A.U. after    9 cycles
 SCF Done:  E(RB3LYP) =  -694.608803952     A.U. after    9 cycles
 SCF Done:  E(RB3LYP) =  -694.608803931     A.U. after    6 cycles
 Optimization completed on the basis of negligible forces.
    -- Stationary point found.
 Normal termination of Gaussian 16 at Thu Dec 10 21:15:23 2020.

 --------------------------------------------------------------------
 #N Geom=AllCheck Guess=TCheck SCRF=Check GenChk RB3LYP/6-31G(d) Freq
 --------------------------------------------------------------------

 Structure from the checkpoint file:  "JID_6077.chk"
 ------------------------------
 CID_79097151_JID_6077_neutraal
 ------------------------------
 Charge =  0 Multiplicity = 1

 SCF Done:  E(RB3LYP) =  -694.608803931     A.U. after    1 cycles

  Exact polarizability: 174.263 -11.755 141.742  -3.162   0.389 139.090
 Approx polarizability: 222.571 -24.825 188.299  -3.417   3.024 228.801

                      1                      2                      3
                      A                      A                      A
 Frequencies --     12.8135                27.6110                35.2541
 Red. masses --      3.9995                 3.5329                 3.7571
 Frc consts  --      0.0004                 0.0016                 0.0028
 IR Inten    --      0.3578                 0.0225                 0.6129

                      4                      5                      6
                      A                      A                      A
 Frequencies --     58.8888                62.5968                90.4493
 Red. masses --      2.4616                 3.1111                 3.1010
 Frc consts  --      0.0050                 0.0072                 0.0149
 IR Inten    --      0.1090                 0.1557                 1.3376

                      7                      8                      9
                      A                      A                      A
 Frequencies --     97.1941               117.1107               135.4427
 Red. masses --      3.9309                 3.2992                 2.3138
 Frc consts  --      0.0219                 0.0267                 0.0250
 IR Inten    --      0.4016                 0.5603                 0.8381

                     10                     11                     12
                      A                      A                      A
 Frequencies --    159.7974               181.9782               215.7183
 Red. masses --      2.4434                 2.3136                 1.1561
 Frc consts  --      0.0368                 0.0451                 0.0317
 IR Inten    --      3.9089                 0.4283                 0.0951

                     13                     14                     15
                      A                      A                      A
 Frequencies --    231.5474               250.0637               286.4741
 Red. masses --      1.2080                 1.3825                 2.6071
 Frc consts  --      0.0382                 0.0509                 0.1261
 IR Inten    --      0.1690                 0.9607                 2.6279

                     16                     17                     18
                      A                      A                      A
 Frequencies --    296.3042               307.1892               332.7058
 Red. masses --      2.0706                 3.3400                 2.9252
 Frc consts  --      0.1071                 0.1857                 0.1908
 IR Inten    --      2.2334                 3.9034                 1.7297

                     19                     20                     21
                      A                      A                      A
 Frequencies --    365.0461               388.9385               415.3402
 Red. masses --      3.0336                 2.2217                 2.6055
 Frc consts  --      0.2382                 0.1980                 0.2648
 IR Inten    --      2.7225                 2.9626                 4.8278

                     22                     23                     24
                      A                      A                      A
 Frequencies --    420.4700               427.4430               479.2292
 Red. masses --      1.1854                 2.1673                 2.6558
 Frc consts  --      0.1235                 0.2333                 0.3594
 IR Inten    --    141.9454                10.4207                 1.8832

                     25                     26                     27
                      A                      A                      A
 Frequencies --    498.7411               562.5476               636.8869
 Red. masses --      2.7981                 3.0384                 4.6372
 Frc consts  --      0.4101                 0.5665                 1.1082
 IR Inten    --      8.4288                 0.3623                 7.4584

                     28                     29                     30
                      A                      A                      A
 Frequencies --    653.2830               671.6460               700.0137
 Red. masses --      2.5626                 1.3179                 2.0417
 Frc consts  --      0.6444                 0.3503                 0.5895
 IR Inten    --      5.0098                 4.6381                26.4599

                     31                     32                     33
                      A                      A                      A
 Frequencies --    734.6756               772.0861               781.1526
 Red. masses --      2.1251                 1.5257                 1.3333
 Frc consts  --      0.6758                 0.5359                 0.4793
 IR Inten    --     26.8738                21.3943                 2.0561

                     34                     35                     36
                      A                      A                      A
 Frequencies --    828.1607               832.3942               867.4278
 Red. masses --      1.3048                 1.7817                 2.5958
 Frc consts  --      0.5273                 0.7273                 1.1508
 IR Inten    --      6.3758                67.0756                15.3860

                     37                     38                     39
                      A                      A                      A
 Frequencies --    887.7863               902.0962               925.4898
 Red. masses --      2.3975                 2.3672                 1.3562
 Frc consts  --      1.1133                 1.1350                 0.6844
 IR Inten    --      8.4164                 4.8853                14.7276

                     40                     41                     42
                      A                      A                      A
 Frequencies --    938.0070               945.8384               957.7069
 Red. masses --      1.9349                 1.1724                 1.9765
 Frc consts  --      1.0031                 0.6180                 1.0681
 IR Inten    --      7.6394                 4.2695                 6.9423

                     43                     44                     45
                      A                      A                      A
 Frequencies --    976.9620              1013.0543              1018.6751
 Red. masses --      1.4494                 1.7262                 2.1521
 Frc consts  --      0.8151                 1.0438                 1.3158
 IR Inten    --      1.0354                 8.1479                 0.6579

                     46                     47                     48
                      A                      A                      A
 Frequencies --   1040.1158              1071.6059              1084.4352
 Red. masses --      3.5174                 2.8119                 2.1447
 Frc consts  --      2.2420                 1.9025                 1.4860
 IR Inten    --      7.2002                12.8622                50.0258

                     49                     50                     51
                      A                      A                      A
 Frequencies --   1095.3065              1111.8676              1122.7762
 Red. masses --      1.8808                 1.6856                 2.0683
 Frc consts  --      1.3294                 1.2277                 1.5362
 IR Inten    --     11.1266                41.2822                11.9134

                     52                     53                     54
                      A                      A                      A
 Frequencies --   1137.8013              1150.1900              1172.3002
 Red. masses --      2.3474                 2.2366                 1.8812
 Frc consts  --      1.7905                 1.7433                 1.5232
 IR Inten    --     28.8829                15.4230                 5.2098

                     55                     56                     57
                      A                      A                      A
 Frequencies --   1183.4215              1201.2359              1210.4386
 Red. masses --      1.8353                 1.9169                 1.7677
 Frc consts  --      1.5143                 1.6297                 1.5260
 IR Inten    --     43.3923                19.0313                 6.5414

                     58                     59                     60
                      A                      A                      A
 Frequencies --   1219.5760              1243.2502              1257.9676
 Red. masses --      1.3405                 1.3103                 1.4896
 Frc consts  --      1.1747                 1.1933                 1.3889
 IR Inten    --      4.1680                17.6384                12.4091

                     61                     62                     63
                      A                      A                      A
 Frequencies --   1280.1674              1309.0678              1325.1255
 Red. masses --      1.3708                 1.2475                 1.3351
 Frc consts  --      1.3236                 1.2595                 1.3813
 IR Inten    --      7.9919                 2.2634                 9.3723

                     64                     65                     66
                      A                      A                      A
 Frequencies --   1356.5348              1363.3373              1381.6866
 Red. masses --      1.3321                 1.5068                 2.2657
 Frc consts  --      1.4443                 1.6501                 2.5484
 IR Inten    --     16.4819                 4.4897                 4.4146

                     67                     68                     69
                      A                      A                      A
 Frequencies --   1394.0802              1397.3574              1399.4181
 Red. masses --      1.4443                 1.3965                 1.7490
 Frc consts  --      1.6538                 1.6066                 2.0180
 IR Inten    --      3.7393                 4.3707                23.7060

                     70                     71                     72
                      A                      A                      A
 Frequencies --   1410.4821              1419.3320              1424.2273
 Red. masses --      1.2986                 1.3950                 1.3142
 Frc consts  --      1.5221                 1.6558                 1.5706
 IR Inten    --      0.5138                 4.3339                 0.3681

                     73                     74                     75
                      A                      A                      A
 Frequencies --   1435.0243              1438.5904              1443.7053
 Red. masses --      1.9115                 1.7169                 1.4033
 Frc consts  --      2.3192                 2.0935                 1.7233
 IR Inten    --     20.9124                 8.8581                28.5967

                     76                     77                     78
                      A                      A                      A
 Frequencies --   1445.0079              1448.6898              1501.0285
 Red. masses --      1.2805                 1.9965                 1.2210
 Frc consts  --      1.5753                 2.4687                 1.6208
 IR Inten    --      2.7605                15.9184                13.2437

                     79                     80                     81
                      A                      A                      A
 Frequencies --   1507.4512              1513.2508              1516.5418
 Red. masses --      1.1391                 1.1169                 1.0525
 Frc consts  --      1.5250                 1.5069                 1.4262
 IR Inten    --     16.1404                24.0620                 1.9168

                     82                     83                     84
                      A                      A                      A
 Frequencies --   1522.3714              1527.6438              1529.8249
 Red. masses --      1.0502                 1.1032                 1.0583
 Frc consts  --      1.4341                 1.5168                 1.4594
 IR Inten    --      1.5204                 0.7076                13.8896

                     85                     86                     87
                      A                      A                      A
 Frequencies --   1530.9588              1540.7504              1543.2508
 Red. masses --      1.0540                 1.5138                 1.4437
 Frc consts  --      1.4555                 2.1173                 2.0258
 IR Inten    --      7.3924                23.4702                20.2201

                     88                     89                     90
                      A                      A                      A
 Frequencies --   1544.8850              1547.3769              1596.5147
 Red. masses --      1.0773                 1.0865                 4.6064
 Frc consts  --      1.5149                 1.5327                 6.9176
 IR Inten    --      7.5354                 2.3511                 5.1125

                     91                     92                     93
                      A                      A                      A
 Frequencies --   2957.7918              2988.7549              3006.3133
 Red. masses --      1.0716                 1.0815                 1.0700
 Frc consts  --      5.5238                 5.6919                 5.6976
 IR Inten    --     52.2518                16.4835                42.5121

                     94                     95                     96
                      A                      A                      A
 Frequencies --   3026.0524              3039.4866              3040.2360
 Red. masses --      1.0834                 1.0400                 1.0611
 Frc consts  --      5.8451                 5.6607                 5.7786
 IR Inten    --     20.6669                20.9370                15.9020

                     97                     98                     99
                      A                      A                      A
 Frequencies --   3041.6649              3045.7353              3057.7783
 Red. masses --      1.0403                 1.0407                 1.0847
 Frc consts  --      5.6706                 5.6878                 5.9757
 IR Inten    --     24.5094                54.8998                60.4688

                    100                    101                    102
                      A                      A                      A
 Frequencies --   3072.0117              3079.3826              3097.5607
 Red. masses --      1.0602                 1.1014                 1.1005
 Frc consts  --      5.8949                 6.1537                 6.2211
 IR Inten    --     26.1642                 9.4483                 9.9344

                    103                    104                    105
                      A                      A                      A
 Frequencies --   3104.7153              3105.8401              3108.4981
 Red. masses --      1.0942                 1.0997                 1.1029
 Frc consts  --      6.2144                 6.2502                 6.2789
 IR Inten    --     56.1294                68.9100                59.7111

                    106                    107                    108
                      A                      A                      A
 Frequencies --   3112.8109              3125.5356              3131.7591
 Red. masses --      1.1010                 1.1068                 1.1002
 Frc consts  --      6.2855                 6.3707                 6.3575
 IR Inten    --     51.0622                20.3949                37.6922

                    109                    110                    111
                      A                      A                      A
 Frequencies --   3154.1360              3248.6840              3256.5849
 Red. masses --      1.0979                 1.0913                 1.0950
 Frc consts  --      6.4352                 6.7858                 6.8423
 IR Inten    --     16.6541                 3.6334                 1.1356

                    112                    113                    114
                      A                      A                      A
 Frequencies --   3276.8787              3473.8340              3704.3135
 Red. masses --      1.1014                 1.0725                 1.0658
 Frc consts  --      6.9683                 7.6255                 8.6167
 IR Inten    --      1.0650                 1.3143                35.3391

 - Thermochemistry -
 -------------------
 Temperature   298.150 Kelvin.  Pressure   1.00000 Atm.
 Atom     1 has atomic number  6 and mass  12.00000

 Molecular mass:   224.18886 amu.
 Principal axes and moments of inertia in atomic units:
                           1         2         3
     Eigenvalues --  2671.270786145.768917693.93984
           X            0.99997   0.00733  -0.00171
           Y           -0.00732   0.99995   0.00681
           Z            0.00176  -0.00680   0.99998
 This molecule is an asymmetric top.
 Rotational symmetry number  1.
 Warning -- assumption of classical behavior for rotation
           may cause significant error
 Rotational temperatures (Kelvin)      0.03242     0.01409     0.01126
 Rotational constants (GHZ):           0.67561     0.29366     0.23457
 Zero-point vibrational energy     948953.1 (Joules/Mol)
                                  226.80523 (Kcal/Mol)
 Warning -- explicit consideration of  26 degrees of freedom as
           vibrations may cause significant error
 Vibrational temperatures:     18.44    39.73    50.72    84.73    90.06
          (Kelvin)            130.14   139.84   168.50   194.87   229.91
                              261.83   310.37   333.15   359.79   412.17
                              426.32   441.98   478.69   525.22   559.60
                              597.58   604.96   615.00   689.50   717.58
                              809.38   916.34   939.93   966.35  1007.16
                             1057.03  1110.86  1123.90  1191.54  1197.63
                             1248.04  1277.33  1297.92  1331.57  1349.58
                             1360.85  1377.93  1405.63  1457.56  1465.65
                             1496.49  1541.80  1560.26  1575.90  1599.73
                             1615.42  1637.04  1654.87  1686.68  1702.68
                             1728.31  1741.55  1754.70  1788.76  1809.93
                             1841.88  1883.46  1906.56  1951.75  1961.54
                             1987.94  2005.77  2010.49  2013.45  2029.37
                             2042.10  2049.15  2064.68  2069.81  2077.17
                             2079.04  2084.34  2159.65  2168.89  2177.23
                             2181.97  2190.35  2197.94  2201.08  2202.71
                             2216.80  2220.39  2222.74  2226.33  2297.03
                             4255.60  4300.15  4325.41  4353.81  4373.14
                             4374.22  4376.28  4382.13  4399.46  4419.94
                             4430.54  4456.70  4466.99  4468.61  4472.44
                             4478.64  4496.95  4505.90  4538.10  4674.13
                             4685.50  4714.70  4998.07  5329.68

 Zero-point correction=                           0.361437 (Hartree/Particle)
 Thermal correction to Energy=                    0.379898
 Thermal correction to Enthalpy=                  0.380842
 Thermal correction to Gibbs Free Energy=         0.312430
 Sum of electronic and zero-point Energies=           -694.247367
 Sum of electronic and thermal Energies=              -694.228906
 Sum of electronic and thermal Enthalpies=            -694.227962
 Sum of electronic and thermal Free Energies=         -694.296374

                     E (Thermal)             CV                S
                      KCal/Mol        Cal/Mol-Kelvin    Cal/Mol-Kelvin
 Total                  238.389             68.142            143.984
 Electronic               0.000              0.000              0.000
 Translational            0.889              2.981             42.124
 Rotational               0.889              2.981             33.201
 Vibrational            236.612             62.180             68.658
 Vibration     1          0.593              1.987              7.519
 Vibration     2          0.593              1.984              5.994
 Vibration     3          0.594              1.982              5.509
 Vibration     4          0.596              1.974              4.494
 Vibration     5          0.597              1.972              4.374
 Vibration     6          0.602              1.956              3.650
 Vibration     7          0.603              1.951              3.510
 Vibration     8          0.608              1.935              3.148
 Vibration     9          0.613              1.918              2.867
 Vibration    10          0.622              1.892              2.552
 Vibration    11          0.630              1.864              2.308
 Vibration    12          0.645              1.817              1.995
 Vibration    13          0.653              1.793              1.867
 Vibration    14          0.663              1.763              1.730
 Vibration    15          0.684              1.699              1.495
 Vibration    16          0.690              1.681              1.438
 Vibration    17          0.697              1.660              1.377
 Vibration    18          0.715              1.610              1.247
 Vibration    19          0.738              1.544              1.101
 Vibration    20          0.757              1.494              1.004
 Vibration    21          0.779              1.437              0.908
 Vibration    22          0.783              1.426              0.890
 Vibration    23          0.789              1.411              0.867
 Vibration    24          0.836              1.296              0.712
 Vibration    25          0.854              1.253              0.661
 Vibration    26          0.918              1.112              0.519

 Optimization completed.
    -- Stationary point found.
 Normal termination of Gaussian 16 at Thu Dec 10 21:28:51 2020.

 ----------------------------------------------------------------------
 # B3LYP/6-311++G(d,p) empiricaldispersion=gd3bj scf=xqc pop=npa geom=c
 heck
 ----------------------------------------------------------------------

 --------------------------------------
 CID_79097151_JID_6077_Energie_neutraal
 --------------------------------------
 Structure from the checkpoint file:  "JID_6077.chk"
 Charge =  0 Multiplicity = 1

 SCF Done:  E(RB3LYP) =  -694.813916712     A.U. after   14 cycles
 Normal termination of Gaussian 16 at Thu Dec 10 21:34:55 2020.

 ----------------------------------------------------------------------
 # B3LYP/6-311++G(d,p) empiricaldispersion=gd3bj scf=xqc pop=npa geom=c
 heck
 ----------------------------------------------------------------------

 ------------------------------------
 CID_79097151_JID_6077_Energie_kation
 ------------------------------------
 Structure from the checkpoint file:  "JID_6077.chk"
 Charge =  1 Multiplicity = 2

 SCF Done:  E(UB3LYP) =  -694.536658892     A.U. after   22 cycles
 Normal termination of Gaussian 16 at Thu Dec 10 21:49:50 2020.
 Gaussian 16:  ES64L-G16RevA.03 25-Dec-2016

 ----------------------------------------------------------------------
 # B3LYP/6-311++G(d,p) empiricaldispersion=gd3bj scf=xqc pop=npa geom=c
 heck
 ----------------------------------------------------------------------

 -----------------------------------
 CID_79097151_JID_6077_Energie_anion
 -----------------------------------
 Structure from the checkpoint file:  "JID_6077.chk"
 Charge = -1 Multiplicity = 2

                         Standard orientation:
 ---------------------------------------------------------------------
 Center     Atomic      Atomic             Coordinates (Angstroms)
 Number     Number       Type             X           Y           Z
 ---------------------------------------------------------------------
      1          6           0       -3.524527   -2.556851   -1.086254
      2          6           0       -3.789338   -1.887981    0.266714
      3          6           0       -2.602845   -1.077205    0.791550
      4          7           0       -2.305968    0.059172   -0.078653
      5          6           0       -1.198437    0.906372    0.400060
      6          6           0        0.119138    0.168095    0.498318
      7          6           0        0.873698   -0.317531   -0.556386
      8          7           0        1.963641   -0.991763   -0.049509
      9          6           0        1.928704   -0.923617    1.328704
     10          6           0        0.795847   -0.223189    1.691361
     11          6           0        3.107515   -1.439500   -0.826713
     12          6           0        4.136653   -0.315616   -0.998545
     13          8           0        4.646490    0.131914    0.242831
     14          6           0       -1.104355    2.177916   -0.476835
     15          6           0       -2.442244    2.924432   -0.516680
     16          6           0        0.019035    3.105101    0.001689
     17          1           0       -3.387924   -1.816354   -1.883164
     18          1           0       -4.362721   -3.196997   -1.382499
     19          1           0       -2.623123   -3.181637   -1.047637
     20          1           0       -4.661845   -1.227800    0.188509
     21          1           0       -4.033666   -2.659141    1.009021
     22          1           0       -2.849466   -0.673077    1.782136
     23          1           0       -1.734122   -1.745901    0.933703
     24          1           0       -2.043012   -0.296564   -0.997411
     25          1           0       -1.476249    1.228326    1.414064
     26          1           0        0.733280   -0.235157   -1.625376
     27          1           0        2.694222   -1.406349    1.919000
     28          1           0        0.464893   -0.025638    2.702488
     29          1           0        3.568139   -2.283952   -0.305180
     30          1           0        2.753987   -1.790068   -1.802395
     31          1           0        4.992248   -0.689745   -1.570341
     32          1           0        3.678831    0.507825   -1.569424
     33          1           0        3.893794    0.477558    0.752174
     34          1           0       -0.861892    1.850393   -1.501243
     35          1           0       -2.698893    3.299306    0.483023
     36          1           0       -2.386872    3.787170   -1.190853
     37          1           0       -3.249355    2.265080   -0.841858
     38          1           0        0.992562    2.607270   -0.018317
     39          1           0        0.076028    4.000388   -0.627724
     40          1           0       -0.167539    3.435336    1.031888
 ---------------------------------------------------------------------

 SCF Done:  E(UB3LYP) =  -694.801793018     A.U. after   33 cycles
 SCF Done:  E(UB3LYP) =  -694.801793018     a.u. after    1 cycles

 The electronic state is 2-A.
 Alpha  occ. eigenvalues --  -19.03440 -14.26912 -14.19858 -10.12623 -10.11643
 Alpha  occ. eigenvalues --  -10.10691 -10.09783 -10.09401 -10.09200 -10.08102
 Alpha  occ. eigenvalues --  -10.07531 -10.06678 -10.06585 -10.06532 -10.06494
 Alpha  occ. eigenvalues --  -10.06183  -0.93931  -0.89165  -0.81548  -0.72406
 Alpha  occ. eigenvalues --   -0.70613  -0.67511  -0.63971  -0.63015  -0.59306
 Alpha  occ. eigenvalues --   -0.58912  -0.56212  -0.53635  -0.49325  -0.47844
 Alpha  occ. eigenvalues --   -0.47667  -0.45324  -0.43079  -0.42640  -0.38711
 Alpha  occ. eigenvalues --   -0.38395  -0.37595  -0.35504  -0.35285  -0.34511
 Alpha  occ. eigenvalues --   -0.33298  -0.32824  -0.32606  -0.31734  -0.31161
 Alpha  occ. eigenvalues --   -0.30578  -0.29482  -0.29279  -0.28956  -0.28362
 Alpha  occ. eigenvalues --   -0.27042  -0.26029  -0.25058  -0.24935  -0.24642
 Alpha  occ. eigenvalues --   -0.23886  -0.23621  -0.22538  -0.19471  -0.14776
 Alpha  occ. eigenvalues --   -0.13798  -0.11863   0.04265
 Alpha virt. eigenvalues --    0.06323   0.06568   0.06833   0.08075   0.08161
 Alpha virt. eigenvalues --    0.08469   0.08927   0.08933   0.09988   0.10205
 Alpha virt. eigenvalues --    0.10747   0.10808   0.11106   0.11344   0.11938

  Beta  occ. eigenvalues --  -19.03434 -14.26914 -14.19846 -10.12594 -10.11603
  Beta  occ. eigenvalues --  -10.10689 -10.09767 -10.09397 -10.09169 -10.08093
  Beta  occ. eigenvalues --  -10.07524 -10.06650 -10.06585 -10.06529 -10.06483
  Beta  occ. eigenvalues --  -10.06176  -0.93917  -0.89153  -0.81532  -0.72383
  Beta  occ. eigenvalues --   -0.70590  -0.67489  -0.63933  -0.62976  -0.59277
  Beta  occ. eigenvalues --   -0.58889  -0.56170  -0.53581  -0.49285  -0.47826
  Beta  occ. eigenvalues --   -0.47630  -0.45270  -0.43041  -0.42598  -0.38688
  Beta  occ. eigenvalues --   -0.38369  -0.37540  -0.35482  -0.35264  -0.34474
  Beta  occ. eigenvalues --   -0.33267  -0.32802  -0.32581  -0.31706  -0.31132
  Beta  occ. eigenvalues --   -0.30549  -0.29455  -0.29258  -0.28926  -0.28341
  Beta  occ. eigenvalues --   -0.27017  -0.26004  -0.25037  -0.24910  -0.24620
  Beta  occ. eigenvalues --   -0.23871  -0.23595  -0.22524  -0.19442  -0.14758
  Beta  occ. eigenvalues --   -0.13772  -0.11824
  Beta virt. eigenvalues --    0.06152   0.06807   0.07159   0.07260   0.08288
  Beta virt. eigenvalues --    0.08552   0.09014   0.09055   0.09177   0.10216
  Beta virt. eigenvalues --    0.10289   0.10948   0.11305   0.11462   0.11523

 Mulliken charges and spin densities:
               1          2
     1  C    0.375531  -0.898105
     2  C   -0.365037   0.033864
     3  C   -0.174231  -0.100008
     4  N    0.181231   0.037548
     5  C    0.466045  -1.095502
     6  C    2.233105  -2.410394
     7  C   -2.118661   1.452479
     8  N    0.226157   0.039022
     9  C   -0.357020  -0.436655
    10  C   -0.028245   0.703184
    11  C   -0.312638   0.207659
    12  C    1.313752  -1.700886
    13  O   -0.318461   0.041465
    14  C   -0.392523   0.784266
    15  C   -0.065039  -0.383332
    16  C   -0.350113  -0.417547
    17  H   -0.286977   0.429507
    18  H   -0.177618   0.319788
    19  H   -0.092285   0.238070
    20  H    0.108926   0.034905
    21  H    0.034301   0.089282
    22  H    0.048305   0.064099
    23  H    0.202793  -0.024837
    24  H    0.524271  -0.322013
    25  H    0.245587  -0.063796
    26  H   -0.659120   0.876818
    27  H   -0.069317   0.233195
    28  H   -0.059613   0.212379
    29  H   -0.296214   0.485977
    30  H   -0.767526   0.928916
    31  H   -0.449691   0.635736
    32  H   -0.129718   0.295677
    33  H    0.211361   0.053092
    34  H   -0.252135   0.396962
    35  H    0.054196   0.058039
    36  H    0.054881   0.081592
    37  H    0.098403   0.049681
    38  H    0.340229  -0.197023
    39  H   -0.031115   0.169088
    40  H    0.034224   0.097808
 Sum of Mulliken charges =  -1.00000   1.00000

 Dipole moment (field-independent basis, Debye):
    X=             -4.0688    Y=              3.6577    Z=              6.6283  Tot=              8.5947
 Quadrupole moment (field-independent basis, Debye-Ang):
   XX=           -186.6332   YY=           -150.1003   ZZ=           -145.3507
   XY=              3.1746   XZ=              4.7081   YZ=             -7.4042

 Summary of Natural Population Analysis:

                                       Natural Population
                Natural  -----------------------------------------------
    Atom  No    Charge         Core      Valence    Rydberg      Total
 -----------------------------------------------------------------------
      C    1   -0.29008      0.99967     2.28497    0.00544     3.29008
      C    2   -0.19109      0.99964     2.18408    0.00737     3.19109
      C    3   -0.08507      0.99962     2.07634    0.00911     3.08507
      N    4   -0.34118      0.99974     2.83047    0.01097     3.84118
      C    5   -0.01026      0.99954     1.99735    0.01337     3.01026
      C    6   -0.06528      0.99951     2.05290    0.01287     3.06528
      C    7   -0.01578      0.99947     2.00286    0.01345     3.01578
      N    8   -0.20402      0.99966     2.69200    0.01236     3.70402
      C    9   -0.03225      0.99955     2.01892    0.01377     3.03225
      C   10   -0.14208      0.99951     2.13432    0.00825     3.14208
      C   11   -0.09425      0.99960     2.08213    0.01252     3.09425
      C   12   -0.01267      0.99961     2.00076    0.01229     3.01267
      O   13   -0.36889      0.99990     3.36229    0.00670     4.36889
      C   14   -0.11193      0.99960     2.10157    0.01076     3.11193
      C   15   -0.28411      0.99965     2.27952    0.00494     3.28411
      C   16   -0.28305      0.99965     2.27869    0.00470     3.28305
      H   17    0.09753      0.00000     0.40130    0.00118     0.40247
      H   18    0.09792      0.00000     0.40116    0.00092     0.40208
      H   19    0.09921      0.00000     0.39949    0.00129     0.40079
      H   20    0.09458      0.00000     0.40401    0.00141     0.40542
      H   21    0.09258      0.00000     0.40620    0.00122     0.40742
      H   22    0.08793      0.00000     0.41088    0.00119     0.41207
      H   23    0.08487      0.00000     0.41341    0.00172     0.41513
      H   24    0.17220      0.00000     0.32398    0.00382     0.32780
      H   25    0.09079      0.00000     0.40742    0.00179     0.40921
      H   26    0.10675      0.00000     0.39070    0.00256     0.39325
      H   27    0.10382      0.00000     0.39523    0.00095     0.39618
      H   28    0.10304      0.00000     0.39616    0.00080     0.39696
      H   29    0.10145      0.00000     0.39688    0.00167     0.39855
      H   30    0.11051      0.00000     0.38444    0.00505     0.38949
      H   31    0.09103      0.00000     0.40709    0.00188     0.40897
      H   32    0.07947      0.00000     0.41894    0.00159     0.42053
      H   33    0.23114      0.00000     0.26556    0.00330     0.26886
      H   34    0.09419      0.00000     0.40372    0.00209     0.40581
      H   35    0.09174      0.00000     0.40741    0.00086     0.40826
      H   36    0.09490      0.00000     0.40428    0.00081     0.40510
      H   37    0.11026      0.00000     0.38862    0.00112     0.38974
      H   38    0.10577      0.00000     0.39321    0.00103     0.39423
      H   39    0.09740      0.00000     0.40180    0.00080     0.40260
      H   40    0.09291      0.00000     0.40620    0.00089     0.40709
 =======================================================================
   * Total *    0.00000     15.99392    45.80727    0.19881    62.00000

 Normal termination of Gaussian 16 at Thu Dec 10 22:11:58 2020.
