 Gaussian 16, Revision A.03,

 -----------------------------------------------------------
 # opt freq B3LYP/6-31G(d) empiricaldispersion=gd3bj scf=xqc
 -----------------------------------------------------------

 ------------------------------
 CID_82312122_JID_6073_neutraal
 ------------------------------
 Symbolic Z-matrix:
 Charge =  0 Multiplicity = 1

 SCF Done:  E(RB3LYP) =  -713.266403006     A.U. after   13 cycles
 SCF Done:  E(RB3LYP) =  -713.273039198     A.U. after   12 cycles
 SCF Done:  E(RB3LYP) =  -713.275188197     A.U. after   12 cycles
 SCF Done:  E(RB3LYP) =  -713.274784196     A.U. after   12 cycles
 SCF Done:  E(RB3LYP) =  -713.275649786     A.U. after   12 cycles
 SCF Done:  E(RB3LYP) =  -713.276116974     A.U. after   11 cycles
 SCF Done:  E(RB3LYP) =  -713.276256851     A.U. after   10 cycles
 SCF Done:  E(RB3LYP) =  -713.276273777     A.U. after   11 cycles
 SCF Done:  E(RB3LYP) =  -713.276300414     A.U. after   10 cycles
 SCF Done:  E(RB3LYP) =  -713.276304072     A.U. after    8 cycles
 SCF Done:  E(RB3LYP) =  -713.276304925     A.U. after    8 cycles
 SCF Done:  E(RB3LYP) =  -713.276304998     A.U. after    7 cycles
 SCF Done:  E(RB3LYP) =  -713.276305033     A.U. after    7 cycles
 Optimization completed.
    -- Stationary point found.
 Normal termination of Gaussian 16 at Thu Dec 10 21:12:07 2020.

 --------------------------------------------------------------------
 #N Geom=AllCheck Guess=TCheck SCRF=Check GenChk RB3LYP/6-31G(d) Freq
 --------------------------------------------------------------------

 Structure from the checkpoint file:  "JID_6073.chk"
 ------------------------------
 CID_82312122_JID_6073_neutraal
 ------------------------------
 Charge =  0 Multiplicity = 1

 SCF Done:  E(RB3LYP) =  -713.276305033     A.U. after    1 cycles

  Exact polarizability: 168.083  -7.639 145.375  24.237   9.449 120.794
 Approx polarizability: 222.738 -12.431 233.076  43.001  16.703 189.025

                      1                      2                      3
                      A                      A                      A
 Frequencies --     34.9981                47.0351                58.6693
 Red. masses --      3.8382                 4.4013                 3.9142
 Frc consts  --      0.0028                 0.0057                 0.0079
 IR Inten    --      0.8686                 0.9967                 0.7099

                      4                      5                      6
                      A                      A                      A
 Frequencies --     98.9644               116.2665               147.2536
 Red. masses --      4.3384                 3.9901                 3.9474
 Frc consts  --      0.0250                 0.0318                 0.0504
 IR Inten    --      3.0295                 0.9125                 4.0125

                      7                      8                      9
                      A                      A                      A
 Frequencies --    190.2886               211.7676               228.3684
 Red. masses --      3.0354                 3.0849                 1.3032
 Frc consts  --      0.0648                 0.0815                 0.0400
 IR Inten    --      1.5654                 1.7210                 2.3567

                     10                     11                     12
                      A                      A                      A
 Frequencies --    233.8169               251.1770               271.9299
 Red. masses --      2.6167                 3.0403                 2.7408
 Frc consts  --      0.0843                 0.1130                 0.1194
 IR Inten    --      3.7952                 5.0972                 0.0410

                     13                     14                     15
                      A                      A                      A
 Frequencies --    281.5272               295.4942               311.8110
 Red. masses --      1.2135                 1.1321                 1.6109
 Frc consts  --      0.0567                 0.0582                 0.0923
 IR Inten    --      5.6224                 0.5127                50.6833

                     16                     17                     18
                      A                      A                      A
 Frequencies --    334.2934               363.6509               380.2272
 Red. masses --      1.3390                 2.4359                 3.3470
 Frc consts  --      0.0882                 0.1898                 0.2851
 IR Inten    --    125.2368                 0.7622                 8.5562

                     19                     20                     21
                      A                      A                      A
 Frequencies --    407.8648               422.3317               428.8724
 Red. masses --      2.9656                 3.0162                 2.6959
 Frc consts  --      0.2907                 0.3170                 0.2922
 IR Inten    --      0.2950                 1.4562                 1.1618

                     22                     23                     24
                      A                      A                      A
 Frequencies --    468.3568               503.6037               524.7207
 Red. masses --      3.1441                 2.8281                 2.8978
 Frc consts  --      0.4064                 0.4226                 0.4701
 IR Inten    --      0.2100                 2.7404                10.0976

                     25                     26                     27
                      A                      A                      A
 Frequencies --    547.7936               577.7123               636.5438
 Red. masses --      2.1593                 3.3885                 5.8522
 Frc consts  --      0.3818                 0.6663                 1.3971
 IR Inten    --      9.7096                 1.3631                 1.2771

                     28                     29                     30
                      A                      A                      A
 Frequencies --    637.7233               668.2289               687.5551
 Red. masses --      1.5968                 2.1651                 2.4229
 Frc consts  --      0.3826                 0.5696                 0.6748
 IR Inten    --     50.0784                22.5374                56.7709

                     31                     32                     33
                      A                      A                      A
 Frequencies --    722.2373               768.4223               790.9212
 Red. masses --      1.8048                 2.0262                 3.0235
 Frc consts  --      0.5547                 0.7049                 1.1144
 IR Inten    --     30.5865                30.3789                 0.3669

                     34                     35                     36
                      A                      A                      A
 Frequencies --    837.5012               867.3612               887.9698
 Red. masses --      3.1124                 1.2432                 2.0708
 Frc consts  --      1.2862                 0.5511                 0.9620
 IR Inten    --      1.8814                 0.0912                10.8442

                     37                     38                     39
                      A                      A                      A
 Frequencies --    911.7982               920.3971               942.3490
 Red. masses --      1.7236                 1.7575                 1.5883
 Frc consts  --      0.8443                 0.8772                 0.8310
 IR Inten    --     10.0505                 6.5297                 1.7750

                     40                     41                     42
                      A                      A                      A
 Frequencies --    950.3774               975.3968               994.9901
 Red. masses --      1.5095                 1.3375                 1.6788
 Frc consts  --      0.8033                 0.7498                 0.9792
 IR Inten    --      1.1599                 0.1599                 4.2097

                     43                     44                     45
                      A                      A                      A
 Frequencies --    998.1067              1011.1064              1022.0590
 Red. masses --      1.2470                 1.7380                 5.9443
 Frc consts  --      0.7319                 1.0469                 3.6585
 IR Inten    --      0.7031                 0.4456                 0.5531

                     46                     47                     48
                      A                      A                      A
 Frequencies --   1053.2811              1060.6178              1072.8647
 Red. masses --      1.4352                 2.2546                 2.4836
 Frc consts  --      0.9381                 1.4943                 1.6843
 IR Inten    --      3.4292                 4.5648                 8.7853

                     49                     50                     51
                      A                      A                      A
 Frequencies --   1097.0848              1104.5640              1123.0830
 Red. masses --      2.4535                 2.8327                 2.0834
 Frc consts  --      1.7399                 2.0362                 1.5483
 IR Inten    --     97.2143                36.9852                11.1872

                     52                     53                     54
                      A                      A                      A
 Frequencies --   1146.6139              1159.5321              1194.4091
 Red. masses --      2.7500                 2.0987                 1.1045
 Frc consts  --      2.1302                 1.6625                 0.9283
 IR Inten    --      7.2405                32.6376                 1.2237

                     55                     56                     57
                      A                      A                      A
 Frequencies --   1204.6250              1210.1967              1217.1515
 Red. masses --      1.6649                 1.4263                 1.3543
 Frc consts  --      1.4234                 1.2308                 1.1821
 IR Inten    --     40.3705                29.5579                13.8594

                     58                     59                     60
                      A                      A                      A
 Frequencies --   1228.6651              1252.9303              1264.4898
 Red. masses --      2.6516                 1.4879                 1.7186
 Frc consts  --      2.3584                 1.3762                 1.6190
 IR Inten    --      3.3172                15.3644                31.5305

                     61                     62                     63
                      A                      A                      A
 Frequencies --   1287.5055              1327.1523              1349.7244
 Red. masses --      1.8274                 1.7082                 1.2521
 Frc consts  --      1.7848                 1.7727                 1.3440
 IR Inten    --     30.6880                10.3750                 1.9100

                     64                     65                     66
                      A                      A                      A
 Frequencies --   1365.3204              1368.1516              1374.1460
 Red. masses --      1.7481                 2.2813                 1.2472
 Frc consts  --      1.9199                 2.5159                 1.3876
 IR Inten    --     14.5999                 0.8444                19.5375

                     67                     68                     69
                      A                      A                      A
 Frequencies --   1401.3062              1426.7293              1437.2300
 Red. masses --      1.2995                 1.2808                 1.2590
 Frc consts  --      1.5034                 1.5361                 1.5323
 IR Inten    --      5.6221                 7.7180                11.3230

                     70                     71                     72
                      A                      A                      A
 Frequencies --   1440.0600              1455.8346              1476.6620
 Red. masses --      1.2449                 1.5307                 1.2407
 Frc consts  --      1.5210                 1.9115                 1.5940
 IR Inten    --     13.6489                31.4043                66.9322

                     73                     74                     75
                      A                      A                      A
 Frequencies --   1500.9462              1508.5066              1515.5655
 Red. masses --      1.8703                 1.2285                 1.0557
 Frc consts  --      2.4825                 1.6471                 1.4286
 IR Inten    --      7.8278                41.4686                 5.7785

                     76                     77                     78
                      A                      A                      A
 Frequencies --   1521.0360              1527.6694              1536.3106
 Red. masses --      1.0478                 1.0524                 1.0557
 Frc consts  --      1.4283                 1.4471                 1.4681
 IR Inten    --      2.6597                10.2027                13.7545

                     79                     80                     81
                      A                      A                      A
 Frequencies --   1539.1775              1548.4067              1549.5138
 Red. masses --      1.1055                 2.2528                 1.1001
 Frc consts  --      1.5431                 3.1823                 1.5562
 IR Inten    --      4.9723                 7.1752                 3.0757

                     82                     83                     84
                      A                      A                      A
 Frequencies --   1551.1024              1646.4125              1669.3143
 Red. masses --      1.0919                 5.5760                 5.5810
 Frc consts  --      1.5478                 8.9053                 9.1630
 IR Inten    --     27.6072                 0.9481                 1.8600

                     85                     86                     87
                      A                      A                      A
 Frequencies --   2964.9714              2992.5079              3022.8376
 Red. masses --      1.0732                 1.0836                 1.0802
 Frc consts  --      5.5586                 5.7175                 5.8157
 IR Inten    --     62.3885                42.5172                26.1390

                     88                     89                     90
                      A                      A                      A
 Frequencies --   3046.7181              3050.6420              3052.7132
 Red. masses --      1.0389                 1.0389                 1.0403
 Frc consts  --      5.6821                 5.6964                 5.7116
 IR Inten    --     38.0274                34.5649                 8.6257

                     91                     92                     93
                      A                      A                      A
 Frequencies --   3080.8108              3104.0555              3118.7476
 Red. masses --      1.0899                 1.0994                 1.0983
 Frc consts  --      6.0949                 6.2411                 6.2939
 IR Inten    --     36.4305                44.1125                36.0213

                     94                     95                     96
                      A                      A                      A
 Frequencies --   3121.9717              3135.2397              3141.4867
 Red. masses --      1.0983                 1.1019                 1.1032
 Frc consts  --      6.3069                 6.3814                 6.4144
 IR Inten    --     26.1125                22.7398                22.3916

                     97                     98                     99
                      A                      A                      A
 Frequencies --   3148.5088              3182.4160              3189.4828
 Red. masses --      1.1016                 1.0851                 1.0880
 Frc consts  --      6.4341                 6.4746                 6.5212
 IR Inten    --     16.8221                 2.6768                 2.9050

                    100                    101                    102
                      A                      A                      A
 Frequencies --   3199.1763              3210.5699              3223.3944
 Red. masses --      1.0924                 1.0965                 1.0928
 Frc consts  --      6.5873                 6.6590                 6.6898
 IR Inten    --     30.4238                27.3559                 4.3108

                    103                    104                    105
                      A                      A                      A
 Frequencies --   3541.6813              3570.2275              3763.0603
 Red. masses --      1.0745                 1.0643                 1.0659
 Frc consts  --      7.9409                 7.9928                 8.8932
 IR Inten    --     34.5029               100.2982                11.7740

 - Thermochemistry -
 -------------------
 Temperature   298.150 Kelvin.  Pressure   1.00000 Atm.
 Atom     1 has atomic number  6 and mass  12.00000

 Molecular mass:   223.15723 amu.
 Principal axes and moments of inertia in atomic units:
                           1         2         3
     Eigenvalues --  2078.792375714.398705848.98705
           X            0.99982  -0.01693   0.00835
           Y            0.01488   0.97894   0.20362
           Z           -0.01162  -0.20346   0.97902
 This molecule is an asymmetric top.
 Rotational symmetry number  1.
 Warning -- assumption of classical behavior for rotation
           may cause significant error
 Rotational temperatures (Kelvin)      0.04167     0.01516     0.01481
 Rotational constants (GHZ):           0.86817     0.31582     0.30856
 Zero-point vibrational energy     858589.5 (Joules/Mol)
                                  205.20781 (Kcal/Mol)
 Warning -- explicit consideration of  26 degrees of freedom as
           vibrations may cause significant error
 Vibrational temperatures:     50.35    67.67    84.41   142.39   167.28
          (Kelvin)            211.87   273.78   304.69   328.57   336.41
                              361.39   391.25   405.05   425.15   448.63
                              480.97   523.21   547.06   586.83   607.64
                              617.05   673.86   724.57   754.96   788.15
                              831.20   915.84   917.54   961.43   989.24
                             1039.14  1105.59  1137.96  1204.98  1247.94
                             1277.59  1311.87  1324.25  1355.83  1367.38
                             1403.38  1431.57  1436.05  1454.76  1470.51
                             1515.44  1525.99  1543.61  1578.46  1589.22
                             1615.87  1649.72  1668.31  1718.49  1733.19
                             1741.20  1751.21  1767.78  1802.69  1819.32
                             1852.43  1909.48  1941.95  1964.39  1968.47
                             1977.09  2016.17  2052.75  2067.85  2071.93
                             2094.62  2124.59  2159.53  2170.40  2180.56
                             2188.43  2197.98  2210.41  2214.53  2227.81
                             2229.40  2231.69  2368.82  2401.77  4265.93
                             4305.55  4349.19  4383.55  4389.19  4392.17
                             4432.60  4466.04  4487.18  4491.82  4510.91
                             4519.90  4530.00  4578.79  4588.95  4602.90
                             4619.29  4637.75  5095.69  5136.76  5414.20

 Zero-point correction=                           0.327019 (Hartree/Particle)
 Thermal correction to Energy=                    0.343605
 Thermal correction to Enthalpy=                  0.344549
 Thermal correction to Gibbs Free Energy=         0.283509
 Sum of electronic and zero-point Energies=           -712.949286
 Sum of electronic and thermal Energies=              -712.932700
 Sum of electronic and thermal Enthalpies=            -712.931756
 Sum of electronic and thermal Free Energies=         -712.992796

                     E (Thermal)             CV                S
                      KCal/Mol        Cal/Mol-Kelvin    Cal/Mol-Kelvin
 Total                  215.615             65.247            128.469
 Electronic               0.000              0.000              0.000
 Translational            0.889              2.981             42.111
 Rotational               0.889              2.981             32.607
 Vibrational            213.838             59.285             53.751
 Vibration     1          0.594              1.982              5.524
 Vibration     2          0.595              1.979              4.938
 Vibration     3          0.596              1.974              4.501
 Vibration     4          0.604              1.950              3.475
 Vibration     5          0.608              1.936              3.162
 Vibration     6          0.617              1.906              2.707
 Vibration     7          0.634              1.853              2.225
 Vibration     8          0.643              1.823              2.028
 Vibration     9          0.651              1.798              1.892
 Vibration    10          0.654              1.789              1.849
 Vibration    11          0.663              1.761              1.722
 Vibration    12          0.675              1.725              1.584
 Vibration    13          0.681              1.708              1.524
 Vibration    14          0.690              1.682              1.442
 Vibration    15          0.700              1.651              1.353
 Vibration    16          0.716              1.607              1.239
 Vibration    17          0.737              1.547              1.106
 Vibration    18          0.750              1.512              1.038
 Vibration    19          0.772              1.453              0.934
 Vibration    20          0.785              1.422              0.884
 Vibration    21          0.790              1.407              0.862
 Vibration    22          0.826              1.320              0.742
 Vibration    23          0.859              1.242              0.649
 Vibration    24          0.880              1.195              0.599
 Vibration    25          0.903              1.145              0.549
 Vibration    26          0.934              1.079              0.490

 Optimization completed.
    -- Stationary point found.
 Normal termination of Gaussian 16 at Thu Dec 10 21:25:52 2020.

 ----------------------------------------------------------------------
 # B3LYP/6-311++G(d,p) empiricaldispersion=gd3bj scf=xqc pop=npa geom=c
 heck
 ----------------------------------------------------------------------

 --------------------------------------
 CID_82312122_JID_6073_Energie_neutraal
 --------------------------------------
 Structure from the checkpoint file:  "JID_6073.chk"
 Charge =  0 Multiplicity = 1

 SCF Done:  E(RB3LYP) =  -713.493722746     A.U. after   15 cycles
 Normal termination of Gaussian 16 at Thu Dec 10 21:32:29 2020.

 ----------------------------------------------------------------------
 # B3LYP/6-311++G(d,p) empiricaldispersion=gd3bj scf=xqc pop=npa geom=c
 heck
 ----------------------------------------------------------------------

 ------------------------------------
 CID_82312122_JID_6073_Energie_kation
 ------------------------------------
 Structure from the checkpoint file:  "JID_6073.chk"
 Charge =  1 Multiplicity = 2

 SCF Done:  E(UB3LYP) =  -713.192324949     A.U. after   25 cycles
 Normal termination of Gaussian 16 at Thu Dec 10 21:49:07 2020.
 Gaussian 16:  ES64L-G16RevA.03 25-Dec-2016

 ----------------------------------------------------------------------
 # B3LYP/6-311++G(d,p) empiricaldispersion=gd3bj scf=xqc pop=npa geom=c
 heck
 ----------------------------------------------------------------------

 -----------------------------------
 CID_82312122_JID_6073_Energie_anion
 -----------------------------------
 Structure from the checkpoint file:  "JID_6073.chk"
 Charge = -1 Multiplicity = 2

                         Standard orientation:
 ---------------------------------------------------------------------
 Center     Atomic      Atomic             Coordinates (Angstroms)
 Number     Number       Type             X           Y           Z
 ---------------------------------------------------------------------
      1          6           0        0.282010    2.354418    0.171718
      2          6           0        0.534438    0.953107    0.740902
      3          6           0       -0.710065    0.385482    1.485979
      4          6           0       -1.859936    0.062928    0.557273
      5          6           0       -2.020004   -1.228218    0.038988
      6          6           0       -3.044888   -1.505253   -0.866916
      7          6           0       -3.925348   -0.498385   -1.261885
      8          6           0       -3.783389    0.786711   -0.735304
      9          6           0       -2.760544    1.062378    0.170664
     10          8           0       -0.382174   -0.807540    2.193350
     11          7           0        1.015734    0.053594   -0.312560
     12          6           0        2.337757   -0.594761   -0.190655
     13          6           0        2.613686   -1.282452    1.156109
     14          6           0        2.412588   -1.633476   -1.317865
     15          6           0        3.380070    0.519601   -0.440318
     16          8           0        3.078295    1.240962   -1.616974
     17          1           0       -0.461128    2.314343   -0.630123
     18          1           0        1.211490    2.750007   -0.248234
     19          1           0       -0.072135    3.049607    0.942930
     20          1           0        1.315320    1.052829    1.507798
     21          1           0       -1.039262    1.164239    2.192049
     22          1           0       -1.355475   -2.016464    0.375531
     23          1           0       -3.158762   -2.512453   -1.258260
     24          1           0       -4.723997   -0.714877   -1.965634
     25          1           0       -4.474439    1.573774   -1.023801
     26          1           0       -2.664705    2.060973    0.588141
     27          1           0        0.437093   -0.643297    2.683426
     28          1           0        0.301398   -0.621733   -0.565286
     29          1           0        1.848932   -2.035498    1.367844
     30          1           0        3.591461   -1.777005    1.136952
     31          1           0        2.636971   -0.566021    1.986126
     32          1           0        2.282464   -1.150903   -2.289806
     33          1           0        3.383669   -2.138463   -1.311213
     34          1           0        1.634600   -2.396932   -1.194321
     35          1           0        3.409005    1.188945    0.437873
     36          1           0        4.380094    0.084506   -0.549989
     37          1           0        2.100035    1.199413   -1.657241
 ---------------------------------------------------------------------

 SCF Done:  E(UB3LYP) =  -713.483979852     A.U. after   33 cycles
 SCF Done:  E(UB3LYP) =  -713.483979852     a.u. after    1 cycles

 The electronic state is 2-A.
 Alpha  occ. eigenvalues --  -19.02851 -19.01577 -14.20683 -10.13292 -10.11921
 Alpha  occ. eigenvalues --  -10.11482 -10.11066 -10.08926 -10.08537 -10.08509
 Alpha  occ. eigenvalues --  -10.08356 -10.08273 -10.08073 -10.06997 -10.06488
 Alpha  occ. eigenvalues --  -10.06303  -0.93457  -0.92439  -0.81956  -0.76791
 Alpha  occ. eigenvalues --   -0.70896  -0.67221  -0.65749  -0.63948  -0.60168
 Alpha  occ. eigenvalues --   -0.58327  -0.57846  -0.52061  -0.51911  -0.48888
 Alpha  occ. eigenvalues --   -0.47718  -0.42954  -0.42165  -0.40119  -0.39451
 Alpha  occ. eigenvalues --   -0.37405  -0.36731  -0.36348  -0.35051  -0.34134
 Alpha  occ. eigenvalues --   -0.33855  -0.32865  -0.32707  -0.31444  -0.31022
 Alpha  occ. eigenvalues --   -0.30117  -0.29037  -0.28606  -0.27692  -0.27553
 Alpha  occ. eigenvalues --   -0.26827  -0.26050  -0.25160  -0.24538  -0.22934
 Alpha  occ. eigenvalues --   -0.22361  -0.19088  -0.17454  -0.16628  -0.16035
 Alpha  occ. eigenvalues --   -0.13923   0.04021
 Alpha virt. eigenvalues --    0.05803   0.06426   0.07286   0.07348   0.07685
 Alpha virt. eigenvalues --    0.07950   0.08580   0.09418   0.09629   0.10165
 Alpha virt. eigenvalues --    0.10608   0.11138   0.11899   0.12206   0.12624

  Beta  occ. eigenvalues --  -19.02827 -19.01575 -14.20678 -10.13279 -10.11915
  Beta  occ. eigenvalues --  -10.11468 -10.11044 -10.08905 -10.08530 -10.08494
  Beta  occ. eigenvalues --  -10.08330 -10.08255 -10.08066 -10.06982 -10.06445
  Beta  occ. eigenvalues --  -10.06287  -0.93406  -0.92434  -0.81938  -0.76748
  Beta  occ. eigenvalues --   -0.70860  -0.67169  -0.65710  -0.63908  -0.60122
  Beta  occ. eigenvalues --   -0.58272  -0.57800  -0.52002  -0.51875  -0.48839
  Beta  occ. eigenvalues --   -0.47676  -0.42910  -0.42107  -0.40087  -0.39405
  Beta  occ. eigenvalues --   -0.37369  -0.36686  -0.36307  -0.35011  -0.34092
  Beta  occ. eigenvalues --   -0.33828  -0.32836  -0.32678  -0.31414  -0.30995
  Beta  occ. eigenvalues --   -0.30086  -0.29003  -0.28587  -0.27638  -0.27516
  Beta  occ. eigenvalues --   -0.26784  -0.26012  -0.25128  -0.24503  -0.22896
  Beta  occ. eigenvalues --   -0.22344  -0.19045  -0.17442  -0.16572  -0.15939
  Beta  occ. eigenvalues --   -0.13897
  Beta virt. eigenvalues --    0.06085   0.06791   0.07071   0.07414   0.07609
  Beta virt. eigenvalues --    0.08332   0.08438   0.08919   0.09716   0.10049
  Beta virt. eigenvalues --    0.10421   0.10755   0.11402   0.12179   0.12615

 Mulliken charges and spin densities:
               1          2
     1  C    0.308201  -1.218635
     2  C    0.351911  -0.226021
     3  C    2.020085  -2.360521
     4  C   -1.096956   1.408629
     5  C   -0.680070   0.881914
     6  C    0.046338  -0.347092
     7  C    0.764479  -1.191159
     8  C    0.028093  -0.318950
     9  C   -0.919229   0.477409
    10  O   -0.086650  -0.019659
    11  N    0.074920  -0.049824
    12  C   -1.627762   1.524747
    13  C    0.959347  -1.494142
    14  C    0.061081  -0.382134
    15  C    0.189377  -0.652238
    16  O   -0.222174   0.006391
    17  H    0.186136  -0.013298
    18  H    0.103447   0.031364
    19  H   -0.213727   0.363475
    20  H    0.091543   0.103146
    21  H   -0.618787   0.866125
    22  H    0.089348   0.146191
    23  H   -0.204869   0.377873
    24  H   -0.193961   0.344432
    25  H   -0.454364   0.637334
    26  H   -0.048117   0.211518
    27  H    0.111345   0.137174
    28  H    0.462890  -0.235789
    29  H    0.084707   0.092547
    30  H   -0.193652   0.344571
    31  H   -0.700957   0.855772
    32  H    0.103407   0.056821
    33  H   -0.022523   0.163300
    34  H    0.011379   0.120446
    35  H   -0.085209   0.236427
    36  H    0.060470   0.110134
    37  H    0.260499   0.011723
 Sum of Mulliken charges =  -1.00000   1.00000

 Dipole moment (field-independent basis, Debye):
    X=             -0.0297    Y=             -1.5394    Z=             -3.2909  Tot=              3.6332
 Quadrupole moment (field-independent basis, Debye-Ang):
   XX=           -175.2515   YY=           -138.1533   ZZ=           -149.6308
   XY=              0.3337   XZ=             -5.4569   YZ=             -1.3371

 Summary of Natural Population Analysis:

                                       Natural Population
                Natural  -----------------------------------------------
    Atom  No    Charge         Core      Valence    Rydberg      Total
 -----------------------------------------------------------------------
      C    1   -0.28980      0.99964     2.28360    0.00656     3.28980
      C    2   -0.02254      0.99958     2.00809    0.01487     3.02254
      C    3    0.05920      0.99948     1.92601    0.01532     2.94080
      C    4   -0.02210      0.99948     2.01072    0.01190     3.02210
      C    5   -0.12184      0.99953     2.10751    0.01480     3.12184
      C    6   -0.06484      0.99957     2.05837    0.00690     3.06484
      C    7   -0.11708      0.99958     2.10234    0.01516     3.11708
      C    8   -0.10009      0.99956     2.09076    0.00977     3.10009
      C    9   -0.09642      0.99951     2.08765    0.00926     3.09642
      O   10   -0.37172      0.99989     3.36575    0.00608     4.37172
      N   11   -0.36874      0.99969     2.85699    0.01205     3.86874
      C   12    0.04876      0.99958     1.93822    0.01344     2.95124
      C   13   -0.29894      0.99961     2.29184    0.00750     3.29894
      C   14   -0.28833      0.99962     2.28158    0.00714     3.28833
      C   15   -0.01162      0.99952     1.99820    0.01389     3.01162
      O   16   -0.38011      0.99990     3.37351    0.00670     4.38011
      H   17    0.10184      0.00000     0.39698    0.00118     0.39816
      H   18    0.10302      0.00000     0.39582    0.00116     0.39698
      H   19    0.10014      0.00000     0.39878    0.00108     0.39986
      H   20    0.09690      0.00000     0.39929    0.00380     0.40310
      H   21    0.08908      0.00000     0.40817    0.00275     0.41092
      H   22    0.11146      0.00000     0.38704    0.00149     0.38854
      H   23    0.09571      0.00000     0.40309    0.00120     0.40429
      H   24    0.10024      0.00000     0.39879    0.00097     0.39976
      H   25    0.10134      0.00000     0.39759    0.00107     0.39866
      H   26    0.10360      0.00000     0.39485    0.00155     0.39640
      H   27    0.23543      0.00000     0.26038    0.00419     0.26457
      H   28    0.18930      0.00000     0.30690    0.00380     0.31070
      H   29    0.10660      0.00000     0.39218    0.00122     0.39340
      H   30    0.10275      0.00000     0.39612    0.00113     0.39725
      H   31    0.10154      0.00000     0.39639    0.00207     0.39846
      H   32    0.10646      0.00000     0.39249    0.00106     0.39354
      H   33    0.10160      0.00000     0.39770    0.00070     0.39840
      H   34    0.09837      0.00000     0.40071    0.00092     0.40163
      H   35    0.07830      0.00000     0.42038    0.00132     0.42170
      H   36    0.08569      0.00000     0.41316    0.00116     0.41431
      H   37    0.23725      0.00000     0.25954    0.00321     0.26275
 =======================================================================
   * Total *    0.00043     15.99375    44.79745    0.20836    60.99957

 Normal termination of Gaussian 16 at Thu Dec 10 22:11:54 2020.
