 Gaussian 16, Revision A.03,

 -----------------------------------------------------------
 # opt freq B3LYP/6-31G(d) empiricaldispersion=gd3bj scf=xqc
 -----------------------------------------------------------

 -------------------------------
 CID_151832903_JID_1650_neutraal
 -------------------------------
 Symbolic Z-matrix:
 Charge =  0 Multiplicity = 1

 SCF Done:  E(RB3LYP) =  -503.074299269     A.U. after   14 cycles
 SCF Done:  E(RB3LYP) =  -503.077333910     A.U. after   13 cycles
 SCF Done:  E(RB3LYP) =  -503.076996315     A.U. after   13 cycles
 SCF Done:  E(RB3LYP) =  -503.077618782     A.U. after   13 cycles
 SCF Done:  E(RB3LYP) =  -503.078235889     A.U. after   13 cycles
 SCF Done:  E(RB3LYP) =  -503.078228927     A.U. after   12 cycles
 SCF Done:  E(RB3LYP) =  -503.078393062     A.U. after   12 cycles
 SCF Done:  E(RB3LYP) =  -503.078419456     A.U. after   12 cycles
 SCF Done:  E(RB3LYP) =  -503.078511538     A.U. after   11 cycles
 SCF Done:  E(RB3LYP) =  -503.078559495     A.U. after   12 cycles
 SCF Done:  E(RB3LYP) =  -503.078574427     A.U. after   10 cycles
 SCF Done:  E(RB3LYP) =  -503.078577124     A.U. after    9 cycles
 SCF Done:  E(RB3LYP) =  -503.078578995     A.U. after    9 cycles
 SCF Done:  E(RB3LYP) =  -503.078580060     A.U. after    9 cycles
 SCF Done:  E(RB3LYP) =  -503.078580370     A.U. after    9 cycles
 SCF Done:  E(RB3LYP) =  -503.078580461     A.U. after    8 cycles
 Optimization completed.
    -- Stationary point found.

 1\1\GINC-NODE309\FOpt\RB3LYP\6-31G(d)\C9H16O2\VSC10255\08-Dec-2020\0\\
 # opt freq B3LYP/6-31G(d) empiricaldispersion=gd3bj scf=xqc\\CID_15183
 2903_JID_1650_neutraal\\0,1\C,0.8737290081,-0.0173297955,0.0906730216\
 C,0.4912847269,0.0959826108,-1.3997014482\C,1.1518884916,-1.083177436,
 -2.1065547976\O,0.7304174857,-2.221566874,-2.0763318259\C,2.4627040656
 ,-0.7625268129,-2.8577530027\C,2.1472205638,0.0131571142,-4.1221032761
 \O,2.0484645002,1.220061246,-4.1644599648\C,-1.0435655863,0.2176342691
 ,-1.6740039626\C,-1.5209859072,1.5908448225,-1.166139658\C,-1.28732644

 Normal termination of Gaussian 16 at Tue Dec  8 20:16:01 2020.

 --------------------------------------------------------------------
 #N Geom=AllCheck Guess=TCheck SCRF=Check GenChk RB3LYP/6-31G(d) Freq
 --------------------------------------------------------------------

 Structure from the checkpoint file:  "JID_1650.chk"
 -------------------------------
 CID_151832903_JID_1650_neutraal
 -------------------------------
 Charge =  0 Multiplicity = 1

 SCF Done:  E(RB3LYP) =  -503.078580461     A.U. after    1 cycles

  Exact polarizability: 104.096   1.190  94.985  -1.527   1.705  91.567
 Approx polarizability: 134.460   5.497 144.851   1.634  17.319 143.532

                      1                      2                      3
                      A                      A                      A
 Frequencies --     44.0074                50.0314                79.6222
 Red. masses --      4.3562                 3.7325                 5.7945
 Frc consts  --      0.0050                 0.0055                 0.0216
 IR Inten    --      3.0057                 3.3187                12.0736

                      4                      5                      6
                      A                      A                      A
 Frequencies --     81.6129               169.1907               198.2598
 Red. masses --      2.8887                 3.4017                 2.7579
 Frc consts  --      0.0113                 0.0574                 0.0639
 IR Inten    --      2.9220                 1.2983                 5.6040

                      7                      8                      9
                      A                      A                      A
 Frequencies --    219.5279               230.9515               262.2608
 Red. masses --      1.0263                 1.6106                 1.5628
 Frc consts  --      0.0291                 0.0506                 0.0633
 IR Inten    --      0.0292                 0.3280                 0.1755

                     10                     11                     12
                      A                      A                      A
 Frequencies --    273.4684               286.8025               299.4881
 Red. masses --      1.3289                 1.6296                 1.4936
 Frc consts  --      0.0586                 0.0790                 0.0789
 IR Inten    --      0.0670                 0.0974                 1.2176

                     13                     14                     15
                      A                      A                      A
 Frequencies --    317.8835               329.0872               374.0309
 Red. masses --      3.0882                 1.8457                 2.4202
 Frc consts  --      0.1839                 0.1178                 0.1995
 IR Inten    --      1.1800                 0.4626                 0.0831

                     16                     17                     18
                      A                      A                      A
 Frequencies --    409.9406               428.7270               489.2190
 Red. masses --      2.5476                 2.7392                 3.0823
 Frc consts  --      0.2522                 0.2966                 0.4346
 IR Inten    --      0.2660                 1.8426                 2.5869

                     19                     20                     21
                      A                      A                      A
 Frequencies --    525.9528               594.1231               714.5148
 Red. masses --      2.1659                 3.1152                 3.6845
 Frc consts  --      0.3530                 0.6479                 1.1083
 IR Inten    --     12.4894                10.1814                10.2005

                     22                     23                     24
                      A                      A                      A
 Frequencies --    736.0989               795.7710               878.5773
 Red. masses --      3.0586                 2.7540                 2.3108
 Frc consts  --      0.9765                 1.0275                 1.0509
 IR Inten    --      1.7597                 3.8893                12.0877

                     25                     26                     27
                      A                      A                      A
 Frequencies --    926.2391               943.6102               949.9995
 Red. masses --      2.4331                 1.8339                 1.7468
 Frc consts  --      1.2298                 0.9621                 0.9288
 IR Inten    --     39.1209                 6.8458                 1.4641

                     28                     29                     30
                      A                      A                      A
 Frequencies --    956.6928               979.1589              1007.6248
 Red. masses --      1.7618                 1.2002                 1.9860
 Frc consts  --      0.9501                 0.6779                 1.1880
 IR Inten    --     19.7344                 0.3490                 3.8725

                     31                     32                     33
                      A                      A                      A
 Frequencies --   1028.5455              1039.1670              1078.4712
 Red. masses --      1.6269                 1.5621                 1.5979
 Frc consts  --      1.0140                 0.9939                 1.0950
 IR Inten    --      5.7202                 1.6328                 4.9239

                     34                     35                     36
                      A                      A                      A
 Frequencies --   1089.2766              1114.1408              1143.9450
 Red. masses --      2.2864                 2.0076                 1.6811
 Frc consts  --      1.5984                 1.4683                 1.2962
 IR Inten    --    117.7757                 2.6551                25.0196

                     37                     38                     39
                      A                      A                      A
 Frequencies --   1220.3891              1251.5459              1262.2064
 Red. masses --      1.3642                 2.3066                 2.4922
 Frc consts  --      1.1971                 2.1287                 2.3393
 IR Inten    --     34.4215                15.5949                 2.9393

                     40                     41                     42
                      A                      A                      A
 Frequencies --   1274.0139              1284.8811              1367.1322
 Red. masses --      1.5219                 2.4608                 1.3722
 Frc consts  --      1.4554                 2.3936                 1.5110
 IR Inten    --     24.5279                12.2012                11.8614

                     43                     44                     45
                      A                      A                      A
 Frequencies --   1411.3624              1426.7371              1429.8892
 Red. masses --      1.3904                 1.2136                 1.2543
 Frc consts  --      1.6318                 1.4555                 1.5110
 IR Inten    --     24.8739                 5.1457                10.8615

                     46                     47                     48
                      A                      A                      A
 Frequencies --   1430.5594              1436.4472              1462.3647
 Red. masses --      1.1896                 1.2213                 1.2235
 Frc consts  --      1.4344                 1.4848                 1.5416
 IR Inten    --      8.9058                 5.3874                 7.6729

                     49                     50                     51
                      A                      A                      A
 Frequencies --   1489.3404              1512.0689              1518.8850
 Red. masses --      1.1022                 1.0482                 1.0484
 Frc consts  --      1.4404                 1.4121                 1.4251
 IR Inten    --      8.6929                 0.7185                 1.2875

                     52                     53                     54
                      A                      A                      A
 Frequencies --   1526.9310              1528.1678              1534.8931
 Red. masses --      1.0456                 1.0456                 1.0485
 Frc consts  --      1.4363                 1.4387                 1.4553
 IR Inten    --      3.3770                 1.1117                10.6222

                     55                     56                     57
                      A                      A                      A
 Frequencies --   1540.6022              1547.8375              1557.2765
 Red. masses --      1.0529                 1.0598                 1.0563
 Frc consts  --      1.4724                 1.4959                 1.5093
 IR Inten    --      9.0953                 4.1692                12.4710

                     58                     59                     60
                      A                      A                      A
 Frequencies --   1793.8451              1831.7979              2942.2098
 Red. masses --     10.2307                 9.5700                 1.0859
 Frc consts  --     19.3966                18.9199                 5.5383
 IR Inten    --    275.2630                14.3175                98.8569

                     61                     62                     63
                      A                      A                      A
 Frequencies --   3043.9872              3048.9149              3054.3720
 Red. masses --      1.0353                 1.0359                 1.0415
 Frc consts  --      5.6521                 5.6736                 5.7245
 IR Inten    --     20.3673                23.1144                28.2333

                     64                     65                     66
                      A                      A                      A
 Frequencies --   3059.5588              3062.8242              3078.5555
 Red. masses --      1.0476                 1.0711                 1.0580
 Frc consts  --      5.7776                 5.9202                 5.9080
 IR Inten    --     17.4623                 4.5366                 1.6283

                     67                     68                     69
                      A                      A                      A
 Frequencies --   3107.9325              3109.8579              3115.1350
 Red. masses --      1.1014                 1.1023                 1.1020
 Frc consts  --      6.2683                 6.2808                 6.3008
 IR Inten    --      9.5937                12.2758                18.5859

                     70                     71                     72
                      A                      A                      A
 Frequencies --   3117.8698              3123.7698              3125.7642
 Red. masses --      1.1009                 1.1023                 1.0966
 Frc consts  --      6.3056                 6.3375                 6.3129
 IR Inten    --     81.8097                19.4828                33.4852

                     73                     74                     75
                      A                      A                      A
 Frequencies --   3151.4325              3152.4218              3157.8195
 Red. masses --      1.1039                 1.1066                 1.0993
 Frc consts  --      6.4593                 6.4792                 6.4588
 IR Inten    --      7.8288                15.7508                 9.4513

 - Thermochemistry -
 -------------------
 Temperature   298.150 Kelvin.  Pressure   1.00000 Atm.
 Atom     1 has atomic number  6 and mass  12.00000

 Molecular mass:   156.11503 amu.
 Principal axes and moments of inertia in atomic units:
                           1         2         3
     Eigenvalues --  1251.348362191.613502505.94343
           X            0.99947  -0.03172  -0.00738
           Y            0.03076   0.99386  -0.10631
           Z            0.01071   0.10602   0.99431
 This molecule is an asymmetric top.
 Rotational symmetry number  1.
 Warning -- assumption of classical behavior for rotation
           may cause significant error
 Rotational temperatures (Kelvin)      0.06922     0.03952     0.03456
 Rotational constants (GHZ):           1.44224     0.82348     0.72018
 Zero-point vibrational energy     622881.3 (Joules/Mol)
                                  148.87220 (Kcal/Mol)
 Warning -- explicit consideration of  20 degrees of freedom as
           vibrations may cause significant error
 Vibrational temperatures:     63.32    71.98   114.56   117.42   243.43
          (Kelvin)            285.25   315.85   332.29   377.33   393.46
                              412.64   430.90   457.36   473.48   538.15
                              589.81   616.84   703.88   756.73   854.81
                             1028.03  1059.08  1144.94  1264.08  1332.65
                             1357.64  1366.84  1376.47  1408.79  1449.75
                             1479.85  1495.13  1551.68  1567.23  1603.00
                             1645.88  1755.87  1800.70  1816.03  1833.02
                             1848.66  1967.00  2030.64  2052.76  2057.29
                             2058.26  2066.73  2104.02  2142.83  2175.53
                             2185.34  2196.91  2198.69  2208.37  2216.58
                             2226.99  2240.57  2580.94  2635.55  4233.18
                             4379.62  4386.71  4394.56  4402.02  4406.72
                             4429.35  4471.62  4474.39  4481.98  4485.92
                             4494.41  4497.28  4534.21  4535.63  4543.40

 Zero-point correction=                           0.237243 (Hartree/Particle)
 Thermal correction to Energy=                    0.250526
 Thermal correction to Enthalpy=                  0.251470
 Thermal correction to Gibbs Free Energy=         0.197733
 Sum of electronic and zero-point Energies=           -502.841338
 Sum of electronic and thermal Energies=              -502.828055
 Sum of electronic and thermal Enthalpies=            -502.827110
 Sum of electronic and thermal Free Energies=         -502.880847

                     E (Thermal)             CV                S
                      KCal/Mol        Cal/Mol-Kelvin    Cal/Mol-Kelvin
 Total                  157.207             48.431            113.099
 Electronic               0.000              0.000              0.000
 Translational            0.889              2.981             41.046
 Rotational               0.889              2.981             30.309
 Vibrational            155.430             42.470             41.745
 Vibration     1          0.595              1.980              5.070
 Vibration     2          0.595              1.978              4.816
 Vibration     3          0.600              1.963              3.900
 Vibration     4          0.600              1.962              3.852
 Vibration     5          0.625              1.880              2.444
 Vibration     6          0.637              1.842              2.149
 Vibration     7          0.647              1.811              1.963
 Vibration     8          0.653              1.794              1.872
 Vibration     9          0.670              1.742              1.647
 Vibration    10          0.676              1.722              1.574
 Vibration    11          0.684              1.698              1.493
 Vibration    12          0.692              1.675              1.420
 Vibration    13          0.704              1.639              1.321
 Vibration    14          0.712              1.617              1.265
 Vibration    15          0.745              1.525              1.063
 Vibration    16          0.774              1.449              0.927
 Vibration    17          0.790              1.408              0.863
 Vibration    18          0.845              1.274              0.686
 Vibration    19          0.881              1.193              0.596
 Vibration    20          0.952              1.044              0.460

 Optimization completed.
    -- Stationary point found.

 1\1\GINC-NODE309\Freq\RB3LYP\6-31G(d)\C9H16O2\VSC10255\08-Dec-2020\0\\
 #N Geom=AllCheck Guess=TCheck SCRF=Check GenChk RB3LYP/6-31G(d) Freq\\
 CID_151832903_JID_1650_neutraal\\0,1\C,0.8737290081,-0.0173297955,0.09
 06730216\C,0.4912847269,0.0959826108,-1.3997014482\C,1.1518884916,-1.0
 83177436,-2.1065547976\O,0.7304174857,-2.221566874,-2.0763318259\C,2.4
 627040656,-0.7625268129,-2.8577530027\C,2.1472205638,0.0131571142,-4.1
 221032761\O,2.0484645002,1.220061246,-4.1644599648\C,-1.0435655863,0.2
 176342691,-1.6740039626\C,-1.5209859072,1.5908448225,-1.166139658\C,-1

 Normal termination of Gaussian 16 at Tue Dec  8 20:22:20 2020.

 ----------------------------------------------------------------------
 # B3LYP/6-311++G(d,p) empiricaldispersion=gd3bj scf=xqc pop=npa geom=c
 heck
 ----------------------------------------------------------------------

 ---------------------------------------
 CID_151832903_JID_1650_Energie_neutraal
 ---------------------------------------
 Structure from the checkpoint file:  "JID_1650.chk"
 Charge =  0 Multiplicity = 1

 SCF Done:  E(RB3LYP) =  -503.226816800     A.U. after   14 cycles
 Normal termination of Gaussian 16 at Tue Dec  8 20:25:00 2020.

 ----------------------------------------------------------------------
 # B3LYP/6-311++G(d,p) empiricaldispersion=gd3bj scf=xqc pop=npa geom=c
 heck
 ----------------------------------------------------------------------

 -------------------------------------
 CID_151832903_JID_1650_Energie_kation
 -------------------------------------
 Structure from the checkpoint file:  "JID_1650.chk"
 Charge =  1 Multiplicity = 2

 SCF Done:  E(UB3LYP) =  -502.892510618     A.U. after   23 cycles
 Normal termination of Gaussian 16 at Tue Dec  8 20:31:54 2020.
 Gaussian 16:  ES64L-G16RevA.03 25-Dec-2016

 ------------------------------------
 CID_151832903_JID_1650_Energie_anion
 ------------------------------------
 Structure from the checkpoint file:  "JID_1650.chk"
 Charge = -1 Multiplicity = 2

                         Standard orientation:
 ---------------------------------------------------------------------
 Center     Atomic      Atomic             Coordinates (Angstroms)
 Number     Number       Type             X           Y           Z
 ---------------------------------------------------------------------
      1          6           0       -0.818352   -1.466162    1.530553
      2          6           0       -0.284413   -0.338687    0.622792
      3          6           0        0.754962   -0.976660   -0.293258
      4          8           0        0.486223   -1.646826   -1.269546
      5          6           0        2.228375   -0.763071    0.117579
      6          6           0        2.633633    0.669697   -0.170066
      7          8           0        2.479730    1.582677    0.611564
      8          6           0       -1.388038    0.466532   -0.138418
      9          6           0       -2.179666    1.297061    0.888768
     10          6           0       -0.709715    1.441015   -1.121093
     11          6           0       -2.358075   -0.444035   -0.909942
     12          1           0       -1.286158   -2.256748    0.937953
     13          1           0       -1.552552   -1.079859    2.242435
     14          1           0       -0.004789   -1.917756    2.110091
     15          1           0        0.247097    0.380552    1.257396
     16          1           0        2.328514   -0.938356    1.193941
     17          1           0        2.844587   -1.461781   -0.452921
     18          1           0        3.052077    0.847987   -1.182626
     19          1           0       -1.520058    1.967888    1.452077
     20          1           0       -2.926088    1.914356    0.375843
     21          1           0       -2.715588    0.665065    1.604669
     22          1           0       -0.182850    0.905353   -1.917906
     23          1           0       -1.459628    2.082687   -1.597129
     24          1           0        0.007813    2.089477   -0.605649
     25          1           0       -1.824129   -1.078274   -1.620612
     26          1           0       -2.927660   -1.090374   -0.233273
     27          1           0       -3.080479    0.168843   -1.461920
 ---------------------------------------------------------------------

 SCF Done:  E(UB3LYP) =  -503.229981296     A.U. after   30 cycles

 The electronic state is 2-A.
 Alpha  occ. eigenvalues --  -18.94082 -18.93879 -10.08238 -10.07151 -10.05930
 Alpha  occ. eigenvalues --  -10.04106 -10.04009 -10.03906 -10.02981 -10.02670
 Alpha  occ. eigenvalues --  -10.02357  -0.88275  -0.87516  -0.70332  -0.63194
 Alpha  occ. eigenvalues --   -0.59855  -0.56456  -0.55930  -0.51219  -0.44002
 Alpha  occ. eigenvalues --   -0.41007  -0.37083  -0.34097  -0.33760  -0.32246
 Alpha  occ. eigenvalues --   -0.31486  -0.30703  -0.28242  -0.28171  -0.27346
 Alpha  occ. eigenvalues --   -0.26285  -0.25801  -0.25454  -0.24274  -0.23482
 Alpha  occ. eigenvalues --   -0.22443  -0.21796  -0.21176  -0.20301  -0.19117
 Alpha  occ. eigenvalues --   -0.18476  -0.10047  -0.08398   0.05568
 Alpha virt. eigenvalues --    0.07775   0.09277   0.10258   0.10574   0.11512
 Alpha virt. eigenvalues --    0.11637   0.12757   0.12905   0.13161   0.13775
 Alpha virt. eigenvalues --    0.13892   0.14746   0.15795   0.16247   0.16735

  Beta  occ. eigenvalues --  -18.93724 -18.93436 -10.07887 -10.06756 -10.05904
  Beta  occ. eigenvalues --  -10.04078 -10.04036 -10.03890 -10.02975 -10.02669
  Beta  occ. eigenvalues --  -10.02430  -0.87580  -0.86689  -0.70266  -0.62963
  Beta  occ. eigenvalues --   -0.59510  -0.56428  -0.55899  -0.51060  -0.43277
  Beta  occ. eigenvalues --   -0.40447  -0.36736  -0.34032  -0.33398  -0.32014
  Beta  occ. eigenvalues --   -0.31283  -0.30623  -0.27925  -0.27727  -0.26945
  Beta  occ. eigenvalues --   -0.26150  -0.25741  -0.25255  -0.24149  -0.23211
  Beta  occ. eigenvalues --   -0.22246  -0.20596  -0.20214  -0.19397  -0.18675
  Beta  occ. eigenvalues --   -0.17982  -0.09759  -0.07930
  Beta virt. eigenvalues --    0.07955   0.09323   0.10257   0.10429   0.11488
  Beta virt. eigenvalues --    0.11580   0.12694   0.12747   0.12940   0.13326
  Beta virt. eigenvalues --    0.13867   0.14499   0.15301   0.15912   0.16650

 Mulliken charges and spin densities:
               1          2
     1  C   -0.432334  -0.257759
     2  C    0.409452  -0.070517
     3  C   -0.082580   0.228764
     4  O   -0.352618   0.117063
     5  C   -0.099939  -0.189066
     6  C   -0.314474   0.372007
     7  O   -0.332699   0.136807
     8  C    0.251810   0.412616
     9  C   -0.089473  -0.529933
    10  C   -0.642189  -0.034851
    11  C   -0.526338  -0.165240
    12  H    0.169216  -0.002676
    13  H   -0.034723   0.155464
    14  H    0.140982  -0.009225
    15  H    0.224932  -0.005008
    16  H    0.022432   0.113358
    17  H    0.087485   0.049499
    18  H    0.019865  -0.013742
    19  H    0.084918   0.062351
    20  H   -0.101948   0.227459
    21  H   -0.032287   0.146932
    22  H    0.172014  -0.002731
    23  H    0.104979   0.015926
    24  H    0.134760   0.015406
    25  H    0.200857   0.004966
    26  H    0.013738   0.099288
    27  H    0.004161   0.122842
 Sum of Mulliken charges =  -1.00000   1.00000

 Dipole moment (field-independent basis, Debye):
    X=             -2.0530    Y=             -0.8751    Z=              0.2059  Tot=              2.2412
 Quadrupole moment (field-independent basis, Debye-Ang):
   XX=           -106.1167   YY=            -94.4035   ZZ=            -87.0939
   XY=             -4.0276   XZ=             -0.3558   YZ=             -7.0965

 Summary of Natural Population Analysis:

                                       Natural Population
                Natural  -----------------------------------------------
    Atom  No    Charge         Core      Valence    Rydberg      Total
 -----------------------------------------------------------------------
      C    1   -0.27974      0.99965     2.27364    0.00645     3.27974
      C    2   -0.15535      0.99951     2.14328    0.01256     3.15535
      C    3    0.34296      0.99964     1.63187    0.02553     2.65704
      O    4   -0.27665      0.99987     3.27029    0.00649     4.27665
      C    5   -0.28153      0.99958     2.27385    0.00811     3.28153
      C    6    0.27057      0.99975     1.70936    0.02032     2.72943
      O    7   -0.25856      0.99987     3.25121    0.00748     4.25856
      C    8   -0.03713      0.99958     2.02754    0.01001     3.03713
      C    9   -0.28503      0.99963     2.27826    0.00714     3.28503
      C   10   -0.28893      0.99963     2.28225    0.00705     3.28893
      C   11   -0.29204      0.99962     2.28512    0.00729     3.29204
      H   12    0.09921      0.00000     0.39989    0.00090     0.40079
      H   13    0.09486      0.00000     0.40418    0.00096     0.40514
      H   14    0.09758      0.00000     0.40163    0.00078     0.40242
      H   15    0.11000      0.00000     0.38805    0.00195     0.39000
      H   16    0.10766      0.00000     0.39058    0.00176     0.39234
      H   17    0.10262      0.00000     0.39536    0.00202     0.39738
      H   18    0.02981      0.00000     0.46748    0.00271     0.47019
      H   19    0.09984      0.00000     0.39945    0.00072     0.40016
      H   20    0.09566      0.00000     0.40344    0.00090     0.40434
      H   21    0.09620      0.00000     0.40299    0.00081     0.40380
      H   22    0.10719      0.00000     0.39204    0.00076     0.39281
      H   23    0.08999      0.00000     0.40927    0.00074     0.41001
      H   24    0.10875      0.00000     0.39031    0.00094     0.39125
      H   25    0.11634      0.00000     0.38281    0.00085     0.38366
      H   26    0.09430      0.00000     0.40496    0.00075     0.40570
      H   27    0.09143      0.00000     0.40774    0.00082     0.40857
 =======================================================================
   * Total *   -0.00000     10.99633    31.86687    0.13679    43.00000

 Normal termination of Gaussian 16 at Tue Dec  8 20:38:47 2020.
