 Gaussian 16, Revision A.03,

 -----------------------------------------------------------
 # opt freq B3LYP/6-31G(d) empiricaldispersion=gd3bj scf=xqc
 -----------------------------------------------------------

 -------------------------------
 CID_145925843_JID_5853_neutraal
 -------------------------------
 Symbolic Z-matrix:
 Charge =  0 Multiplicity = 1

 SCF Done:  E(RB3LYP) =  -724.885631722     A.U. after   15 cycles
 SCF Done:  E(RB3LYP) =  -724.887408584     A.U. after   13 cycles
 SCF Done:  E(RB3LYP) =  -724.887182446     A.U. after   12 cycles
 SCF Done:  E(RB3LYP) =  -724.887605537     A.U. after   12 cycles
 SCF Done:  E(RB3LYP) =  -724.887503087     A.U. after   11 cycles
 SCF Done:  E(RB3LYP) =  -724.887473818     A.U. after   12 cycles
 SCF Done:  E(RB3LYP) =  -724.887611157     A.U. after   12 cycles
 SCF Done:  E(RB3LYP) =  -724.887640323     A.U. after   11 cycles
 SCF Done:  E(RB3LYP) =  -724.887637739     A.U. after    9 cycles
 SCF Done:  E(RB3LYP) =  -724.887638244     A.U. after   11 cycles
 SCF Done:  E(RB3LYP) =  -724.887642194     A.U. after   10 cycles
 SCF Done:  E(RB3LYP) =  -724.887643127     A.U. after    8 cycles
 SCF Done:  E(RB3LYP) =  -724.887642664     A.U. after    8 cycles
 SCF Done:  E(RB3LYP) =  -724.887643254     A.U. after    8 cycles
 SCF Done:  E(RB3LYP) =  -724.887643640     A.U. after    8 cycles
 SCF Done:  E(RB3LYP) =  -724.887643664     A.U. after    7 cycles
 Optimization completed.
    -- Stationary point found.

 1\1\GINC-NODE314\FOpt\RB3LYP\6-31G(d)\C11H8O4\VSC10255\10-Dec-2020\0\\
 # opt freq B3LYP/6-31G(d) empiricaldispersion=gd3bj scf=xqc\\CID_14592
 5843_JID_5853_neutraal\\0,1\C,1.0567848843,-0.0802518779,-0.0029151508
 \O,0.4792428874,1.2340150381,0.0358597706\C,1.3083839585,2.2115514173,
 0.4595917855\O,2.4608888136,2.0158817141,0.7884414783\C,0.6462901791,3
 .5474866375,0.4754436738\C,-0.68397923,3.7212331478,0.0869991928\C,-1.
 2709647056,4.9979235617,0.1164961404\C,-0.5030434012,6.0922209076,0.54
 0725168\C,0.8276993434,5.9142489369,0.9286182675\C,1.4054343872,4.6431

 Normal termination of Gaussian 16 at Thu Dec 10 17:22:35 2020.

 --------------------------------------------------------------------
 #N Geom=AllCheck Guess=TCheck SCRF=Check GenChk RB3LYP/6-31G(d) Freq
 --------------------------------------------------------------------

 Structure from the checkpoint file:  "JID_5853.chk"
 -------------------------------
 CID_145925843_JID_5853_neutraal
 -------------------------------
 Charge =  0 Multiplicity = 1

 SCF Done:  E(RB3LYP) =  -724.887643664     A.U. after    1 cycles

  Exact polarizability: 156.908  -5.242 176.389  -0.001  -0.000  49.361
 Approx polarizability: 226.514 -14.814 295.002  -0.001  -0.002  74.785

                      1                      2                      3
                      A                      A                      A
 Frequencies --     44.6006                54.8335                84.0290
 Red. masses --      6.0187                11.2103                 4.3025
 Frc consts  --      0.0071                 0.0199                 0.0179
 IR Inten    --      1.2707                 2.1294                 0.3831

                      4                      5                      6
                      A                      A                      A
 Frequencies --    100.4868               119.8768               130.0372
 Red. masses --      4.6113                 6.0636                 1.4673
 Frc consts  --      0.0274                 0.0513                 0.0146
 IR Inten    --      0.2188                 1.2287                 0.4172

                      7                      8                      9
                      A                      A                      A
 Frequencies --    145.6141               179.2027               215.8789
 Red. masses --      2.2413                 4.3591                 4.4358
 Frc consts  --      0.0280                 0.0825                 0.1218
 IR Inten    --      0.2388                 0.0844                 4.1552

                     10                     11                     12
                      A                      A                      A
 Frequencies --    221.0417               313.2370               334.4280
 Red. masses --      5.1935                 8.8901                 4.3511
 Frc consts  --      0.1495                 0.5139                 0.2867
 IR Inten    --      2.1607                 1.8314                16.6357

                     13                     14                     15
                      A                      A                      A
 Frequencies --    373.3276               382.5250               424.5170
 Red. masses --      8.0678                 4.6836                 9.6199
 Frc consts  --      0.6625                 0.4038                 1.0214
 IR Inten    --      3.6705                 0.1407                 9.4284

                     16                     17                     18
                      A                      A                      A
 Frequencies --    465.0410               490.0531               517.0830
 Red. masses --      4.0925                 7.8222                 7.2039
 Frc consts  --      0.5215                 1.1068                 1.1349
 IR Inten    --      8.1614                 0.8351                 3.8905

                     19                     20                     21
                      A                      A                      A
 Frequencies --    558.4645               587.0182               607.5529
 Red. masses --      2.8336                 1.3753                 5.5217
 Frc consts  --      0.5207                 0.2792                 1.2009
 IR Inten    --      3.9782                74.7519                 0.6178

                     22                     23                     24
                      A                      A                      A
 Frequencies --    636.7478               636.8882               656.9396
 Red. masses --      1.5447                 1.2112                 4.3542
 Frc consts  --      0.3690                 0.2895                 1.1072
 IR Inten    --     56.2377                45.4782                79.0380

                     25                     26                     27
                      A                      A                      A
 Frequencies --    693.6356               760.5889               769.2374
 Red. masses --      2.5332                 4.6428                 6.1524
 Frc consts  --      0.7181                 1.5825                 2.1449
 IR Inten    --      3.2387                65.1205                21.4728

                     28                     29                     30
                      A                      A                      A
 Frequencies --    785.3056               898.6339               937.9998
 Red. masses --      7.1421                 6.2725                 6.9829
 Frc consts  --      2.5951                 2.9844                 3.6198
 IR Inten    --     10.3867                 4.9052                10.5151

                     31                     32                     33
                      A                      A                      A
 Frequencies --    940.3363               963.6244               968.1783
 Red. masses --      1.5923                 1.4305                 1.3967
 Frc consts  --      0.8296                 0.7826                 0.7714
 IR Inten    --     13.4615                 2.9302                 0.1879

                     34                     35                     36
                      A                      A                      A
 Frequencies --   1021.7627              1036.1574              1138.7042
 Red. masses --      6.2631                 6.4836                 1.7606
 Frc consts  --      3.8525                 4.1013                 1.3450
 IR Inten    --      0.8197                36.6809                27.2062

                     37                     38                     39
                      A                      A                      A
 Frequencies --   1155.2842              1186.5673              1190.5351
 Red. masses --      1.8357                 1.2727                 2.0472
 Frc consts  --      1.4435                 1.0558                 1.7096
 IR Inten    --     37.5852                 0.8747               302.7618

                     40                     41                     42
                      A                      A                      A
 Frequencies --   1221.3661              1248.8923              1301.1057
 Red. masses --      1.4995                 3.4375                 1.3328
 Frc consts  --      1.3179                 3.1590                 1.3293
 IR Inten    --      4.7045               341.0381                 7.3410

                     43                     44                     45
                      A                      A                      A
 Frequencies --   1328.3277              1365.7305              1405.6780
 Red. masses --      3.7077                 5.8487                 3.3043
 Frc consts  --      3.8545                 6.4275                 3.8468
 IR Inten    --    366.7230                 0.7106                97.7906

                     46                     47                     48
                      A                      A                      A
 Frequencies --   1474.4661              1484.6091              1496.1891
 Red. masses --      4.4586                 2.4816                 1.4856
 Frc consts  --      5.7111                 3.2226                 1.9593
 IR Inten    --     22.0746                26.4629                27.1920

                     49                     50                     51
                      A                      A                      A
 Frequencies --   1512.1120              1524.3941              1645.6450
 Red. masses --      1.0477                 1.0490                 5.6578
 Frc consts  --      1.4114                 1.4363                 9.0275
 IR Inten    --      6.4105                 8.4756                12.0231

                     52                     53                     54
                      A                      A                      A
 Frequencies --   1652.8875              1808.8239              1826.6338
 Red. masses --      6.1754                11.7288                10.0164
 Frc consts  --      9.9403                22.6098                19.6909
 IR Inten    --     16.1450               218.1392               290.0588

                     55                     56                     57
                      A                      A                      A
 Frequencies --   2235.0720              3078.1912              3153.6729
 Red. masses --      6.1235                 1.0294                 1.1076
 Frc consts  --     18.0234                 5.7470                 6.4905
 IR Inten    --      0.0981                36.0807                19.3058

                     58                     59                     60
                      A                      A                      A
 Frequencies --   3186.5988              3238.7821              3247.3514
 Red. masses --      1.1073                 1.0915                 1.0914
 Frc consts  --      6.6248                 6.7459                 6.7807
 IR Inten    --     15.1170                 1.0409                 0.0755

                     61                     62                     63
                      A                      A                      A
 Frequencies --   3254.1859              3495.5352              3700.5411
 Red. masses --      1.0910                 1.1580                 1.0642
 Frc consts  --      6.8070                 8.3368                 8.5863
 IR Inten    --      4.3367                83.4291                84.5528

 - Thermochemistry -
 -------------------
 Temperature   298.150 Kelvin.  Pressure   1.00000 Atm.
 Atom     1 has atomic number  6 and mass  12.00000

 Molecular mass:   204.04226 amu.
 Principal axes and moments of inertia in atomic units:
                           1         2         3
     Eigenvalues --  2525.365834250.482776764.45522
           X            0.99998  -0.00587  -0.00000
           Y            0.00587   0.99998   0.00000
           Z            0.00000  -0.00000   1.00000
 This molecule is an asymmetric top.
 Rotational symmetry number  1.
 Warning -- assumption of classical behavior for rotation
           may cause significant error
 Rotational temperatures (Kelvin)      0.03430     0.02038     0.01280
 Rotational constants (GHZ):           0.71465     0.42460     0.26680
 Zero-point vibrational energy     440302.1 (Joules/Mol)
                                  105.23473 (Kcal/Mol)
 Warning -- explicit consideration of  21 degrees of freedom as
           vibrations may cause significant error
 Vibrational temperatures:     64.17    78.89   120.90   144.58   172.48
          (Kelvin)            187.09   209.51   257.83   310.60   318.03
                              450.68   481.17   537.14   550.37   610.79
                              669.09   705.08   743.97   803.51   844.59
                              874.13   916.14   916.34   945.19   997.99
                             1094.32  1106.76  1129.88  1292.93  1349.57
                             1352.93  1386.44  1392.99  1470.09  1490.80
                             1638.34  1662.20  1707.21  1712.91  1757.27
                             1796.88  1872.00  1911.17  1964.98  2022.46
                             2121.43  2136.02  2152.68  2175.59  2193.26
                             2367.72  2378.14  2602.49  2628.12  3215.77
                             4428.83  4537.43  4584.80  4659.89  4672.21
                             4682.05  5029.30  5324.25

 Zero-point correction=                           0.167702 (Hartree/Particle)
 Thermal correction to Energy=                    0.181587
 Thermal correction to Enthalpy=                  0.182531
 Thermal correction to Gibbs Free Energy=         0.126059
 Sum of electronic and zero-point Energies=           -724.719941
 Sum of electronic and thermal Energies=              -724.706057
 Sum of electronic and thermal Enthalpies=            -724.705113
 Sum of electronic and thermal Free Energies=         -724.761585

                     E (Thermal)             CV                S
                      KCal/Mol        Cal/Mol-Kelvin    Cal/Mol-Kelvin
 Total                  113.947             50.782            118.855
 Electronic               0.000              0.000              0.000
 Translational            0.889              2.981             41.844
 Rotational               0.889              2.981             32.651
 Vibrational            112.170             44.821             44.360
 Vibration     1          0.595              1.980              5.043
 Vibration     2          0.596              1.976              4.635
 Vibration     3          0.601              1.960              3.794
 Vibration     4          0.604              1.949              3.445
 Vibration     5          0.609              1.933              3.102
 Vibration     6          0.612              1.923              2.945
 Vibration     7          0.617              1.907              2.729
 Vibration     8          0.629              1.868              2.337
 Vibration     9          0.645              1.817              1.993
 Vibration    10          0.648              1.809              1.951
 Vibration    11          0.701              1.648              1.345
 Vibration    12          0.716              1.607              1.239
 Vibration    13          0.745              1.527              1.066
 Vibration    14          0.752              1.507              1.029
 Vibration    15          0.787              1.417              0.877
 Vibration    16          0.822              1.328              0.752
 Vibration    17          0.846              1.272              0.683
 Vibration    18          0.872              1.212              0.617
 Vibration    19          0.914              1.121              0.527
 Vibration    20          0.944              1.059              0.473
 Vibration    21          0.966              1.016              0.437

 Optimization completed.
    -- Stationary point found.

 1\1\GINC-NODE314\Freq\RB3LYP\6-31G(d)\C11H8O4\VSC10255\10-Dec-2020\0\\
 #N Geom=AllCheck Guess=TCheck SCRF=Check GenChk RB3LYP/6-31G(d) Freq\\
 CID_145925843_JID_5853_neutraal\\0,1\C,1.0567848843,-0.0802518779,-0.0
 029151508\O,0.4792428874,1.2340150381,0.0358597706\C,1.3083839585,2.21
 15514173,0.4595917855\O,2.4608888136,2.0158817141,0.7884414783\C,0.646
 2901791,3.5474866375,0.4754436738\C,-0.68397923,3.7212331478,0.0869991
 928\C,-1.2709647056,4.9979235617,0.1164961404\C,-0.5030434012,6.092220
 9076,0.540725168\C,0.8276993434,5.9142489369,0.9286182675\C,1.40543438

 Normal termination of Gaussian 16 at Thu Dec 10 17:28:41 2020.

 ----------------------------------------------------------------------
 # B3LYP/6-311++G(d,p) empiricaldispersion=gd3bj scf=xqc pop=npa geom=c
 heck
 ----------------------------------------------------------------------

 ---------------------------------------
 CID_145925843_JID_5853_Energie_neutraal
 ---------------------------------------
 Structure from the checkpoint file:  "JID_5853.chk"
 Charge =  0 Multiplicity = 1

 SCF Done:  E(RB3LYP) =  -725.101512108     A.U. after   16 cycles
 Normal termination of Gaussian 16 at Thu Dec 10 17:31:24 2020.

 ----------------------------------------------------------------------
 # B3LYP/6-311++G(d,p) empiricaldispersion=gd3bj scf=xqc pop=npa geom=c
 heck
 ----------------------------------------------------------------------

 -------------------------------------
 CID_145925843_JID_5853_Energie_kation
 -------------------------------------
 Structure from the checkpoint file:  "JID_5853.chk"
 Charge =  1 Multiplicity = 2

 SCF Done:  E(UB3LYP) =  -724.772069286     A.U. after   27 cycles
 Normal termination of Gaussian 16 at Thu Dec 10 17:37:12 2020.
 Gaussian 16:  ES64L-G16RevA.03 25-Dec-2016

 ------------------------------------
 CID_145925843_JID_5853_Energie_anion
 ------------------------------------
 Structure from the checkpoint file:  "JID_5853.chk"
 Charge = -1 Multiplicity = 2

                         Standard orientation:
 ---------------------------------------------------------------------
 Center     Atomic      Atomic             Coordinates (Angstroms)
 Number     Number       Type             X           Y           Z
 ---------------------------------------------------------------------
      1          6           0        4.528470   -0.377035   -0.000061
      2          8           0        3.190836    0.145547   -0.000098
      3          6           0        2.212599   -0.784857    0.000049
      4          8           0        2.425876   -1.980353    0.000177
      5          6           0        0.851921   -0.175023    0.000024
      6          6           0        0.658496    1.208191    0.000017
      7          6           0       -0.641233    1.743041    0.000003
      8          6           0       -1.738462    0.869400   -0.000007
      9          6           0       -1.540756   -0.514047   -0.000007
     10          6           0       -0.246808   -1.039552    0.000012
     11          6           0       -2.747880   -1.383521   -0.000011
     12          8           0       -3.891975   -0.977490    0.000100
     13          8           0       -2.444498   -2.703993   -0.000156
     14          6           0       -0.839758    3.157390   -0.000002
     15          6           0       -1.005280    4.354857   -0.000006
     16          1           0        5.181846    0.495309   -0.000028
     17          1           0        4.698943   -0.988573   -0.889693
     18          1           0        4.698891   -0.988616    0.889548
     19          1           0        1.512399    1.874056    0.000027
     20          1           0       -2.750601    1.257091   -0.000010
     21          1           0       -0.077456   -2.109005    0.000020
     22          1           0       -3.298887   -3.173588   -0.000125
     23          1           0       -1.154902    5.410581   -0.000004
 ---------------------------------------------------------------------

 SCF Done:  E(UB3LYP) =  -725.125815517     A.U. after   26 cycles

 The electronic state is 2-A.
 Alpha  occ. eigenvalues --  -19.04152 -19.03415 -18.96428 -18.96380 -10.15218
 Alpha  occ. eigenvalues --  -10.14958 -10.12071 -10.06105 -10.05797 -10.04591
 Alpha  occ. eigenvalues --  -10.04409 -10.03365 -10.03229 -10.02268 -10.02247
 Alpha  occ. eigenvalues --   -0.97846  -0.97137  -0.88381  -0.87740  -0.72763
 Alpha  occ. eigenvalues --   -0.65996  -0.64233  -0.60862  -0.60046  -0.52360
 Alpha  occ. eigenvalues --   -0.49797  -0.48384  -0.43941  -0.42335  -0.40061
 Alpha  occ. eigenvalues --   -0.36920  -0.36334  -0.35636  -0.34441  -0.33570
 Alpha  occ. eigenvalues --   -0.32256  -0.31652  -0.30800  -0.29669  -0.28456
 Alpha  occ. eigenvalues --   -0.26646  -0.24498  -0.24196  -0.22331  -0.22103
 Alpha  occ. eigenvalues --   -0.19509  -0.18830  -0.18200  -0.16458  -0.14722
 Alpha  occ. eigenvalues --   -0.14117  -0.12747  -0.11039   0.03493
 Alpha virt. eigenvalues --    0.07648   0.08206   0.08541   0.09152   0.11037
 Alpha virt. eigenvalues --    0.11526   0.11786   0.11829   0.12360   0.13594
 Alpha virt. eigenvalues --    0.14371   0.15336   0.16105   0.16956   0.16972

  Beta  occ. eigenvalues --  -19.04128 -19.03346 -18.96221 -18.96211 -10.15078
  Beta  occ. eigenvalues --  -10.14768 -10.12073 -10.06073 -10.05951 -10.04642
  Beta  occ. eigenvalues --  -10.04450 -10.03278 -10.03124 -10.01797 -10.01781
  Beta  occ. eigenvalues --   -0.97696  -0.96914  -0.88068  -0.87478  -0.72343
  Beta  occ. eigenvalues --   -0.65929  -0.63809  -0.60580  -0.59804  -0.51679
  Beta  occ. eigenvalues --   -0.49612  -0.47973  -0.43707  -0.42249  -0.39998
  Beta  occ. eigenvalues --   -0.36718  -0.36116  -0.35449  -0.34177  -0.33296
  Beta  occ. eigenvalues --   -0.32078  -0.30728  -0.30585  -0.29530  -0.27699
  Beta  occ. eigenvalues --   -0.26455  -0.24393  -0.23393  -0.22082  -0.21914
  Beta  occ. eigenvalues --   -0.18917  -0.18349  -0.17626  -0.16411  -0.14527
  Beta  occ. eigenvalues --   -0.13930  -0.10490  -0.10292
  Beta virt. eigenvalues --    0.07636   0.08516   0.08761   0.09152   0.09797
  Beta virt. eigenvalues --    0.11021   0.11799   0.11825   0.12362   0.12976
  Beta virt. eigenvalues --    0.13606   0.14379   0.15335   0.16396   0.16955

 Mulliken charges and spin densities:
               1          2
     1  C   -0.206483  -0.001391
     2  O   -0.122120   0.002400
     3  C   -0.022262   0.053483
     4  O   -0.347145   0.071226
     5  C    0.941679   0.077710
     6  C   -1.895780   0.378517
     7  C    0.334391  -0.088565
     8  C   -1.543982   0.366172
     9  C    0.991161   0.017539
    10  C   -1.131151  -0.030484
    11  C    0.243697   0.134296
    12  O   -0.398836   0.059355
    13  O   -0.221984   0.013850
    14  C    2.150738   0.034661
    15  C   -1.027083  -0.035159
    16  H    0.124380  -0.000289
    17  H    0.160932   0.000703
    18  H    0.160944   0.000701
    19  H    0.105699  -0.029679
    20  H    0.122771  -0.028824
    21  H    0.191814   0.002461
    22  H    0.272581  -0.000566
    23  H    0.116039   0.001882
 Sum of Mulliken charges =  -1.00000   1.00000

 Dipole moment (field-independent basis, Debye):
    X=              3.9002    Y=              0.2015    Z=             -0.0003  Tot=              3.9054
 Quadrupole moment (field-independent basis, Debye-Ang):
   XX=           -116.3025   YY=           -105.1536   ZZ=            -92.7740
   XY=              7.2626   XZ=              0.0004   YZ=              0.0009

 Summary of Natural Population Analysis:

                                       Natural Population
                Natural  -----------------------------------------------
    Atom  No    Charge         Core      Valence    Rydberg      Total
 -----------------------------------------------------------------------
      C    1   -0.10493      0.99961     2.09675    0.00856     3.10493
      O    2   -0.28132      0.99986     3.27323    0.00824     4.28132
      C    3    0.41651      0.99964     1.56010    0.02374     2.58349
      O    4   -0.30506      0.99987     3.29923    0.00595     4.30506
      C    5   -0.07998      0.99945     2.07091    0.00962     3.07998
      C    6    0.04291      0.99951     1.94990    0.00767     2.95709
      C    7   -0.11822      0.99946     2.10971    0.00905     3.11822
      C    8    0.04159      0.99951     1.95091    0.00798     2.95841
      C    9   -0.07919      0.99945     2.07003    0.00970     3.07919
      C   10   -0.05872      0.99952     2.05048    0.00873     3.05872
      C   11    0.42166      0.99967     1.55406    0.02462     2.57834
      O   12   -0.31614      0.99987     3.30855    0.00772     4.31614
      O   13   -0.34839      0.99988     3.34268    0.00584     4.34839
      C   14    0.02545      0.99938     1.96707    0.00810     2.97455
      C   15   -0.16503      0.99920     2.16254    0.00329     3.16503
      H   16    0.08382      0.00000     0.41534    0.00084     0.41618
      H   17    0.08755      0.00000     0.41121    0.00124     0.41245
      H   18    0.08756      0.00000     0.41120    0.00124     0.41244
      H   19    0.09805      0.00000     0.40105    0.00090     0.40195
      H   20    0.10226      0.00000     0.39675    0.00099     0.39774
      H   21    0.11370      0.00000     0.38511    0.00120     0.38630
      H   22    0.23108      0.00000     0.26576    0.00316     0.26892
      H   23    0.10487      0.00000     0.39416    0.00097     0.39513
 =======================================================================
   * Total *    0.00000     14.99389    37.84674    0.15938    53.00000

 Normal termination of Gaussian 16 at Thu Dec 10 17:42:17 2020.
