 Gaussian 16, Revision A.03,

 -----------------------------------------------------------
 # opt freq B3LYP/6-31G(d) empiricaldispersion=gd3bj scf=xqc
 -----------------------------------------------------------

 -------------------------------
 CID_106474625_JID_8903_neutraal
 -------------------------------
 Symbolic Z-matrix:
 Charge =  0 Multiplicity = 1

 SCF Done:  E(RB3LYP) =  -839.977582874     A.U. after   14 cycles
 SCF Done:  E(RB3LYP) =  -839.982856104     A.U. after   12 cycles
 SCF Done:  E(RB3LYP) =  -839.983743265     A.U. after   12 cycles
 SCF Done:  E(RB3LYP) =  -839.984297622     A.U. after   12 cycles
 SCF Done:  E(RB3LYP) =  -839.984522652     A.U. after   11 cycles
 SCF Done:  E(RB3LYP) =  -839.984570192     A.U. after   11 cycles
 SCF Done:  E(RB3LYP) =  -839.984618963     A.U. after   10 cycles
 SCF Done:  E(RB3LYP) =  -839.984640486     A.U. after   10 cycles
 SCF Done:  E(RB3LYP) =  -839.984649618     A.U. after   10 cycles
 SCF Done:  E(RB3LYP) =  -839.984655700     A.U. after   10 cycles
 SCF Done:  E(RB3LYP) =  -839.986472122     A.U. after   12 cycles
 SCF Done:  E(RB3LYP) =  -839.986543142     A.U. after   10 cycles
 SCF Done:  E(RB3LYP) =  -839.986552905     A.U. after   10 cycles
 SCF Done:  E(RB3LYP) =  -839.986558679     A.U. after    8 cycles
 SCF Done:  E(RB3LYP) =  -839.986561648     A.U. after    8 cycles
 SCF Done:  E(RB3LYP) =  -839.986561818     A.U. after    7 cycles
 Optimization completed.
    -- Stationary point found.
 Normal termination of Gaussian 16 at Fri Dec 11 23:33:08 2020.

 --------------------------------------------------------------------
 #N Geom=AllCheck Guess=TCheck SCRF=Check GenChk RB3LYP/6-31G(d) Freq
 --------------------------------------------------------------------

 Structure from the checkpoint file:  "JID_8903.chk"
 -------------------------------
 CID_106474625_JID_8903_neutraal
 -------------------------------
 Charge =  0 Multiplicity = 1

 SCF Done:  E(RB3LYP) =  -839.986561818     A.U. after    1 cycles

  Exact polarizability: 189.097   0.902 150.573  -5.435   2.728 125.077
 Approx polarizability: 235.452   5.610 218.296 -13.502  16.425 203.109

                      1                      2                      3
                      A                      A                      A
 Frequencies --     13.5047                28.7963                44.9985
 Red. masses --      4.1811                 4.3716                 2.6204
 Frc consts  --      0.0004                 0.0021                 0.0031
 IR Inten    --      0.0603                 0.0069                 0.3854

                      4                      5                      6
                      A                      A                      A
 Frequencies --     74.4597                77.4387                79.4568
 Red. masses --      6.7242                 2.9737                 3.1080
 Frc consts  --      0.0220                 0.0105                 0.0116
 IR Inten    --      0.4319                 1.0884                 0.7838

                      7                      8                      9
                      A                      A                      A
 Frequencies --    103.1551               134.8564               176.7362
 Red. masses --      3.2951                 2.7183                 2.6008
 Frc consts  --      0.0207                 0.0291                 0.0479
 IR Inten    --      0.2447                 0.6634                 0.7966

                     10                     11                     12
                      A                      A                      A
 Frequencies --    198.1798               216.8004               243.7816
 Red. masses --      3.1210                 3.1641                 1.5896
 Frc consts  --      0.0722                 0.0876                 0.0557
 IR Inten    --      0.8022                 0.9168                 0.8444

                     13                     14                     15
                      A                      A                      A
 Frequencies --    252.5104               276.4936               286.6736
 Red. masses --      1.3071                 1.4224                 1.2992
 Frc consts  --      0.0491                 0.0641                 0.0629
 IR Inten    --      1.6230                 0.9486                 1.3917

                     16                     17                     18
                      A                      A                      A
 Frequencies --    307.3384               312.2788               326.9923
 Red. masses --      3.0258                 3.5369                 3.5337
 Frc consts  --      0.1684                 0.2032                 0.2226
 IR Inten    --      0.9081                 3.1272                 2.8431

                     19                     20                     21
                      A                      A                      A
 Frequencies --    363.3642               372.0234               381.3829
 Red. masses --      2.8403                 2.2621                 2.5201
 Frc consts  --      0.2209                 0.1845                 0.2160
 IR Inten    --      5.8094                 5.0196                 2.9162

                     22                     23                     24
                      A                      A                      A
 Frequencies --    414.0218               444.5796               455.7784
 Red. masses --      3.5633                 3.2239                 2.4216
 Frc consts  --      0.3599                 0.3754                 0.2964
 IR Inten    --      1.2715                 1.6762                 1.4230

                     25                     26                     27
                      A                      A                      A
 Frequencies --    482.9440               515.6172               551.0765
 Red. masses --      2.6779                 3.0363                 3.0792
 Frc consts  --      0.3680                 0.4756                 0.5509
 IR Inten    --      3.2312                 3.1038                 4.9977

                     28                     29                     30
                      A                      A                      A
 Frequencies --    591.9462               649.1898               718.1878
 Red. masses --      2.7611                 4.1830                 5.5011
 Frc consts  --      0.5700                 1.0387                 1.6718
 IR Inten    --     23.1820                 5.0006                 4.9069

                     31                     32                     33
                      A                      A                      A
 Frequencies --    736.5372               802.1108               816.9787
 Red. masses --      3.8338                 3.3419                 2.6061
 Frc consts  --      1.2254                 1.2668                 1.0249
 IR Inten    --      1.2020                15.0218                 7.3077

                     34                     35                     36
                      A                      A                      A
 Frequencies --    846.4339               869.5956               898.9325
 Red. masses --      1.8853                 1.9085                 5.8158
 Frc consts  --      0.7958                 0.8503                 2.7689
 IR Inten    --     25.9919                31.4598                29.1395

                     37                     38                     39
                      A                      A                      A
 Frequencies --    907.4263               924.7838               952.9844
 Red. masses --      3.4222                 2.2141                 2.5202
 Frc consts  --      1.6603                 1.1157                 1.3485
 IR Inten    --      2.7422                10.0201                 6.0271

                     40                     41                     42
                      A                      A                      A
 Frequencies --    986.3345               997.1474              1020.7434
 Red. masses --      2.4030                 1.7573                 3.0359
 Frc consts  --      1.3774                 1.0295                 1.8637
 IR Inten    --      5.5509                 6.4900                23.8325

                     43                     44                     45
                      A                      A                      A
 Frequencies --   1026.9039              1029.2636              1061.4425
 Red. masses --      3.0064                 2.7065                 3.9340
 Frc consts  --      1.8679                 1.6893                 2.6114
 IR Inten    --      3.6641                 7.8062                14.3381

                     46                     47                     48
                      A                      A                      A
 Frequencies --   1062.2260              1075.4287              1096.8534
 Red. masses --      2.3156                 1.6854                 2.3249
 Frc consts  --      1.5394                 1.1484                 1.6480
 IR Inten    --     14.4213                21.8137                25.7146

                     49                     50                     51
                      A                      A                      A
 Frequencies --   1098.0360              1100.4954              1130.1679
 Red. masses --      2.0558                 3.5297                 1.7538
 Frc consts  --      1.4604                 2.5186                 1.3198
 IR Inten    --     21.9802                 4.8299                 7.5423

                     52                     53                     54
                      A                      A                      A
 Frequencies --   1135.1840              1149.7189              1170.2565
 Red. masses --      1.2631                 2.8774                 2.9977
 Frc consts  --      0.9590                 2.2409                 2.4188
 IR Inten    --      5.0430                26.8242                61.0239

                     55                     56                     57
                      A                      A                      A
 Frequencies --   1183.5258              1195.8677              1205.7831
 Red. masses --      1.3378                 2.7018                 1.4324
 Frc consts  --      1.1040                 2.2766                 1.2270
 IR Inten    --      4.2403                47.9094                 5.7478

                     58                     59                     60
                      A                      A                      A
 Frequencies --   1224.1623              1238.9378              1241.6484
 Red. masses --      2.0331                 1.7785                 1.3653
 Frc consts  --      1.7951                 1.6085                 1.2401
 IR Inten    --     11.7386                20.9429                35.6116

                     61                     62                     63
                      A                      A                      A
 Frequencies --   1260.5855              1279.6590              1309.9088
 Red. masses --      1.7554                 1.4873                 1.3280
 Frc consts  --      1.6435                 1.4350                 1.3425
 IR Inten    --     17.1837                 4.2821                17.7709

                     64                     65                     66
                      A                      A                      A
 Frequencies --   1317.1122              1340.7125              1343.4241
 Red. masses --      2.2634                 1.3040                 1.5225
 Frc consts  --      2.3134                 1.3810                 1.6190
 IR Inten    --     11.3444                 0.2759                 9.5598

                     67                     68                     69
                      A                      A                      A
 Frequencies --   1352.9112              1365.3415              1370.0151
 Red. masses --      1.7261                 1.1749                 1.5297
 Frc consts  --      1.8614                 1.2904                 1.6916
 IR Inten    --     32.5906                 2.1434                55.2270

                     70                     71                     72
                      A                      A                      A
 Frequencies --   1386.5790              1400.3608              1412.0494
 Red. masses --      1.3619                 2.2562                 1.4936
 Frc consts  --      1.5427                 2.6068                 1.7546
 IR Inten    --     18.3724                39.5578                24.9698

                     73                     74                     75
                      A                      A                      A
 Frequencies --   1424.0931              1437.3419              1445.7322
 Red. masses --      1.4990                 1.5254                 1.3971
 Frc consts  --      1.7911                 1.8567                 1.7205
 IR Inten    --     22.4721                27.4523                11.5161

                     76                     77                     78
                      A                      A                      A
 Frequencies --   1469.4546              1486.0483              1491.0751
 Red. masses --      1.1591                 1.1929                 1.1123
 Frc consts  --      1.4747                 1.5521                 1.4570
 IR Inten    --      5.4107                 0.1926                 8.2775

                     79                     80                     81
                      A                      A                      A
 Frequencies --   1499.5291              1512.8208              1514.9959
 Red. masses --      1.1630                 1.0963                 1.0469
 Frc consts  --      1.5407                 1.4782                 1.4157
 IR Inten    --      0.2950                 5.6144                11.7158

                     82                     83                     84
                      A                      A                      A
 Frequencies --   1520.9024              1521.8690              1522.1700
 Red. masses --      1.0783                 1.0688                 1.0832
 Frc consts  --      1.4696                 1.4585                 1.4787
 IR Inten    --      3.3400                 4.3766                 2.7801

                     85                     86                     87
                      A                      A                      A
 Frequencies --   1533.2214              1535.1149              1535.3209
 Red. masses --      1.0879                 1.1056                 1.0718
 Frc consts  --      1.5068                 1.5351                 1.4885
 IR Inten    --     14.7756                 5.8231                 9.2853

                     88                     89                     90
                      A                      A                      A
 Frequencies --   1539.2978              1543.6015              1559.0775
 Red. masses --      1.0914                 1.0573                 1.1931
 Frc consts  --      1.5236                 1.4843                 1.7087
 IR Inten    --      2.1542                10.8340                21.0676

                     91                     92                     93
                      A                      A                      A
 Frequencies --   1568.6119              1624.5029              2919.2107
 Red. masses --      5.6539                 9.4359                 1.0803
 Frc consts  --      8.1965                14.6715                 5.4240
 IR Inten    --     13.4195               108.4339                32.2380

                     94                     95                     96
                      A                      A                      A
 Frequencies --   2928.8771              2936.7569              2950.4471
 Red. masses --      1.0617                 1.0649                 1.0704
 Frc consts  --      5.3659                 5.4111                 5.4900
 IR Inten    --     53.4528                61.2169               108.6477

                     97                     98                     99
                      A                      A                      A
 Frequencies --   2956.1902              2980.7468              2987.0516
 Red. masses --      1.0610                 1.0722                 1.0719
 Frc consts  --      5.4629                 5.6125                 5.6347
 IR Inten    --     84.8417                18.0460                93.8972

                    100                    101                    102
                      A                      A                      A
 Frequencies --   3053.3129              3058.9801              3065.8232
 Red. masses --      1.0683                 1.0615                 1.0809
 Frc consts  --      5.8681                 5.8520                 5.9859
 IR Inten    --      7.7286                 9.8801                 9.5817

                    103                    104                    105
                      A                      A                      A
 Frequencies --   3078.1931              3084.4739              3087.8334
 Red. masses --      1.0721                 1.0853                 1.0734
 Frc consts  --      5.9850                 6.0838                 6.0302
 IR Inten    --     24.0416                58.3845                44.5189

                    106                    107                    108
                      A                      A                      A
 Frequencies --   3097.8361              3106.2192              3119.3036
 Red. masses --      1.0743                 1.1022                 1.0929
 Frc consts  --      6.0740                 6.2660                 6.2656
 IR Inten    --     35.0533                29.9630                45.6690

                    109                    110                    111
                      A                      A                      A
 Frequencies --   3123.9601              3128.4197              3128.5269
 Red. masses --      1.1037                 1.0961                 1.1027
 Frc consts  --      6.3463                 6.3205                 6.3591
 IR Inten    --     34.8393                13.9985                23.6646

                    112                    113                    114
                      A                      A                      A
 Frequencies --   3132.2055              3155.0077              3501.3657
 Red. masses --      1.0934                 1.0985                 1.0733
 Frc consts  --      6.3200                 6.4427                 7.7528
 IR Inten    --     17.6765                18.7516                16.7002

 - Thermochemistry -
 -------------------
 Temperature   298.150 Kelvin.  Pressure   1.00000 Atm.
 Atom     1 has atomic number  6 and mass  12.00000

 Molecular mass:   254.17428 amu.
 Principal axes and moments of inertia in atomic units:
                           1         2         3
     Eigenvalues --  2475.500707894.084289575.76248
           X            0.99999  -0.00307   0.00314
           Y            0.00309   0.99997  -0.00642
           Z           -0.00312   0.00643   0.99997
 This molecule is an asymmetric top.
 Rotational symmetry number  1.
 Warning -- assumption of classical behavior for rotation
           may cause significant error
 Rotational temperatures (Kelvin)      0.03499     0.01097     0.00905
 Rotational constants (GHZ):           0.72904     0.22862     0.18847
 Zero-point vibrational energy     922827.2 (Joules/Mol)
                                  220.56099 (Kcal/Mol)
 Warning -- explicit consideration of  28 degrees of freedom as
           vibrations may cause significant error
 Vibrational temperatures:     19.43    41.43    64.74   107.13   111.42
          (Kelvin)            114.32   148.42   194.03   254.28   285.14
                              311.93   350.75   363.31   397.81   412.46
                              442.19   449.30   470.47   522.80   535.26
                              548.72   595.69   639.65   655.76   694.85
                              741.86   792.88   851.68   934.04  1033.31
                             1059.71  1154.06  1175.45  1217.83  1251.15
                             1293.36  1305.58  1330.56  1371.13  1419.12
                             1434.67  1468.62  1477.49  1480.88  1527.18
                             1528.31  1547.30  1578.13  1579.83  1583.37
                             1626.06  1633.28  1654.19  1683.74  1702.83
                             1720.59  1734.85  1761.30  1782.56  1786.46
                             1813.70  1841.14  1884.67  1895.03  1928.99
                             1932.89  1946.54  1964.42  1971.15  1994.98
                             2014.81  2031.62  2048.95  2068.01  2080.09
                             2114.22  2138.09  2145.32  2157.49  2176.61
                             2179.74  2188.24  2189.63  2190.06  2205.96
                             2208.69  2208.98  2214.71  2220.90  2243.16
                             2256.88  2337.30  4200.09  4214.00  4225.34
                             4245.04  4253.30  4288.63  4297.70  4393.04
                             4401.19  4411.04  4428.83  4437.87  4442.70
                             4457.10  4469.16  4487.98  4494.68  4501.10
                             4501.25  4506.55  4539.35  5037.68

 Zero-point correction=                           0.351486 (Hartree/Particle)
 Thermal correction to Energy=                    0.369640
 Thermal correction to Enthalpy=                  0.370584
 Thermal correction to Gibbs Free Energy=         0.303285
 Sum of electronic and zero-point Energies=           -839.635076
 Sum of electronic and thermal Energies=              -839.616922
 Sum of electronic and thermal Enthalpies=            -839.615978
 Sum of electronic and thermal Free Energies=         -839.683277

                     E (Thermal)             CV                S
                      KCal/Mol        Cal/Mol-Kelvin    Cal/Mol-Kelvin
 Total                  231.953             68.015            141.643
 Electronic               0.000              0.000              0.000
 Translational            0.889              2.981             42.499
 Rotational               0.889              2.981             33.592
 Vibrational            230.175             62.054             65.553
 Vibration     1          0.593              1.987              7.414
 Vibration     2          0.593              1.984              5.911
 Vibration     3          0.595              1.979              5.026
 Vibration     4          0.599              1.966              4.032
 Vibration     5          0.599              1.964              3.955
 Vibration     6          0.600              1.963              3.904
 Vibration     7          0.605              1.947              3.394
 Vibration     8          0.613              1.919              2.876
 Vibration     9          0.628              1.871              2.363
 Vibration    10          0.637              1.842              2.150
 Vibration    11          0.646              1.815              1.986
 Vibration    12          0.659              1.773              1.775
 Vibration    13          0.664              1.759              1.713
 Vibration    14          0.678              1.717              1.555
 Vibration    15          0.684              1.698              1.494
 Vibration    16          0.697              1.660              1.377
 Vibration    17          0.701              1.650              1.350
 Vibration    18          0.711              1.622              1.275
 Vibration    19          0.737              1.548              1.108
 Vibration    20          0.744              1.530              1.071
 Vibration    21          0.751              1.510              1.034
 Vibration    22          0.778              1.440              0.913
 Vibration    23          0.804              1.373              0.812
 Vibration    24          0.814              1.348              0.778
 Vibration    25          0.839              1.288              0.702
 Vibration    26          0.871              1.215              0.620
 Vibration    27          0.906              1.137              0.542
 Vibration    28          0.949              1.049              0.464

                           ! Non-Optimized Parameters !
 Normal termination of Gaussian 16 at Fri Dec 11 23:52:40 2020.

 ----------------------------------------------------------------------
 # B3LYP/6-311++G(d,p) empiricaldispersion=gd3bj scf=xqc pop=npa geom=c
 heck
 ----------------------------------------------------------------------

 ---------------------------------------
 CID_106474625_JID_8903_Energie_neutraal
 ---------------------------------------
 Structure from the checkpoint file:  "JID_8903.chk"
 Charge =  0 Multiplicity = 1

 SCF Done:  E(RB3LYP) =  -840.220621618     A.U. after   15 cycles
 Normal termination of Gaussian 16 at Sat Dec 12 00:02:01 2020.

 ----------------------------------------------------------------------
 # B3LYP/6-311++G(d,p) empiricaldispersion=gd3bj scf=xqc pop=npa geom=c
 heck
 ----------------------------------------------------------------------

 -------------------------------------
 CID_106474625_JID_8903_Energie_kation
 -------------------------------------
 Structure from the checkpoint file:  "JID_8903.chk"
 Charge =  1 Multiplicity = 2

 SCF Done:  E(UB3LYP) =  -839.930305892     A.U. after   27 cycles
 Normal termination of Gaussian 16 at Sat Dec 12 00:25:49 2020.
 Gaussian 16:  ES64L-G16RevA.03 25-Dec-2016

 ----------------------------------------------------------------------
 # B3LYP/6-311++G(d,p) empiricaldispersion=gd3bj scf=xqc pop=npa geom=c
 heck
 ----------------------------------------------------------------------

 ------------------------------------
 CID_106474625_JID_8903_Energie_anion
 ------------------------------------
 Structure from the checkpoint file:  "JID_8903.chk"
 Charge = -1 Multiplicity = 2

                         Standard orientation:
 ---------------------------------------------------------------------
 Center     Atomic      Atomic             Coordinates (Angstroms)
 Number     Number       Type             X           Y           Z
 ---------------------------------------------------------------------
      1          6           0        1.194680    3.212004    0.196331
      2          7           0        1.128863    1.879899   -0.399277
      3          6           0        2.059638    0.920704    0.192927
      4          6           0        3.519311    1.336576   -0.036540
      5          6           0        4.482132    0.247567    0.430988
      6          8           0        4.223398   -0.994898   -0.212629
      7          6           0        2.923231   -1.463375    0.066256
      8          6           0        1.849461   -0.469812   -0.438823
      9          6           0        0.484680   -1.012535   -0.175406
     10          7           0       -0.455018   -0.532647    0.591119
     11          6           0       -1.479566   -1.448742    0.434985
     12          7           0       -1.195225   -2.444263   -0.367096
     13          8           0        0.128422   -2.157855   -0.781607
     14          6           0       -2.799712   -1.310317    1.122078
     15          6           0       -3.425515    0.092489    1.026200
     16          7           0       -4.102007    0.361589   -0.238874
     17          6           0       -4.918912    1.562903   -0.132455
     18          6           0       -3.189319    0.461924   -1.371593
     19          1           0        2.106397    3.730063   -0.117644
     20          1           0        1.168863    3.210953    1.302139
     21          1           0        0.344946    3.799923   -0.163633
     22          1           0        0.190730    1.517370   -0.240033
     23          1           0        1.900025    0.818621    1.285098
     24          1           0        3.666234    1.528995   -1.106168
     25          1           0        3.741523    2.264565    0.501752
     26          1           0        5.516416    0.503818    0.186946
     27          1           0        4.409847    0.120220    1.524913
     28          1           0        2.790169   -1.622082    1.150278
     29          1           0        2.816849   -2.426253   -0.438387
     30          1           0        1.971021   -0.373111   -1.524957
     31          1           0       -3.492879   -2.057188    0.725526
     32          1           0       -2.642587   -1.532813    2.185394
     33          1           0       -4.181478    0.164966    1.815453
     34          1           0       -2.649157    0.848375    1.253272
     35          1           0       -4.326445    2.478002    0.067196
     36          1           0       -5.469355    1.714837   -1.066604
     37          1           0       -5.647054    1.446817    0.677448
     38          1           0       -2.419038    1.247735   -1.238397
     39          1           0       -2.683418   -0.489912   -1.543636
     40          1           0       -3.763125    0.699764   -2.272849
 ---------------------------------------------------------------------

 SCF Done:  E(UB3LYP) =  -840.212463890     A.U. after   30 cycles

 The electronic state is 2-A.
 Alpha  occ. eigenvalues --  -19.10090 -19.04175 -14.24765 -14.21291 -14.21119
 Alpha  occ. eigenvalues --  -14.20027 -10.16224 -10.13400 -10.13116 -10.12899
 Alpha  occ. eigenvalues --  -10.11147 -10.10054 -10.09857 -10.09333 -10.08997
 Alpha  occ. eigenvalues --  -10.08901 -10.08505 -10.07780  -1.05044  -0.95875
 Alpha  occ. eigenvalues --   -0.83595  -0.82796  -0.81524  -0.77130  -0.70040
 Alpha  occ. eigenvalues --   -0.68478  -0.67091  -0.61228  -0.58845  -0.58090
 Alpha  occ. eigenvalues --   -0.57402  -0.52951  -0.51499  -0.49637  -0.48083
 Alpha  occ. eigenvalues --   -0.47508  -0.42014  -0.41048  -0.40624  -0.39289
 Alpha  occ. eigenvalues --   -0.38341  -0.37721  -0.37371  -0.36796  -0.36018
 Alpha  occ. eigenvalues --   -0.34882  -0.33570  -0.33274  -0.32236  -0.31388
 Alpha  occ. eigenvalues --   -0.30726  -0.30477  -0.29694  -0.28143  -0.27485
 Alpha  occ. eigenvalues --   -0.27414  -0.27042  -0.26600  -0.26439  -0.25581
 Alpha  occ. eigenvalues --   -0.24937  -0.22944  -0.22397  -0.21624  -0.19447
 Alpha  occ. eigenvalues --   -0.18629  -0.17237  -0.13676  -0.12610   0.04120
 Alpha virt. eigenvalues --    0.05851   0.06319   0.07239   0.07564   0.07999
 Alpha virt. eigenvalues --    0.08487   0.08947   0.09606   0.10077   0.10502
 Alpha virt. eigenvalues --    0.10802   0.11134   0.11330   0.11732   0.12385

  Beta  occ. eigenvalues --  -19.09916 -19.04166 -14.24559 -14.21288 -14.21142
  Beta  occ. eigenvalues --  -14.20022 -10.16027 -10.13365 -10.13103 -10.12846
  Beta  occ. eigenvalues --  -10.11140 -10.10070 -10.09831 -10.09306 -10.08971
  Beta  occ. eigenvalues --  -10.08892 -10.08507 -10.07765  -1.04754  -0.95852
  Beta  occ. eigenvalues --   -0.83512  -0.82741  -0.81483  -0.76843  -0.69989
  Beta  occ. eigenvalues --   -0.68442  -0.67006  -0.61196  -0.58794  -0.58010
  Beta  occ. eigenvalues --   -0.57284  -0.52903  -0.51400  -0.49461  -0.48001
  Beta  occ. eigenvalues --   -0.47445  -0.41949  -0.40943  -0.40402  -0.39192
  Beta  occ. eigenvalues --   -0.38278  -0.37652  -0.37157  -0.36735  -0.35815
  Beta  occ. eigenvalues --   -0.34807  -0.33543  -0.33217  -0.32188  -0.31285
  Beta  occ. eigenvalues --   -0.30689  -0.30398  -0.29657  -0.28038  -0.27419
  Beta  occ. eigenvalues --   -0.27358  -0.27013  -0.26536  -0.26371  -0.25516
  Beta  occ. eigenvalues --   -0.24829  -0.22794  -0.22302  -0.21255  -0.19334
  Beta  occ. eigenvalues --   -0.18183  -0.16698  -0.13646  -0.12568
  Beta virt. eigenvalues --    0.06262   0.06631   0.07515   0.07873   0.08128
  Beta virt. eigenvalues --    0.08487   0.08747   0.09157   0.09927   0.10326
  Beta virt. eigenvalues --    0.10590   0.10861   0.11302   0.11508   0.11909

 Mulliken charges and spin densities:
               1          2
     1  C    0.425062  -0.815629
     2  N    0.046095   0.049066
     3  C   -1.374754   0.298366
     4  C   -0.047801  -0.098820
     5  C    0.161659  -0.657657
     6  O   -0.131589   0.026702
     7  C   -0.281225  -0.317722
     8  C    0.087339   0.056575
     9  C   -0.654009   0.190173
    10  N    0.127478  -0.002372
    11  C    0.801576  -0.118308
    12  N   -0.364606   0.123399
    13  O    0.212406   0.023566
    14  C   -0.208376  -0.221625
    15  C   -0.167502  -0.304025
    16  N    0.022396   0.084328
    17  C    0.373911  -0.665178
    18  C   -0.267680  -0.134864
    19  H   -0.212261   0.351008
    20  H   -0.169112   0.304798
    21  H   -0.086680   0.216335
    22  H    0.479056  -0.177434
    23  H    0.135053   0.090365
    24  H    0.195628  -0.004275
    25  H   -0.244081   0.394768
    26  H   -0.129693   0.321297
    27  H   -0.004242   0.129331
    28  H    0.041097   0.122665
    29  H    0.194085   0.002248
    30  H    0.170390   0.107699
    31  H    0.230260  -0.032503
    32  H   -0.127486   0.307531
    33  H   -0.432587   0.600085
    34  H    0.233072  -0.085771
    35  H   -0.085767   0.198848
    36  H   -0.104491   0.222372
    37  H   -0.186217   0.316649
    38  H    0.051200   0.055635
    39  H    0.178990   0.004112
    40  H    0.113405   0.038262
 Sum of Mulliken charges =  -1.00000   1.00000

 Dipole moment (field-independent basis, Debye):
    X=              1.9462    Y=             -2.1154    Z=             -1.7917  Tot=              3.3871
 Quadrupole moment (field-independent basis, Debye-Ang):
   XX=           -199.1943   YY=           -162.1911   ZZ=           -140.1877
   XY=             -3.6897   XZ=              5.3397   YZ=             -5.5663

 Summary of Natural Population Analysis:

                                       Natural Population
                Natural  -----------------------------------------------
    Atom  No    Charge         Core      Valence    Rydberg      Total
 -----------------------------------------------------------------------
      C    1   -0.18040      0.99966     2.17274    0.00800     3.18040
      N    2   -0.34457      0.99972     2.83460    0.01024     3.84457
      C    3   -0.00396      0.99957     1.99058    0.01381     3.00396
      C    4   -0.20981      0.99961     2.20073    0.00947     3.20981
      C    5   -0.01038      0.99958     1.99701    0.01380     3.01038
      O    6   -0.29749      0.99989     3.28882    0.00878     4.29749
      C    7    0.00203      0.99956     1.98704    0.01137     2.99797
      C    8   -0.15596      0.99953     2.14626    0.01017     3.15596
      C    9    0.32255      0.99959     1.65856    0.01929     2.67745
      N   10   -0.29213      0.99966     2.78430    0.00817     3.79213
      C   11    0.17905      0.99964     1.80185    0.01946     2.82095
      N   12   -0.07459      0.99966     2.56307    0.01186     3.57459
      O   13   -0.16240      0.99985     3.15480    0.00775     4.16240
      C   14   -0.21634      0.99957     2.20682    0.00995     3.21634
      C   15   -0.08153      0.99961     2.06903    0.01289     3.08153
      N   16   -0.27866      0.99973     2.76671    0.01222     3.77866
      C   17   -0.17605      0.99965     2.16771    0.00869     3.17605
      C   18   -0.18045      0.99964     2.17285    0.00796     3.18045
      H   19    0.09011      0.00000     0.40864    0.00125     0.40989
      H   20    0.08100      0.00000     0.41776    0.00124     0.41900
      H   21    0.09616      0.00000     0.40290    0.00095     0.40384
      H   22    0.18437      0.00000     0.31133    0.00430     0.31563
      H   23    0.08496      0.00000     0.41269    0.00235     0.41504
      H   24    0.10136      0.00000     0.39736    0.00127     0.39864
      H   25    0.10619      0.00000     0.39222    0.00159     0.39381
      H   26    0.09191      0.00000     0.40694    0.00116     0.40809
      H   27    0.07797      0.00000     0.42070    0.00133     0.42203
      H   28    0.07951      0.00000     0.41915    0.00134     0.42049
      H   29    0.09665      0.00000     0.40213    0.00121     0.40335
      H   30    0.11678      0.00000     0.38159    0.00163     0.38322
      H   31    0.11217      0.00000     0.38636    0.00147     0.38783
      H   32    0.11161      0.00000     0.38710    0.00129     0.38839
      H   33    0.09759      0.00000     0.40061    0.00180     0.40241
      H   34    0.08800      0.00000     0.41003    0.00197     0.41200
      H   35    0.08082      0.00000     0.41767    0.00152     0.41918
      H   36    0.09278      0.00000     0.40616    0.00106     0.40722
      H   37    0.09545      0.00000     0.40329    0.00127     0.40455
      H   38    0.08178      0.00000     0.41701    0.00121     0.41822
      H   39    0.10146      0.00000     0.39724    0.00130     0.39854
      H   40    0.09246      0.00000     0.40672    0.00082     0.40754
 =======================================================================
   * Total *   -0.00000     17.99371    50.76908    0.23720    69.00000

 Normal termination of Gaussian 16 at Sat Dec 12 00:51:30 2020.
