 Gaussian 16, Revision A.03,

 -----------------------------------------------------------
 # opt freq B3LYP/6-31G(d) empiricaldispersion=gd3bj scf=xqc
 -----------------------------------------------------------

 -------------------------------
 CID_114356423_JID_5245_neutraal
 -------------------------------
 Symbolic Z-matrix:
 Charge =  0 Multiplicity = 1

 SCF Done:  E(RB3LYP) =  -693.595252673     A.U. after   13 cycles
 SCF Done:  E(RB3LYP) =  -693.601896079     A.U. after   11 cycles
 SCF Done:  E(RB3LYP) =  -693.602521804     A.U. after   11 cycles
 SCF Done:  E(RB3LYP) =  -693.601964454     A.U. after   11 cycles
 SCF Done:  E(RB3LYP) =  -693.602874490     A.U. after   10 cycles
 SCF Done:  E(RB3LYP) =  -693.603319334     A.U. after   10 cycles
 SCF Done:  E(RB3LYP) =  -693.603358147     A.U. after   10 cycles
 SCF Done:  E(RB3LYP) =  -693.603367497     A.U. after    9 cycles
 SCF Done:  E(RB3LYP) =  -693.603372399     A.U. after    9 cycles
 SCF Done:  E(RB3LYP) =  -693.603373063     A.U. after    7 cycles
 SCF Done:  E(RB3LYP) =  -693.603373149     A.U. after    7 cycles
 SCF Done:  E(RB3LYP) =  -693.603373200     A.U. after    6 cycles
 Optimization completed.
    -- Stationary point found.
 Normal termination of Gaussian 16 at Thu Dec 10 14:55:34 2020.

 --------------------------------------------------------------------
 #N Geom=AllCheck Guess=TCheck SCRF=Check GenChk RB3LYP/6-31G(d) Freq
 --------------------------------------------------------------------

 Structure from the checkpoint file:  "JID_5245.chk"
 -------------------------------
 CID_114356423_JID_5245_neutraal
 -------------------------------
 Charge =  0 Multiplicity = 1

 SCF Done:  E(RB3LYP) =  -693.603373200     A.U. after    1 cycles

  Exact polarizability: 152.441   1.701 134.309  -0.596   2.598 117.305
 Approx polarizability: 188.186   3.280 183.837  -3.886   3.679 181.190

                      1                      2                      3
                      A                      A                      A
 Frequencies --     35.6152                44.4330                73.5669
 Red. masses --      3.5984                 3.3813                 3.2047
 Frc consts  --      0.0027                 0.0039                 0.0102
 IR Inten    --      0.6684                 0.4688                 0.3820

                      4                      5                      6
                      A                      A                      A
 Frequencies --     82.0727               113.3092               149.0788
 Red. masses --      3.0641                 2.5754                 4.1952
 Frc consts  --      0.0122                 0.0195                 0.0549
 IR Inten    --      1.0706                 5.6805                 5.6794

                      7                      8                      9
                      A                      A                      A
 Frequencies --    176.7298               184.4518               198.7383
 Red. masses --      2.9823                 2.3709                 3.2847
 Frc consts  --      0.0549                 0.0475                 0.0764
 IR Inten    --      1.5012                 0.8162                 0.5171

                     10                     11                     12
                      A                      A                      A
 Frequencies --    210.9839               224.9618               242.1455
 Red. masses --      1.7380                 1.6606                 1.5385
 Frc consts  --      0.0456                 0.0495                 0.0531
 IR Inten    --      0.7507                 0.1704                 5.3212

                     13                     14                     15
                      A                      A                      A
 Frequencies --    265.7143               280.4242               308.4540
 Red. masses --      2.2601                 3.0624                 2.4031
 Frc consts  --      0.0940                 0.1419                 0.1347
 IR Inten    --      2.5011                 0.3930                 4.6635

                     16                     17                     18
                      A                      A                      A
 Frequencies --    315.8798               355.1568               362.1946
 Red. masses --      1.6087                 2.1955                 1.7065
 Frc consts  --      0.0946                 0.1632                 0.1319
 IR Inten    --      6.3791                 4.4900                 6.1062

                     19                     20                     21
                      A                      A                      A
 Frequencies --    389.1661               407.3670               430.5209
 Red. masses --      2.4905                 2.0509                 2.5395
 Frc consts  --      0.2222                 0.2005                 0.2773
 IR Inten    --      4.9963                16.6432                 2.7063

                     22                     23                     24
                      A                      A                      A
 Frequencies --    469.9968               497.3811               563.3120
 Red. masses --      2.5381                 3.1211                 2.6274
 Frc consts  --      0.3303                 0.4549                 0.4912
 IR Inten    --      5.9177                 1.4005                16.4713

                     25                     26                     27
                      A                      A                      A
 Frequencies --    615.2444               642.4651               678.3505
 Red. masses --      2.6618                 2.6265                 2.1234
 Frc consts  --      0.5936                 0.6387                 0.5757
 IR Inten    --      2.1661                 0.8815                 3.2109

                     28                     29                     30
                      A                      A                      A
 Frequencies --    735.7537               762.2258               813.9396
 Red. masses --      1.5735                 1.9992                 2.7022
 Frc consts  --      0.5019                 0.6844                 1.0548
 IR Inten    --     72.1942                35.3760                 4.3076

                     31                     32                     33
                      A                      A                      A
 Frequencies --    830.7872               858.7707               886.2517
 Red. masses --      1.5492                 2.7743                 2.6101
 Frc consts  --      0.6300                 1.2055                 1.2079
 IR Inten    --      3.8229                14.5468                22.2083

                     34                     35                     36
                      A                      A                      A
 Frequencies --    901.2434               916.3475               933.9479
 Red. masses --      1.5513                 2.3850                 2.0989
 Frc consts  --      0.7424                 1.1799                 1.0787
 IR Inten    --     14.0903                25.4982                 0.5205

                     37                     38                     39
                      A                      A                      A
 Frequencies --    954.5179               976.2900               990.1396
 Red. masses --      1.9535                 2.0682                 1.5168
 Frc consts  --      1.0487                 1.1615                 0.8761
 IR Inten    --     16.9595                57.4707                15.7268

                     40                     41                     42
                      A                      A                      A
 Frequencies --   1009.1028              1023.7954              1037.7657
 Red. masses --      1.8181                 1.5703                 1.8637
 Frc consts  --      1.0908                 0.9697                 1.1826
 IR Inten    --      2.8299                 4.6607                72.6797

                     43                     44                     45
                      A                      A                      A
 Frequencies --   1056.8957              1072.6004              1087.6526
 Red. masses --      1.8979                 2.5886                 1.7636
 Frc consts  --      1.2491                 1.7547                 1.2292
 IR Inten    --     10.5444                85.5967                11.0982

                     46                     47                     48
                      A                      A                      A
 Frequencies --   1092.6883              1118.8965              1125.0675
 Red. masses --      1.9400                 2.3782                 2.2081
 Frc consts  --      1.3647                 1.7542                 1.6468
 IR Inten    --     24.0999                40.3246                65.6979

                     49                     50                     51
                      A                      A                      A
 Frequencies --   1161.0108              1166.5057              1174.7584
 Red. masses --      2.0451                 2.7961                 2.3702
 Frc consts  --      1.6242                 2.2417                 1.9272
 IR Inten    --     31.9897                63.3601                47.2141

                     52                     53                     54
                      A                      A                      A
 Frequencies --   1196.7210              1206.3580              1223.0148
 Red. masses --      1.3642                 1.9821                 1.4059
 Frc consts  --      1.1511                 1.6996                 1.2390
 IR Inten    --      0.8144                20.8362                15.0311

                     55                     56                     57
                      A                      A                      A
 Frequencies --   1227.6368              1230.4954              1255.8448
 Red. masses --      1.6226                 1.5190                 1.3145
 Frc consts  --      1.4408                 1.3551                 1.2214
 IR Inten    --     19.6433                19.6892                22.1449

                     58                     59                     60
                      A                      A                      A
 Frequencies --   1267.9950              1287.2015              1298.3720
 Red. masses --      2.2078                 1.1533                 1.2234
 Frc consts  --      2.0915                 1.1259                 1.2151
 IR Inten    --     10.7306                 9.5854                 2.7940

                     61                     62                     63
                      A                      A                      A
 Frequencies --   1317.6078              1346.7565              1355.3692
 Red. masses --      1.4144                 1.1886                 1.4535
 Frc consts  --      1.4468                 1.2702                 1.5732
 IR Inten    --      5.0519                 0.4201                 9.2115

                     64                     65                     66
                      A                      A                      A
 Frequencies --   1378.3692              1383.0386              1392.7081
 Red. masses --      1.3712                 1.4841                 1.5002
 Frc consts  --      1.5349                 1.6726                 1.7144
 IR Inten    --      1.7847                15.5538                 2.9304

                     67                     68                     69
                      A                      A                      A
 Frequencies --   1402.1134              1409.9805              1412.6162
 Red. masses --      1.3421                 1.2878                 1.3300
 Frc consts  --      1.5545                 1.5084                 1.5637
 IR Inten    --      4.3258                 2.4707                 1.3235

                     70                     71                     72
                      A                      A                      A
 Frequencies --   1416.9077              1430.0427              1432.5773
 Red. masses --      1.3472                 1.3646                 1.2695
 Frc consts  --      1.5935                 1.6441                 1.5350
 IR Inten    --     23.3333                33.9381                18.6421

                     73                     74                     75
                      A                      A                      A
 Frequencies --   1444.6114              1454.9507              1471.6505
 Red. masses --      1.3833                 1.3134                 1.2108
 Frc consts  --      1.7009                 1.6381                 1.5450
 IR Inten    --      3.5027                20.9406                70.1054

                     76                     77                     78
                      A                      A                      A
 Frequencies --   1502.0415              1506.1375              1511.2133
 Red. masses --      1.1502                 1.0806                 1.0766
 Frc consts  --      1.5289                 1.4443                 1.4486
 IR Inten    --      7.1119                 3.0343                 0.5190

                     79                     80                     81
                      A                      A                      A
 Frequencies --   1514.6496              1516.6155              1523.7998
 Red. masses --      1.0481                 1.0880                 1.0702
 Frc consts  --      1.4166                 1.4745                 1.4641
 IR Inten    --      4.4487                 0.1587                 5.4484

                     82                     83                     84
                      A                      A                      A
 Frequencies --   1530.1441              1532.3876              1537.5540
 Red. masses --      1.0646                 1.0687                 1.0644
 Frc consts  --      1.4686                 1.4786                 1.4826
 IR Inten    --      9.8357                13.7139                 4.5796

                     85                     86                     87
                      A                      A                      A
 Frequencies --   1541.6544              1553.8095              1700.7970
 Red. masses --      1.0913                 1.0888                 1.0862
 Frc consts  --      1.5281                 1.5488                 1.8512
 IR Inten    --      5.9094                 3.1034                29.5395

                     88                     89                     90
                      A                      A                      A
 Frequencies --   2970.1072              2993.3785              2995.2539
 Red. masses --      1.0643                 1.0395                 1.0732
 Frc consts  --      5.5316                 5.4880                 5.6728
 IR Inten    --     54.7273                89.8956                75.1917

                     91                     92                     93
                      A                      A                      A
 Frequencies --   3011.5340              3031.0004              3033.4708
 Red. masses --      1.0729                 1.0647                 1.0637
 Frc consts  --      5.7330                 5.7628                 5.7670
 IR Inten    --     41.5724                18.4732                23.0143

                     94                     95                     96
                      A                      A                      A
 Frequencies --   3036.7261              3041.3182              3047.9327
 Red. masses --      1.1028                 1.0959                 1.0674
 Frc consts  --      5.9918                 5.9726                 5.8421
 IR Inten    --     83.9372                19.1643                60.1318

                     97                     98                     99
                      A                      A                      A
 Frequencies --   3048.8708              3055.1807              3065.1776
 Red. masses --      1.0755                 1.0462                 1.0831
 Frc consts  --      5.8903                 5.7537                 5.9958
 IR Inten    --      9.2965                15.1269                34.5698

                    100                    101                    102
                      A                      A                      A
 Frequencies --   3068.7564              3076.3314              3091.2344
 Red. masses --      1.0952                 1.1036                 1.0849
 Frc consts  --      6.0765                 6.1533                 6.1079
 IR Inten    --     66.9089                54.6572                26.6920

                    103                    104                    105
                      A                      A                      A
 Frequencies --   3104.7002              3119.7205              3123.0777
 Red. masses --      1.0964                 1.1007                 1.0901
 Frc consts  --      6.2267                 6.3117                 6.2643
 IR Inten    --     46.2927                35.0016                52.8336

                    106                    107                    108
                      A                      A                      A
 Frequencies --   3130.1989              3133.6023              3135.1873
 Red. masses --      1.1000                 1.0925                 1.0971
 Frc consts  --      6.3504                 6.3207                 6.3538
 IR Inten    --     36.1048                24.8116                31.7304

                    109                    110                    111
                      A                      A                      A
 Frequencies --   3459.5067              3539.5594              3573.3179
 Red. masses --      1.0500                 1.0916                 1.0645
 Frc consts  --      7.4039                 8.0579                 8.0081
 IR Inten    --      0.9429                 2.7676               153.2344

 - Thermochemistry -
 -------------------
 Temperature   298.150 Kelvin.  Pressure   1.00000 Atm.
 Atom     1 has atomic number  6 and mass  12.00000

 Molecular mass:   216.18378 amu.
 Principal axes and moments of inertia in atomic units:
                           1         2         3
     Eigenvalues --  2202.778674257.709415634.09840
           X            1.00000  -0.00197   0.00239
           Y            0.00197   1.00000  -0.00093
           Z           -0.00239   0.00093   1.00000
 This molecule is an asymmetric top.
 Rotational symmetry number  1.
 Warning -- assumption of classical behavior for rotation
           may cause significant error
 Rotational temperatures (Kelvin)      0.03932     0.02034     0.01537
 Rotational constants (GHZ):           0.81930     0.42388     0.32032
 Zero-point vibrational energy     942678.6 (Joules/Mol)
                                  225.30559 (Kcal/Mol)
 Warning -- explicit consideration of  25 degrees of freedom as
           vibrations may cause significant error
 Vibrational temperatures:     51.24    63.93   105.85   118.08   163.03
          (Kelvin)            214.49   254.27   265.39   285.94   303.56
                              323.67   348.39   382.30   403.47   443.80
                              454.48   510.99   521.12   559.92   586.11
                              619.42   676.22   715.62   810.48   885.20
                              924.36   976.00  1058.59  1096.67  1171.08
                             1195.32  1235.58  1275.12  1296.69  1318.42
                             1343.74  1373.34  1404.66  1424.59  1451.87
                             1473.01  1493.11  1520.64  1543.23  1564.89
                             1572.13  1609.84  1618.72  1670.44  1678.34
                             1690.22  1721.81  1735.68  1759.65  1766.30
                             1770.41  1806.88  1824.36  1852.00  1868.07
                             1895.74  1937.68  1950.07  1983.17  1989.88
                             2003.80  2017.33  2028.65  2032.44  2038.61
                             2057.51  2061.16  2078.47  2093.35  2117.38
                             2161.10  2167.00  2174.30  2179.24  2182.07
                             2192.41  2201.54  2204.76  2212.20  2218.10
                             2235.59  2447.07  4273.32  4306.80  4309.50
                             4332.93  4360.93  4364.49  4369.17  4375.78
                             4385.30  4386.65  4395.72  4410.11  4415.26
                             4426.15  4447.60  4466.97  4488.58  4493.41
                             4503.66  4508.55  4510.84  4977.46  5092.64
                             5141.21

 Zero-point correction=                           0.359047 (Hartree/Particle)
 Thermal correction to Energy=                    0.375537
 Thermal correction to Enthalpy=                  0.376481
 Thermal correction to Gibbs Free Energy=         0.315391
 Sum of electronic and zero-point Energies=           -693.244326
 Sum of electronic and thermal Energies=              -693.227836
 Sum of electronic and thermal Enthalpies=            -693.226892
 Sum of electronic and thermal Free Energies=         -693.287982

                     E (Thermal)             CV                S
                      KCal/Mol        Cal/Mol-Kelvin    Cal/Mol-Kelvin
 Total                  235.653             63.271            128.576
 Electronic               0.000              0.000              0.000
 Translational            0.889              2.981             42.016
 Rotational               0.889              2.981             32.335
 Vibrational            233.876             57.310             54.224
 Vibration     1          0.594              1.982              5.489
 Vibration     2          0.595              1.980              5.051
 Vibration     3          0.599              1.966              4.056
 Vibration     4          0.600              1.961              3.841
 Vibration     5          0.607              1.938              3.211
 Vibration     6          0.618              1.904              2.684
 Vibration     7          0.628              1.871              2.363
 Vibration     8          0.631              1.861              2.283
 Vibration     9          0.637              1.842              2.145
 Vibration    10          0.643              1.824              2.035
 Vibration    11          0.650              1.803              1.919
 Vibration    12          0.658              1.776              1.787
 Vibration    13          0.672              1.736              1.624
 Vibration    14          0.680              1.710              1.531
 Vibration    15          0.698              1.658              1.371
 Vibration    16          0.703              1.643              1.331
 Vibration    17          0.731              1.565              1.143
 Vibration    18          0.736              1.550              1.113
 Vibration    19          0.757              1.493              1.003
 Vibration    20          0.772              1.454              0.936
 Vibration    21          0.792              1.404              0.857
 Vibration    22          0.827              1.317              0.738
 Vibration    23          0.853              1.256              0.665
 Vibration    24          0.919              1.111              0.517
 Vibration    25          0.975              1.000              0.424

 Optimization completed.
    -- Stationary point found.
 Normal termination of Gaussian 16 at Thu Dec 10 15:12:04 2020.

 ----------------------------------------------------------------------
 # B3LYP/6-311++G(d,p) empiricaldispersion=gd3bj scf=xqc pop=npa geom=c
 heck
 ----------------------------------------------------------------------

 ---------------------------------------
 CID_114356423_JID_5245_Energie_neutraal
 ---------------------------------------
 Structure from the checkpoint file:  "JID_5245.chk"
 Charge =  0 Multiplicity = 1

 SCF Done:  E(RB3LYP) =  -693.815660249     A.U. after   14 cycles
 Normal termination of Gaussian 16 at Thu Dec 10 15:20:09 2020.

 ----------------------------------------------------------------------
 # B3LYP/6-311++G(d,p) empiricaldispersion=gd3bj scf=xqc pop=npa geom=c
 heck
 ----------------------------------------------------------------------

 -------------------------------------
 CID_114356423_JID_5245_Energie_kation
 -------------------------------------
 Structure from the checkpoint file:  "JID_5245.chk"
 Charge =  1 Multiplicity = 2

 SCF Done:  E(UB3LYP) =  -693.554012589     A.U. after   20 cycles
 Normal termination of Gaussian 16 at Thu Dec 10 15:36:40 2020.
 Gaussian 16:  ES64L-G16RevA.03 25-Dec-2016

 ----------------------------------------------------------------------
 # B3LYP/6-311++G(d,p) empiricaldispersion=gd3bj scf=xqc pop=npa geom=c
 heck
 ----------------------------------------------------------------------

 ------------------------------------
 CID_114356423_JID_5245_Energie_anion
 ------------------------------------
 Structure from the checkpoint file:  "JID_5245.chk"
 Charge = -1 Multiplicity = 2

                         Standard orientation:
 ---------------------------------------------------------------------
 Center     Atomic      Atomic             Coordinates (Angstroms)
 Number     Number       Type             X           Y           Z
 ---------------------------------------------------------------------
      1          6           0       -1.472043   -2.649002    0.412732
      2          6           0       -1.275322   -1.404082   -0.465941
      3          6           0       -2.597397   -0.947921   -1.124298
      4          6           0       -3.546522   -0.298652   -0.108128
      5          6           0       -2.837593    0.834822    0.643337
      6          6           0       -1.509258    0.349394    1.246130
      7          7           0       -0.618856   -0.335453    0.301844
      8          6           0        0.374213    0.476447   -0.402106
      9          6           0       -0.109853    1.766474   -1.103002
     10          8           0       -0.297382    2.857125   -0.217396
     11          6           0        1.537279    0.772239    0.586358
     12          6           0        2.380155   -0.482525    0.799454
     13          8           0        3.070963   -0.754285   -0.410658
     14          6           0        3.832228   -1.939588   -0.352459
     15          7           0        2.334093    1.937032    0.152582
     16          1           0       -0.509557   -2.975979    0.818574
     17          1           0       -1.903132   -3.469987   -0.171896
     18          1           0       -2.142259   -2.457569    1.256463
     19          1           0       -0.578945   -1.684312   -1.264878
     20          1           0       -2.366878   -0.222391   -1.915297
     21          1           0       -3.081701   -1.803286   -1.613199
     22          1           0       -3.891962   -1.054719    0.610607
     23          1           0       -4.443748    0.076126   -0.615647
     24          1           0       -3.476854    1.218774    1.449185
     25          1           0       -2.643297    1.675923   -0.030302
     26          1           0       -1.729769   -0.339950    2.074591
     27          1           0       -0.975613    1.202434    1.669248
     28          1           0        0.783875   -0.164367   -1.191774
     29          1           0        0.615407    2.027959   -1.889830
     30          1           0       -1.066137    1.579565   -1.597739
     31          1           0        0.617500    3.055373    0.072157
     32          1           0        1.093721    1.038800    1.550686
     33          1           0        3.105152   -0.328535    1.618190
     34          1           0        1.724413   -1.322001    1.073372
     35          1           0        4.605746   -1.887921    0.430708
     36          1           0        3.198355   -2.817961   -0.153258
     37          1           0        4.317782   -2.062794   -1.324097
     38          1           0        3.028411    2.149353    0.868758
     39          1           0        2.868864    1.668069   -0.673636
 ---------------------------------------------------------------------

 SCF Done:  E(UB3LYP) =  -693.802892070     A.U. after   29 cycles

 The electronic state is 2-A.
 Alpha  occ. eigenvalues --  -19.02753 -19.00940 -14.20403 -14.19708 -10.11016
 Alpha  occ. eigenvalues --  -10.10968 -10.10939 -10.10140 -10.10119 -10.09810
 Alpha  occ. eigenvalues --  -10.08932 -10.07211 -10.06929 -10.06505 -10.05759
 Alpha  occ. eigenvalues --   -0.94074  -0.91589  -0.82723  -0.79355  -0.70420
 Alpha  occ. eigenvalues --   -0.67180  -0.65335  -0.62747  -0.59170  -0.57230
 Alpha  occ. eigenvalues --   -0.54143  -0.52350  -0.51153  -0.47177  -0.44736
 Alpha  occ. eigenvalues --   -0.41549  -0.40672  -0.38651  -0.38077  -0.37894
 Alpha  occ. eigenvalues --   -0.37288  -0.35930  -0.35675  -0.33637  -0.33224
 Alpha  occ. eigenvalues --   -0.32842  -0.31764  -0.31542  -0.30489  -0.29530
 Alpha  occ. eigenvalues --   -0.28599  -0.27908  -0.26771  -0.26390  -0.25295
 Alpha  occ. eigenvalues --   -0.24345  -0.23925  -0.23050  -0.22603  -0.21991
 Alpha  occ. eigenvalues --   -0.21247  -0.17620  -0.16594  -0.16054  -0.10235
 Alpha  occ. eigenvalues --    0.04255
 Alpha virt. eigenvalues --    0.06045   0.06832   0.07369   0.07981   0.08457
 Alpha virt. eigenvalues --    0.08928   0.09721   0.09903   0.10560   0.10805
 Alpha virt. eigenvalues --    0.11428   0.11622   0.11722   0.12773   0.13080

  Beta  occ. eigenvalues --  -19.02738 -19.00935 -14.20370 -14.19709 -10.10971
  Beta  occ. eigenvalues --  -10.10962 -10.10911 -10.10131 -10.10113 -10.09808
  Beta  occ. eigenvalues --  -10.08923 -10.07201 -10.06919 -10.06500 -10.05731
  Beta  occ. eigenvalues --   -0.94054  -0.91578  -0.82714  -0.79301  -0.70400
  Beta  occ. eigenvalues --   -0.67161  -0.65296  -0.62710  -0.59134  -0.57161
  Beta  occ. eigenvalues --   -0.54112  -0.52293  -0.51118  -0.47137  -0.44707
  Beta  occ. eigenvalues --   -0.41509  -0.40631  -0.38620  -0.38042  -0.37869
  Beta  occ. eigenvalues --   -0.37237  -0.35902  -0.35652  -0.33601  -0.33195
  Beta  occ. eigenvalues --   -0.32817  -0.31740  -0.31526  -0.30467  -0.29499
  Beta  occ. eigenvalues --   -0.28566  -0.27884  -0.26750  -0.26350  -0.25272
  Beta  occ. eigenvalues --   -0.24323  -0.23904  -0.23010  -0.22564  -0.21967
  Beta  occ. eigenvalues --   -0.21228  -0.17608  -0.16565  -0.16020  -0.10225
  Beta virt. eigenvalues --    0.06221   0.07058   0.07404   0.07706   0.08441
  Beta virt. eigenvalues --    0.08890   0.09199   0.09941   0.10185   0.10981
  Beta virt. eigenvalues --    0.11151   0.11633   0.11956   0.12069   0.12918

 Mulliken charges and spin densities:
               1          2
     1  C    1.074838  -1.701648
     2  C   -1.267907   1.434236
     3  C    0.146203  -0.377319
     4  C   -0.063054  -0.481279
     5  C   -0.331049   0.068777
     6  C    0.101313  -0.244752
     7  N    0.319704   0.126761
     8  C    0.254561  -1.003447
     9  C    0.014323  -0.790059
    10  O   -0.262233   0.043453
    11  C   -0.029244  -0.038033
    12  C   -0.576208   0.175987
    13  O   -0.153911   0.064030
    14  C    0.943828  -1.189729
    15  N   -0.451263   0.135303
    16  H    0.021627   0.128549
    17  H   -0.278004   0.419797
    18  H    0.071395   0.063636
    19  H   -0.242094   0.413891
    20  H   -0.008251   0.127528
    21  H   -0.078607   0.240032
    22  H    0.046526   0.087889
    23  H   -0.013966   0.174551
    24  H    0.038606   0.105454
    25  H    0.141312   0.031017
    26  H   -0.139742   0.307426
    27  H    0.201273  -0.045421
    28  H    0.363359  -0.179469
    29  H   -0.041598   0.164288
    30  H    0.274206  -0.116050
    31  H    0.278774   0.036167
    32  H   -0.030120   0.215612
    33  H   -0.688645   0.852970
    34  H    0.349164  -0.148562
    35  H   -0.338825   0.472054
    36  H   -0.274129   0.402557
    37  H   -0.356123   0.491749
    38  H   -0.238897   0.500341
    39  H    0.222858   0.031713
 Sum of Mulliken charges =  -1.00000   1.00000

 Dipole moment (field-independent basis, Debye):
    X=             -5.4547    Y=              2.1631    Z=             -1.4205  Tot=              6.0375
 Quadrupole moment (field-independent basis, Debye-Ang):
   XX=           -174.8989   YY=           -152.8339   ZZ=           -127.4975
   XY=              1.6458   XZ=             -6.8931   YZ=             -3.3696

 Summary of Natural Population Analysis:

                                       Natural Population
                Natural  -----------------------------------------------
    Atom  No    Charge         Core      Valence    Rydberg      Total
 -----------------------------------------------------------------------
      C    1   -0.28807      0.99964     2.28238    0.00605     3.28807
      C    2   -0.00083      0.99958     1.98860    0.01265     3.00083
      C    3   -0.19654      0.99961     2.18843    0.00850     3.19654
      C    4   -0.19293      0.99963     2.18503    0.00828     3.19293
      C    5   -0.19907      0.99962     2.19241    0.00703     3.19907
      C    6   -0.08762      0.99960     2.07653    0.01149     3.08762
      N    7   -0.29242      0.99970     2.77779    0.01493     3.79242
      C    8   -0.01536      0.99954     2.00097    0.01485     3.01536
      C    9   -0.02042      0.99956     2.00884    0.01201     3.02042
      O   10   -0.38616      0.99990     3.37922    0.00704     4.38616
      C   11   -0.02694      0.99956     2.01133    0.01604     3.02694
      C   12   -0.01355      0.99954     2.00108    0.01292     3.01355
      O   13   -0.30502      0.99988     3.29586    0.00927     4.30502
      C   14   -0.09246      0.99962     2.08475    0.00808     3.09246
      N   15   -0.43829      0.99976     2.92725    0.01128     3.93829
      H   16    0.10421      0.00000     0.39442    0.00138     0.39579
      H   17    0.09783      0.00000     0.40119    0.00098     0.40217
      H   18    0.09555      0.00000     0.40342    0.00103     0.40445
      H   19    0.09584      0.00000     0.40227    0.00189     0.40416
      H   20    0.09351      0.00000     0.40521    0.00128     0.40649
      H   21    0.09850      0.00000     0.40062    0.00089     0.40150
      H   22    0.09282      0.00000     0.40600    0.00117     0.40718
      H   23    0.09641      0.00000     0.40268    0.00091     0.40359
      H   24    0.09537      0.00000     0.40369    0.00094     0.40463
      H   25    0.09981      0.00000     0.39869    0.00150     0.40019
      H   26    0.08810      0.00000     0.41071    0.00119     0.41190
      H   27    0.10391      0.00000     0.39467    0.00142     0.39609
      H   28    0.10404      0.00000     0.39342    0.00254     0.39596
      H   29    0.07884      0.00000     0.41996    0.00120     0.42116
      H   30    0.08610      0.00000     0.41246    0.00144     0.41390
      H   31    0.24308      0.00000     0.25349    0.00344     0.25692
      H   32    0.09754      0.00000     0.40054    0.00192     0.40246
      H   33    0.08152      0.00000     0.41604    0.00243     0.41848
      H   34    0.09009      0.00000     0.40763    0.00228     0.40991
      H   35    0.07940      0.00000     0.41798    0.00262     0.42060
      H   36    0.07906      0.00000     0.41881    0.00213     0.42094
      H   37    0.08886      0.00000     0.40959    0.00155     0.41114
      H   38    0.18285      0.00000     0.31467    0.00248     0.31715
      H   39    0.18242      0.00000     0.31510    0.00247     0.31758
 =======================================================================
   * Total *    0.00000     14.99475    44.80374    0.20151    60.00000

 Normal termination of Gaussian 16 at Thu Dec 10 16:00:35 2020.
