 Gaussian 16, Revision A.03,

 -----------------------------------------------------------
 # opt freq B3LYP/6-31G(d) empiricaldispersion=gd3bj scf=xqc
 -----------------------------------------------------------

 -------------------------------
 CID_150408026_JID_1728_neutraal
 -------------------------------
 Symbolic Z-matrix:
 Charge =  0 Multiplicity = 1

 SCF Done:  E(RB3LYP) =  -1268.81406865     A.U. after   16 cycles
 SCF Done:  E(RB3LYP) =  -1268.82569719     A.U. after   14 cycles
 SCF Done:  E(RB3LYP) =  -1268.82622671     A.U. after   14 cycles
 SCF Done:  E(RB3LYP) =  -1268.82550851     A.U. after   15 cycles
 SCF Done:  E(RB3LYP) =  -1268.82738477     A.U. after   14 cycles
 SCF Done:  E(RB3LYP) =  -1268.82841110     A.U. after   13 cycles
 SCF Done:  E(RB3LYP) =  -1268.82871669     A.U. after   13 cycles
 SCF Done:  E(RB3LYP) =  -1268.82933855     A.U. after   16 cycles
 SCF Done:  E(RB3LYP) =  -1268.82983765     A.U. after   13 cycles
 SCF Done:  E(RB3LYP) =  -1268.82903576     A.U. after   15 cycles
 SCF Done:  E(RB3LYP) =  -1268.83110804     A.U. after   13 cycles
 SCF Done:  E(RB3LYP) =  -1268.83112113     A.U. after   12 cycles
 SCF Done:  E(RB3LYP) =  -1268.83112826     A.U. after   10 cycles
 SCF Done:  E(RB3LYP) =  -1268.83112971     A.U. after    9 cycles
 SCF Done:  E(RB3LYP) =  -1268.83113010     A.U. after    9 cycles
 SCF Done:  E(RB3LYP) =  -1268.83113005     A.U. after    8 cycles
 Optimization completed.
    -- Stationary point found.
 Normal termination of Gaussian 16 at Tue Dec  8 21:04:39 2020.

 --------------------------------------------------------------------
 #N Geom=AllCheck Guess=TCheck SCRF=Check GenChk RB3LYP/6-31G(d) Freq
 --------------------------------------------------------------------

 Structure from the checkpoint file:  "JID_1728.chk"
 -------------------------------
 CID_150408026_JID_1728_neutraal
 -------------------------------
 Charge =  0 Multiplicity = 1

 SCF Done:  E(RB3LYP) =  -1268.83113005     A.U. after    1 cycles

  Exact polarizability: 104.476  -8.129 124.411  -0.832  -0.473  78.700
 Approx polarizability: 156.473 -20.004 221.761   0.037  -9.200 133.368

                      1                      2                      3
                      A                      A                      A
 Frequencies --     38.2607                51.6804                89.8178
 Red. masses --      6.3180                 7.5099                 3.8937
 Frc consts  --      0.0054                 0.0118                 0.0185
 IR Inten    --      0.6685                 0.2533                 0.9663

                      4                      5                      6
                      A                      A                      A
 Frequencies --    112.9134               132.6553               170.5385
 Red. masses --      2.8271                 8.7121                 7.4186
 Frc consts  --      0.0212                 0.0903                 0.1271
 IR Inten    --      1.1465                 0.3687                 2.7480

                      7                      8                      9
                      A                      A                      A
 Frequencies --    192.0074               208.8601               226.3572
 Red. masses --      2.4550                 3.3842                 1.0713
 Frc consts  --      0.0533                 0.0870                 0.0323
 IR Inten    --      0.3429                 0.0662                 0.1534

                     10                     11                     12
                      A                      A                      A
 Frequencies --    262.7523               271.3869               308.1480
 Red. masses --      1.9919                 2.7147                 4.3907
 Frc consts  --      0.0810                 0.1178                 0.2456
 IR Inten    --      0.6778                 2.6894                 2.6656

                     13                     14                     15
                      A                      A                      A
 Frequencies --    333.3989               395.7706               399.8238
 Red. masses --      3.4219                 6.6184                12.4214
 Frc consts  --      0.2241                 0.6108                 1.1699
 IR Inten    --      0.1396                11.0458                 0.5927

                     16                     17                     18
                      A                      A                      A
 Frequencies --    422.1117               498.1143               543.9945
 Red. masses --      5.8582                 5.9193                 9.7128
 Frc consts  --      0.6150                 0.8653                 1.6935
 IR Inten    --     18.5612                86.9459                39.8129

                     19                     20                     21
                      A                      A                      A
 Frequencies --    565.7709               636.1356               687.2417
 Red. masses --     13.8866                 4.3524                 5.3523
 Frc consts  --      2.6190                 1.0377                 1.4894
 IR Inten    --     10.1502                39.0438                88.3896

                     22                     23                     24
                      A                      A                      A
 Frequencies --    697.2568               714.9151               773.7484
 Red. masses --     12.9750                 4.6296                 1.2100
 Frc consts  --      3.7166                 1.3941                 0.4268
 IR Inten    --     21.0515                21.4695                13.4912

                     25                     26                     27
                      A                      A                      A
 Frequencies --    989.4303               998.5139              1061.9996
 Red. masses --      1.9591                 1.6178                 1.4089
 Frc consts  --      1.1300                 0.9503                 0.9363
 IR Inten    --      5.2752                 3.7039                 0.6180

                     28                     29                     30
                      A                      A                      A
 Frequencies --   1087.1031              1091.0276              1101.6792
 Red. masses --      1.9255                 1.5316                 2.0577
 Frc consts  --      1.3407                 1.0741                 1.4714
 IR Inten    --      2.6649                16.7196                26.9608

                     31                     32                     33
                      A                      A                      A
 Frequencies --   1131.7961              1256.0510              1288.0388
 Red. masses --      7.0712                 1.4423                 3.5267
 Frc consts  --      5.3368                 1.3407                 3.4473
 IR Inten    --    128.8428                57.2732               129.0236

                     34                     35                     36
                      A                      A                      A
 Frequencies --   1295.7035              1302.2798              1327.5214
 Red. masses --      1.3875                 1.2464                 1.3079
 Frc consts  --      1.3724                 1.2454                 1.3581
 IR Inten    --     14.2270                 5.1463                12.2717

                     37                     38                     39
                      A                      A                      A
 Frequencies --   1340.9454              1437.9488              1445.8706
 Red. masses --     11.9471                 1.2048                 1.2172
 Frc consts  --     12.6571                 1.4678                 1.4993
 IR Inten    --    164.6826                 5.0851                 4.3096

                     40                     41                     42
                      A                      A                      A
 Frequencies --   1496.8711              1515.4273              1517.8688
 Red. masses --      1.0850                 1.0427                 1.0391
 Frc consts  --      1.4324                 1.4109                 1.4105
 IR Inten    --      4.6965                 5.0578                 5.4109

                     43                     44                     45
                      A                      A                      A
 Frequencies --   1527.6285              1536.3027              2268.1931
 Red. masses --      1.0454                 1.0464                13.9737
 Frc consts  --      1.4374                 1.4551                42.3567
 IR Inten    --      9.2274                 4.6496               494.5675

                     46                     47                     48
                      A                      A                      A
 Frequencies --   3058.1771              3080.6789              3087.8603
 Red. masses --      1.0400                 1.0349                 1.0845
 Frc consts  --      5.7308                 5.7868                 6.0927
 IR Inten    --     22.8645                 5.1379                 1.2744

                     49                     50                     51
                      A                      A                      A
 Frequencies --   3091.4221              3123.6746              3146.5057
 Red. masses --      1.0629                 1.1008                 1.0986
 Frc consts  --      5.9849                 6.3284                 6.4086
 IR Inten    --     14.1421                13.5392                 4.3655

                     52                     53                     54
                      A                      A                      A
 Frequencies --   3154.6795              3162.0529              3170.4000
 Red. masses --      1.1041                 1.1031                 1.1023
 Frc consts  --      6.4739                 6.4982                 6.5282
 IR Inten    --      4.0040                17.9388                 7.2789

 - Thermochemistry -
 -------------------
 Temperature   298.150 Kelvin.  Pressure   1.00000 Atm.
 Atom     1 has atomic number  6 and mass  12.00000

 Molecular mass:   195.01362 amu.
 Principal axes and moments of inertia in atomic units:
                           1         2         3
     Eigenvalues --  1799.658552163.986843087.17179
           X            0.99384   0.10961   0.01612
           Y           -0.10899   0.99342  -0.03531
           Z           -0.01988   0.03333   0.99925
 This molecule is an asymmetric top.
 Rotational symmetry number  1.
 Warning -- assumption of classical behavior for rotation
           may cause significant error
 Rotational temperatures (Kelvin)      0.04813     0.04003     0.02806
 Rotational constants (GHZ):           1.00282     0.83399     0.58459
 Zero-point vibrational energy     387753.4 (Joules/Mol)
                                   92.67530 (Kcal/Mol)
 Warning -- explicit consideration of  19 degrees of freedom as
           vibrations may cause significant error
 Vibrational temperatures:     55.05    74.36   129.23   162.46   190.86
          (Kelvin)            245.37   276.26   300.50   325.68   378.04
                              390.47   443.36   479.69   569.43   575.26
                              607.32   716.68   782.69   814.02   915.26
                              988.79  1003.20  1028.60  1113.25  1423.57
                             1436.64  1527.98  1564.10  1569.75  1585.07
                             1628.40  1807.18  1853.20  1864.23  1873.69
                             1910.01  1929.32  2068.89  2080.29  2153.66
                             2180.36  2183.87  2197.92  2210.40  3263.42
                             4400.03  4432.41  4442.74  4447.87  4494.27
                             4527.12  4538.88  4549.49  4561.50

 Zero-point correction=                           0.147687 (Hartree/Particle)
 Thermal correction to Energy=                    0.160697
 Thermal correction to Enthalpy=                  0.161641
 Thermal correction to Gibbs Free Energy=         0.107587
 Sum of electronic and zero-point Energies=          -1268.683443
 Sum of electronic and thermal Energies=             -1268.670433
 Sum of electronic and thermal Enthalpies=           -1268.669489
 Sum of electronic and thermal Free Energies=        -1268.723544

                     E (Thermal)             CV                S
                      KCal/Mol        Cal/Mol-Kelvin    Cal/Mol-Kelvin
 Total                  100.839             45.472            113.768
 Electronic               0.000              0.000              0.000
 Translational            0.889              2.981             41.709
 Rotational               0.889              2.981             30.864
 Vibrational             99.061             39.510             41.194
 Vibration     1          0.594              1.982              5.347
 Vibration     2          0.596              1.977              4.752
 Vibration     3          0.602              1.956              3.664
 Vibration     4          0.607              1.939              3.218
 Vibration     5          0.613              1.921              2.907
 Vibration     6          0.626              1.879              2.430
 Vibration     7          0.634              1.851              2.208
 Vibration     8          0.642              1.827              2.054
 Vibration     9          0.650              1.801              1.908
 Vibration    10          0.670              1.741              1.643
 Vibration    11          0.675              1.726              1.587
 Vibration    12          0.698              1.658              1.372
 Vibration    13          0.715              1.609              1.244
 Vibration    14          0.763              1.479              0.978
 Vibration    15          0.766              1.470              0.963
 Vibration    16          0.784              1.422              0.885
 Vibration    17          0.854              1.254              0.663
 Vibration    18          0.899              1.153              0.557
 Vibration    19          0.922              1.105              0.512

 Optimization completed.
    -- Stationary point found.
 Normal termination of Gaussian 16 at Tue Dec  8 21:09:20 2020.

 ----------------------------------------------------------------------
 # B3LYP/6-311++G(d,p) empiricaldispersion=gd3bj scf=xqc pop=npa geom=c
 heck
 ----------------------------------------------------------------------

 ---------------------------------------
 CID_150408026_JID_1728_Energie_neutraal
 ---------------------------------------
 Structure from the checkpoint file:  "JID_1728.chk"
 Charge =  0 Multiplicity = 1

 SCF Done:  E(RB3LYP) =  -1269.02254204     A.U. after   16 cycles
 Normal termination of Gaussian 16 at Tue Dec  8 21:12:52 2020.

 ----------------------------------------------------------------------
 # B3LYP/6-311++G(d,p) empiricaldispersion=gd3bj scf=xqc pop=npa geom=c
 heck
 ----------------------------------------------------------------------

 -------------------------------------
 CID_150408026_JID_1728_Energie_kation
 -------------------------------------
 Structure from the checkpoint file:  "JID_1728.chk"
 Charge =  1 Multiplicity = 2

 SCF Done:  E(UB3LYP) =  -1268.68881719     A.U. after   24 cycles
 Normal termination of Gaussian 16 at Tue Dec  8 21:18:05 2020.
 Gaussian 16:  ES64L-G16RevA.03 25-Dec-2016

 ----------------------------------------------------------------------
 # B3LYP/6-311++G(d,p) empiricaldispersion=gd3bj scf=xqc pop=npa geom=c
 heck
 ----------------------------------------------------------------------

 ------------------------------------
 CID_150408026_JID_1728_Energie_anion
 ------------------------------------
 Structure from the checkpoint file:  "JID_1728.chk"
 Charge = -1 Multiplicity = 2

                         Standard orientation:
 ---------------------------------------------------------------------
 Center     Atomic      Atomic             Coordinates (Angstroms)
 Number     Number       Type             X           Y           Z
 ---------------------------------------------------------------------
      1          6           0        1.563104    2.322671   -0.238207
      2          6           0        2.012350    1.082812    0.531505
      3         16           0        2.079115   -0.417045   -0.544163
      4          6           0        0.678183   -1.425223    0.008514
      5          6           0        0.694814   -1.898161    1.460920
      6         16           0       -0.992618   -0.735405   -0.407247
      7          8           0       -0.980239    0.051872   -1.638466
      8          8           0       -1.968461   -1.804854   -0.204964
      9          7           0       -1.161447    0.394976    0.961045
     10          7           0       -1.688282    1.465039    0.612573
     11          7           0       -2.155606    2.471847    0.370333
     12          1           0        2.266808    2.559402   -1.042156
     13          1           0        1.512462    3.186396    0.435668
     14          1           0        0.582238    2.175627   -0.696358
     15          1           0        3.022303    1.212047    0.930942
     16          1           0        1.350063    0.873674    1.373683
     17          1           0        0.699935   -2.290835   -0.663571
     18          1           0        0.679152   -1.059053    2.158640
     19          1           0       -0.169913   -2.535451    1.665750
     20          1           0        1.609230   -2.474369    1.623358
 ---------------------------------------------------------------------

 SCF Done:  E(UB3LYP) =  -1269.03866678     A.U. after   30 cycles

 The electronic state is 2-A.
 Alpha  occ. eigenvalues --  -88.88892 -88.73378 -18.97894 -18.97849 -14.26550
 Alpha  occ. eigenvalues --  -14.19373 -14.17829 -10.11856 -10.08800 -10.06654
 Alpha  occ. eigenvalues --  -10.05048  -7.95672  -7.81983  -5.91872  -5.91836
 Alpha  occ. eigenvalues --   -5.91719  -5.78391  -5.78004  -5.77347  -0.97979
 Alpha  occ. eigenvalues --   -0.94661  -0.87021  -0.79336  -0.71773  -0.66542
 Alpha  occ. eigenvalues --   -0.58899  -0.56193  -0.51654  -0.46910  -0.39423
 Alpha  occ. eigenvalues --   -0.37679  -0.36058  -0.34086  -0.32837  -0.32639
 Alpha  occ. eigenvalues --   -0.31832  -0.31042  -0.29612  -0.28457  -0.27805
 Alpha  occ. eigenvalues --   -0.27155  -0.25352  -0.24509  -0.22929  -0.21207
 Alpha  occ. eigenvalues --   -0.19151  -0.18477  -0.17440  -0.14418  -0.11841
 Alpha  occ. eigenvalues --   -0.10256   0.05166
 Alpha virt. eigenvalues --    0.07527   0.08863   0.10075   0.10915   0.11315
 Alpha virt. eigenvalues --    0.12113   0.13221   0.13855   0.14268   0.15231
 Alpha virt. eigenvalues --    0.16311   0.16650   0.17218   0.17615   0.18260

  Beta  occ. eigenvalues --  -88.88692 -88.73375 -18.97836 -18.97769 -14.25998
  Beta  occ. eigenvalues --  -14.19352 -14.16947 -10.11746 -10.08771 -10.06651
  Beta  occ. eigenvalues --  -10.05045  -7.95451  -7.81981  -5.91717  -5.91574
  Beta  occ. eigenvalues --   -5.91425  -5.78381  -5.78005  -5.77344  -0.97520
  Beta  occ. eigenvalues --   -0.93609  -0.86826  -0.78592  -0.71640  -0.66464
  Beta  occ. eigenvalues --   -0.58866  -0.55557  -0.51204  -0.46554  -0.39010
  Beta  occ. eigenvalues --   -0.37371  -0.35958  -0.33342  -0.32593  -0.31983
  Beta  occ. eigenvalues --   -0.31258  -0.30421  -0.29299  -0.28309  -0.27427
  Beta  occ. eigenvalues --   -0.25679  -0.25073  -0.24034  -0.22440  -0.21081
  Beta  occ. eigenvalues --   -0.18790  -0.18276  -0.17329  -0.13131  -0.11562
  Beta  occ. eigenvalues --   -0.09875
  Beta virt. eigenvalues --    0.07601   0.08777   0.09903   0.10878   0.11268
  Beta virt. eigenvalues --    0.12021   0.13025   0.13584   0.14128   0.14381
  Beta virt. eigenvalues --    0.15247   0.16513   0.16745   0.17225   0.17748

 Mulliken charges and spin densities:
               1          2
     1  C   -0.544247  -0.058584
     2  C   -0.072101  -0.172172
     3  S   -0.082356   0.037023
     4  C   -0.046495  -0.027742
     5  C   -0.650149  -0.039468
     6  S    0.244178   0.127012
     7  O   -0.208154   0.020868
     8  O   -0.205161   0.027759
     9  N   -0.327756  -0.024599
    10  N    0.343469   0.155175
    11  N   -0.569072   0.531699
    12  H    0.096123   0.008170
    13  H    0.071625   0.049386
    14  H    0.181491  -0.004409
    15  H   -0.017703   0.228448
    16  H    0.130356   0.018302
    17  H    0.235334   0.064920
    18  H    0.143607   0.027516
    19  H    0.158355   0.006882
    20  H    0.118656   0.023815
 Sum of Mulliken charges =  -1.00000   1.00000

 Dipole moment (field-independent basis, Debye):
    X=              5.6923    Y=             -2.8186    Z=              1.4803  Tot=              6.5221
 Quadrupole moment (field-independent basis, Debye-Ang):
   XX=           -112.8614   YY=           -104.0955   ZZ=            -95.1902
   XY=              5.6249   XZ=             -0.4721   YZ=             -1.8806

 Summary of Natural Population Analysis:

                                       Natural Population
                Natural  -----------------------------------------------
    Atom  No    Charge         Core      Valence    Rydberg      Total
 -----------------------------------------------------------------------
      C    1   -0.29298      0.99965     2.28618    0.00714     3.29298
      C    2   -0.25501      0.99960     2.24399    0.01142     3.25501
      S    3    0.10536      4.99956     2.87602    0.01907     7.89464
      C    4   -0.26659      0.99956     2.25077    0.01626     3.26659
      C    5   -0.29964      0.99962     2.29305    0.00697     3.29964
      S    6    1.10010      4.99925     1.80327    0.09738     6.89990
      O    7   -0.45673      0.99990     3.45078    0.00604     4.45673
      O    8   -0.46350      0.99990     3.45724    0.00636     4.46350
      N    9   -0.34372      0.99974     2.82851    0.01547     3.84372
      N   10    0.14524      0.99972     2.33958    0.01546     3.35476
      N   11    0.07665      0.99981     2.41084    0.01270     3.42335
      H   12    0.09249      0.00000     0.40663    0.00087     0.40751
      H   13    0.09680      0.00000     0.40222    0.00097     0.40320
      H   14    0.11731      0.00000     0.38176    0.00093     0.38269
      H   15    0.09501      0.00000     0.40359    0.00140     0.40499
      H   16    0.11472      0.00000     0.38372    0.00156     0.38528
      H   17    0.11411      0.00000     0.38442    0.00147     0.38589
      H   18    0.10992      0.00000     0.38873    0.00135     0.39008
      H   19    0.11165      0.00000     0.38745    0.00090     0.38835
      H   20    0.09880      0.00000     0.39990    0.00130     0.40120
 =======================================================================
   * Total *   -0.00000     18.99632    31.77863    0.22505    51.00000

 Normal termination of Gaussian 16 at Tue Dec  8 21:27:32 2020.
