 Gaussian 16, Revision A.03,

 -----------------------------------------------------------
 # opt freq B3LYP/6-31G(d) empiricaldispersion=gd3bj scf=xqc
 -----------------------------------------------------------

 ------------------------------
 CID_88947627_JID_1176_neutraal
 ------------------------------
 Symbolic Z-matrix:
 Charge =  0 Multiplicity = 1

 SCF Done:  E(RB3LYP) =  -478.286420007     A.U. after   17 cycles
 SCF Done:  E(RB3LYP) =  -478.293158945     A.U. after   15 cycles
 SCF Done:  E(RB3LYP) =  -478.295391431     A.U. after   15 cycles
 SCF Done:  E(RB3LYP) =  -478.297242960     A.U. after   16 cycles
 SCF Done:  E(RB3LYP) =  -478.298440747     A.U. after   15 cycles
 SCF Done:  E(RB3LYP) =  -478.299823088     A.U. after   16 cycles
 SCF Done:  E(RB3LYP) =  -478.300431712     A.U. after   14 cycles
 SCF Done:  E(RB3LYP) =  -478.300808603     A.U. after   15 cycles
 SCF Done:  E(RB3LYP) =  -478.301041067     A.U. after   13 cycles
 SCF Done:  E(RB3LYP) =  -478.301224609     A.U. after   14 cycles
 SCF Done:  E(RB3LYP) =  -478.301374543     A.U. after   13 cycles
 SCF Done:  E(RB3LYP) =  -478.301376878     A.U. after   12 cycles
 SCF Done:  E(RB3LYP) =  -478.301378212     A.U. after   12 cycles
 SCF Done:  E(RB3LYP) =  -478.301378580     A.U. after   11 cycles
 SCF Done:  E(RB3LYP) =  -478.301378692     A.U. after   11 cycles
 SCF Done:  E(RB3LYP) =  -478.301378696     A.U. after    9 cycles
 Optimization completed.
    -- Stationary point found.
 Normal termination of Gaussian 16 at Tue Dec  8 19:18:07 2020.

 --------------------------------------------------------------------
 #N Geom=AllCheck Guess=TCheck SCRF=Check GenChk RB3LYP/6-31G(d) Freq
 --------------------------------------------------------------------

 Structure from the checkpoint file:  "JID_1176.chk"
 ------------------------------
 CID_88947627_JID_1176_neutraal
 ------------------------------
 Charge =  0 Multiplicity = 1

 SCF Done:  E(RB3LYP) =  -478.301378696     A.U. after    1 cycles

  Exact polarizability: 205.060   2.746 103.130  -0.001  -0.002  41.252
 Approx polarizability: 361.325   7.708 173.277  -0.003  -0.005  63.563

                      1                      2                      3
                      A                      A                      A
 Frequencies --     14.9666                73.5858               145.6469
 Red. masses --      2.8547                 6.6973                 5.0383
 Frc consts  --      0.0004                 0.0214                 0.0630
 IR Inten    --      0.2401                 1.0228                 1.2622

                      4                      5                      6
                      A                      A                      A
 Frequencies --    183.4674               228.9032               298.2178
 Red. masses --      5.0004                 1.1281                 5.1744
 Frc consts  --      0.0992                 0.0348                 0.2711
 IR Inten    --      0.2248                 0.5263                 1.1630

                      7                      8                      9
                      A                      A                      A
 Frequencies --    314.6610               365.4253               395.6422
 Red. masses --      4.3326                 5.1309                 4.7510
 Frc consts  --      0.2527                 0.4037                 0.4382
 IR Inten    --      1.3824                 0.4245                 2.2263

                     10                     11                     12
                      A                      A                      A
 Frequencies --    414.4058               473.8277               545.5797
 Red. masses --      2.8957                 3.2895                 2.7136
 Frc consts  --      0.2930                 0.4351                 0.4759
 IR Inten    --      0.0017                 0.1682                 9.5923

                     13                     14                     15
                      A                      A                      A
 Frequencies --    632.3868               633.2688               702.9596
 Red. masses --      6.5553                 6.7289                 1.7740
 Frc consts  --      1.5446                 1.5899                 0.5165
 IR Inten    --      2.9247                 5.4831                27.9294

                     16                     17                     18
                      A                      A                      A
 Frequencies --    723.6715               779.2276               833.6864
 Red. masses --      3.8519                 1.7962                 5.0062
 Frc consts  --      1.1885                 0.6426                 2.0501
 IR Inten    --      2.6619                22.9776                26.2774

                     19                     20                     21
                      A                      A                      A
 Frequencies --    853.7880               864.9185               929.6533
 Red. masses --      1.2542                 4.8663                 1.3332
 Frc consts  --      0.5386                 2.1449                 0.6789
 IR Inten    --      0.0049                57.7379                 0.0000

                     22                     23                     24
                      A                      A                      A
 Frequencies --    968.9314               984.1248              1005.5933
 Red. masses --      1.3599                 1.4192                 1.2877
 Frc consts  --      0.7522                 0.8098                 0.7672
 IR Inten    --      2.3495                11.4201                 0.9997

                     25                     26                     27
                      A                      A                      A
 Frequencies --   1014.8576              1019.8979              1059.5982
 Red. masses --      2.4064                 5.7803                 1.4405
 Frc consts  --      1.4602                 3.5425                 0.9529
 IR Inten    --    149.5085                 9.1027                 0.6890

                     28                     29                     30
                      A                      A                      A
 Frequencies --   1063.7089              1121.9632              1156.9819
 Red. masses --      2.1211                 1.6844                 2.0309
 Frc consts  --      1.4140                 1.2493                 1.6018
 IR Inten    --      1.7836                17.7148               153.2135

                     31                     32                     33
                      A                      A                      A
 Frequencies --   1197.7526              1223.1779              1263.4115
 Red. masses --      1.0937                 1.1442                 2.5849
 Frc consts  --      0.9244                 1.0086                 2.4309
 IR Inten    --      0.3760                 6.1754                 6.5369

                     34                     35                     36
                      A                      A                      A
 Frequencies --   1354.1460              1376.3864              1403.6905
 Red. masses --      3.2430                 1.8493                 1.2989
 Frc consts  --      3.5037                 2.0642                 1.5078
 IR Inten    --     78.1036                 2.7823                 9.7801

                     37                     38                     39
                      A                      A                      A
 Frequencies --   1434.7923              1498.0089              1511.1119
 Red. masses --      1.5502                 2.2367                 1.0533
 Frc consts  --      1.8803                 2.9573                 1.4171
 IR Inten    --     73.7161                13.3374                38.3654

                     40                     41                     42
                      A                      A                      A
 Frequencies --   1530.1164              1546.5623              1581.8967
 Red. masses --      1.0468                 2.1971                11.3235
 Frc consts  --      1.4440                 3.0962                16.6950
 IR Inten    --      9.7193                 0.4154               334.8638

                     43                     44                     45
                      A                      A                      A
 Frequencies --   1632.4720              1662.2048              1700.1558
 Red. masses --      5.0403                 5.4840                 7.9500
 Frc consts  --      7.9140                 8.9272                13.5393
 IR Inten    --      1.1260                 4.7245                18.2422

                     46                     47                     48
                      A                      A                      A
 Frequencies --   3051.2988              3108.4181              3145.3739
 Red. masses --      1.0373                 1.1016                 1.0987
 Frc consts  --      5.6903                 6.2713                 6.4045
 IR Inten    --     11.1340                12.1780                 3.2220

                     49                     50                     51
                      A                      A                      A
 Frequencies --   3165.2853              3188.0637              3194.8142
 Red. masses --      1.0866                 1.0860                 1.0886
 Frc consts  --      6.4140                 6.5032                 6.5464
 IR Inten    --      2.7533                 3.0375                 0.8840

                     52                     53                     54
                      A                      A                      A
 Frequencies --   3204.9856              3216.0336              3264.7486
 Red. masses --      1.0928                 1.0974                 1.0903
 Frc consts  --      6.6138                 6.6876                 6.8466
 IR Inten    --     23.8347                25.8595                 3.7295

 - Thermochemistry -
 -------------------
 Temperature   298.150 Kelvin.  Pressure   1.00000 Atm.
 Atom     1 has atomic number  6 and mass  12.00000

 Molecular mass:   147.06841 amu.
 Principal axes and moments of inertia in atomic units:
                           1         2         3
     Eigenvalues --   530.017763332.297793851.00507
           X            0.99992   0.01294   0.00000
           Y           -0.01294   0.99992   0.00000
           Z           -0.00000  -0.00000   1.00000
 This molecule is an asymmetric top.
 Rotational symmetry number  1.
 Warning -- assumption of classical behavior for rotation
           may cause significant error
 Rotational temperatures (Kelvin)      0.16342     0.02599     0.02249
 Rotational constants (GHZ):           3.40506     0.54159     0.46864
 Zero-point vibrational energy     420238.9 (Joules/Mol)
                                  100.43950 (Kcal/Mol)
 Warning -- explicit consideration of  12 degrees of freedom as
           vibrations may cause significant error
 Vibrational temperatures:     21.53   105.87   209.55   263.97   329.34
          (Kelvin)            429.07   452.73   525.77   569.24   596.24
                              681.73   784.97   909.86   911.13  1011.40
                             1041.20  1121.13  1199.49  1228.41  1244.42
                             1337.56  1394.08  1415.94  1446.82  1460.15
                             1467.41  1524.53  1530.44  1614.25  1664.64
                             1723.30  1759.88  1817.77  1948.31  1980.31
                             2019.60  2064.35  2155.30  2174.15  2201.50
                             2225.16  2276.00  2348.76  2391.54  2446.15
                             4390.14  4472.32  4525.49  4554.14  4586.91
                             4596.63  4611.26  4627.16  4697.25

 Zero-point correction=                           0.160061 (Hartree/Particle)
 Thermal correction to Energy=                    0.169780
 Thermal correction to Enthalpy=                  0.170724
 Thermal correction to Gibbs Free Energy=         0.123407
 Sum of electronic and zero-point Energies=           -478.141318
 Sum of electronic and thermal Energies=              -478.131599
 Sum of electronic and thermal Enthalpies=            -478.130655
 Sum of electronic and thermal Free Energies=         -478.177971

                     E (Thermal)             CV                S
                      KCal/Mol        Cal/Mol-Kelvin    Cal/Mol-Kelvin
 Total                  106.538             36.598             99.586
 Electronic               0.000              0.000              0.000
 Translational            0.889              2.981             40.868
 Rotational               0.889              2.981             30.298
 Vibrational            104.761             30.637             28.420
 Vibration     1          0.593              1.986              7.210
 Vibration     2          0.599              1.966              4.055
 Vibration     3          0.617              1.907              2.728
 Vibration     4          0.631              1.862              2.293
 Vibration     5          0.652              1.797              1.888
 Vibration     6          0.691              1.677              1.427
 Vibration     7          0.702              1.646              1.338
 Vibration     8          0.739              1.543              1.099
 Vibration     9          0.762              1.479              0.979
 Vibration    10          0.778              1.439              0.911
 Vibration    11          0.831              1.308              0.727
 Vibration    12          0.901              1.149              0.553

 Optimization completed.
    -- Stationary point found.
 Normal termination of Gaussian 16 at Tue Dec  8 19:21:41 2020.

 ----------------------------------------------------------------------
 # B3LYP/6-311++G(d,p) empiricaldispersion=gd3bj scf=xqc pop=npa geom=c
 heck
 ----------------------------------------------------------------------

 --------------------------------------
 CID_88947627_JID_1176_Energie_neutraal
 --------------------------------------
 Structure from the checkpoint file:  "JID_1176.chk"
 Charge =  0 Multiplicity = 1

 SCF Done:  E(RB3LYP) =  -478.431306197     A.U. after   15 cycles
 Normal termination of Gaussian 16 at Tue Dec  8 19:23:17 2020.

 ----------------------------------------------------------------------
 # B3LYP/6-311++G(d,p) empiricaldispersion=gd3bj scf=xqc pop=npa geom=c
 heck
 ----------------------------------------------------------------------

 ------------------------------------
 CID_88947627_JID_1176_Energie_kation
 ------------------------------------
 Structure from the checkpoint file:  "JID_1176.chk"
 Charge =  1 Multiplicity = 2

 SCF Done:  E(UB3LYP) =  -478.139619541     A.U. after   26 cycles
 Normal termination of Gaussian 16 at Tue Dec  8 19:27:06 2020.
 Gaussian 16:  ES64L-G16RevA.03 25-Dec-2016

 ----------------------------------------------------------------------
 # B3LYP/6-311++G(d,p) empiricaldispersion=gd3bj scf=xqc pop=npa geom=c
 heck
 ----------------------------------------------------------------------

 -----------------------------------
 CID_88947627_JID_1176_Energie_anion
 -----------------------------------
 Structure from the checkpoint file:  "JID_1176.chk"
 Charge = -1 Multiplicity = 2

                         Standard orientation:
 ---------------------------------------------------------------------
 Center     Atomic      Atomic             Coordinates (Angstroms)
 Number     Number       Type             X           Y           Z
 ---------------------------------------------------------------------
      1          6           0        2.032623    1.498856    0.000262
      2          6           0        1.840964    0.014992    0.000015
      3          6           0        0.695335   -0.716389   -0.000098
      4          6           0       -0.701483   -0.317136   -0.000058
      5          6           0       -1.668562   -1.344450    0.000088
      6          6           0       -3.028222   -1.056161    0.000136
      7          6           0       -3.457367    0.272606    0.000026
      8          6           0       -2.515983    1.304661   -0.000132
      9          6           0       -1.154730    1.018789   -0.000172
     10          7           0        2.984597   -0.854514   -0.000109
     11          8           0        4.075039   -0.293685   -0.000041
     12          1           0        1.586160    1.963573    0.886582
     13          1           0        1.586635    1.963814   -0.886173
     14          1           0        3.105719    1.706206    0.000554
     15          1           0        0.870464   -1.791314   -0.000221
     16          1           0       -1.334412   -2.378453    0.000168
     17          1           0       -3.753141   -1.864742    0.000256
     18          1           0       -4.518708    0.503236    0.000056
     19          1           0       -2.845532    2.339575   -0.000228
     20          1           0       -0.445122    1.834581   -0.000310
 ---------------------------------------------------------------------

 SCF Done:  E(UB3LYP) =  -478.476483699     A.U. after   23 cycles

 The electronic state is 2-A.
 Alpha  occ. eigenvalues --  -18.93916 -14.19006 -10.05002 -10.04966 -10.04499
 Alpha  occ. eigenvalues --  -10.04180 -10.04022 -10.03793 -10.03088 -10.02610
 Alpha  occ. eigenvalues --  -10.00799  -0.93034  -0.72930  -0.66903  -0.62286
 Alpha  occ. eigenvalues --   -0.61877  -0.56090  -0.51611  -0.47916  -0.45203
 Alpha  occ. eigenvalues --   -0.39418  -0.35921  -0.33765  -0.33261  -0.30533
 Alpha  occ. eigenvalues --   -0.29893  -0.29189  -0.29041  -0.25211  -0.24735
 Alpha  occ. eigenvalues --   -0.24634  -0.23248  -0.21196  -0.20556  -0.19682
 Alpha  occ. eigenvalues --   -0.16327  -0.13396  -0.09168  -0.02741   0.01879
 Alpha virt. eigenvalues --    0.08007   0.09391   0.10245   0.10883   0.11655
 Alpha virt. eigenvalues --    0.12216   0.12641   0.13131   0.14178   0.15377
 Alpha virt. eigenvalues --    0.16412   0.16429   0.17596   0.18029   0.18330

  Beta  occ. eigenvalues --  -18.93071 -14.18520 -10.05073 -10.05023 -10.04505
  Beta  occ. eigenvalues --  -10.03948 -10.03886 -10.03631 -10.03095 -10.02613
  Beta  occ. eigenvalues --  -10.00465  -0.91632  -0.72696  -0.66400  -0.62034
  Beta  occ. eigenvalues --   -0.61562  -0.55758  -0.50544  -0.47830  -0.44750
  Beta  occ. eigenvalues --   -0.39111  -0.35630  -0.33609  -0.32864  -0.30374
  Beta  occ. eigenvalues --   -0.29726  -0.28883  -0.28690  -0.24877  -0.24101
  Beta  occ. eigenvalues --   -0.23140  -0.21428  -0.20948  -0.20450  -0.19079
  Beta  occ. eigenvalues --   -0.14848  -0.12844  -0.07225  -0.01960
  Beta virt. eigenvalues --    0.07993   0.08635   0.09372   0.10247   0.11156
  Beta virt. eigenvalues --    0.11648   0.12643   0.13042   0.14177   0.15271
  Beta virt. eigenvalues --    0.15393   0.16442   0.16467   0.17600   0.18340

 Mulliken charges and spin densities:
               1          2
     1  C   -0.590852   0.012585
     2  C    0.007460  -0.015296
     3  C   -0.182595   0.234753
     4  C    1.527423  -0.024335
     5  C    0.261266   0.130043
     6  C   -0.347673  -0.036903
     7  C   -0.379584   0.186026
     8  C   -0.330332  -0.054023
     9  C   -1.556771   0.102261
    10  N   -0.234279   0.228209
    11  O   -0.211022   0.286368
    12  H    0.129445   0.000631
    13  H    0.129472   0.000634
    14  H    0.171469  -0.005166
    15  H    0.135778  -0.021058
    16  H    0.110396  -0.005408
    17  H    0.117820   0.002166
    18  H    0.099702  -0.014089
    19  H    0.147786   0.003636
    20  H   -0.004911  -0.011034
 Sum of Mulliken charges =  -1.00000   1.00000

 Dipole moment (field-independent basis, Debye):
    X=             -7.3560    Y=              2.2953    Z=              0.0003  Tot=              7.7058
 Quadrupole moment (field-independent basis, Debye-Ang):
   XX=           -123.0759   YY=            -71.4916   ZZ=            -73.4990
   XY=              7.6926   XZ=              0.0008   YZ=             -0.0010

 Summary of Natural Population Analysis:

                                       Natural Population
                Natural  -----------------------------------------------
    Atom  No    Charge         Core      Valence    Rydberg      Total
 -----------------------------------------------------------------------
      C    1   -0.32317      0.99962     2.31749    0.00606     3.32317
      C    2    0.04047      0.99948     1.94534    0.01471     2.95953
      C    3   -0.02538      0.99947     2.01583    0.01007     3.02538
      C    4   -0.03790      0.99952     2.03005    0.00833     3.03790
      C    5   -0.06184      0.99954     2.05373    0.00857     3.06184
      C    6   -0.12617      0.99957     2.11726    0.00934     3.12617
      C    7   -0.06959      0.99958     2.06002    0.00999     3.06959
      C    8   -0.12597      0.99958     2.11712    0.00927     3.12597
      C    9   -0.06306      0.99953     2.05553    0.00799     3.06306
      N   10    0.05007      0.99975     2.42006    0.03012     3.44993
      O   11   -0.11699      0.99990     3.10456    0.01253     4.11699
      H   12    0.09703      0.00000     0.40167    0.00131     0.40297
      H   13    0.09703      0.00000     0.40167    0.00131     0.40297
      H   14    0.11424      0.00000     0.38326    0.00250     0.38576
      H   15    0.09012      0.00000     0.40413    0.00575     0.40988
      H   16    0.09273      0.00000     0.40584    0.00143     0.40727
      H   17    0.09165      0.00000     0.40730    0.00105     0.40835
      H   18    0.08788      0.00000     0.41108    0.00104     0.41212
      H   19    0.09143      0.00000     0.40753    0.00103     0.40857
      H   20    0.09743      0.00000     0.40123    0.00134     0.40257
 =======================================================================
   * Total *   -0.00000     10.99555    27.86071    0.14374    39.00000

 Normal termination of Gaussian 16 at Tue Dec  8 19:30:34 2020.
