 Gaussian 16, Revision A.03,

 -----------------------------------------------------------
 # opt freq B3LYP/6-31G(d) empiricaldispersion=gd3bj scf=xqc
 -----------------------------------------------------------

 -------------------------------
 CID_123828564_JID_2528_neutraal
 -------------------------------
 Symbolic Z-matrix:
 Charge =  0 Multiplicity = 1

 SCF Done:  E(RB3LYP) =  -534.848788931     A.U. after   14 cycles
 SCF Done:  E(RB3LYP) =  -534.854874819     A.U. after   12 cycles
 SCF Done:  E(RB3LYP) =  -534.857281406     A.U. after   12 cycles
 SCF Done:  E(RB3LYP) =  -534.859994922     A.U. after   13 cycles
 SCF Done:  E(RB3LYP) =  -534.861240242     A.U. after   12 cycles
 SCF Done:  E(RB3LYP) =  -534.861829203     A.U. after   12 cycles
 SCF Done:  E(RB3LYP) =  -534.861911121     A.U. after   11 cycles
 SCF Done:  E(RB3LYP) =  -534.861924344     A.U. after   10 cycles
 SCF Done:  E(RB3LYP) =  -534.861926539     A.U. after    8 cycles
 SCF Done:  E(RB3LYP) =  -534.861926667     A.U. after    8 cycles
 SCF Done:  E(RB3LYP) =  -534.861926702     A.U. after    7 cycles
 Optimization completed.
    -- Stationary point found.
 Normal termination of Gaussian 16 at Wed Dec  9 17:29:23 2020.

 --------------------------------------------------------------------
 #N Geom=AllCheck Guess=TCheck SCRF=Check GenChk RB3LYP/6-31G(d) Freq
 --------------------------------------------------------------------

 Structure from the checkpoint file:  "JID_2528.chk"
 -------------------------------
 CID_123828564_JID_2528_neutraal
 -------------------------------
 Charge =  0 Multiplicity = 1

 SCF Done:  E(RB3LYP) =  -534.861926702     A.U. after    1 cycles

  Exact polarizability: 149.787   5.437 110.396  -5.355   3.709  68.373
 Approx polarizability: 209.848  16.014 194.371  -7.333  13.275 100.186

                      1                      2                      3
                      A                      A                      A
 Frequencies --     53.1691                68.2411                88.9874
 Red. masses --      3.5282                 3.6656                 3.1077
 Frc consts  --      0.0059                 0.0101                 0.0145
 IR Inten    --      2.3396                 0.9214                 1.7546

                      4                      5                      6
                      A                      A                      A
 Frequencies --    115.4341               169.1350               203.9771
 Red. masses --      3.8214                 3.1940                 1.1310
 Frc consts  --      0.0300                 0.0538                 0.0277
 IR Inten    --      0.9941                 3.4400                 0.2263

                      7                      8                      9
                      A                      A                      A
 Frequencies --    236.5137               248.5292               282.3014
 Red. masses --      1.1174                 2.7955                 3.1519
 Frc consts  --      0.0368                 0.1017                 0.1480
 IR Inten    --      0.0843                 4.1374                 0.4479

                     10                     11                     12
                      A                      A                      A
 Frequencies --    368.6855               371.7911               416.2151
 Red. masses --      3.1246                 5.5392                 3.1493
 Frc consts  --      0.2502                 0.4511                 0.3214
 IR Inten    --      2.5753                 4.4740                 2.3546

                     13                     14                     15
                      A                      A                      A
 Frequencies --    436.9570               499.7078               521.3971
 Red. masses --      3.4267                 3.4395                 4.2545
 Frc consts  --      0.3855                 0.5060                 0.6814
 IR Inten    --      3.4128                10.6737                 1.3900

                     16                     17                     18
                      A                      A                      A
 Frequencies --    620.1509               646.8735               675.4665
 Red. masses --      4.5008                 5.1112                 3.6485
 Frc consts  --      1.0198                 1.2601                 0.9808
 IR Inten    --      3.1073                 7.2246                 5.5521

                     19                     20                     21
                      A                      A                      A
 Frequencies --    731.8050               750.4078               785.8459
 Red. masses --      2.0131                 1.7123                 2.2980
 Frc consts  --      0.6352                 0.5681                 0.8361
 IR Inten    --     16.5548                 7.2041                 4.5229

                     22                     23                     24
                      A                      A                      A
 Frequencies --    834.0506               838.8100               874.5825
 Red. masses --      1.8914                 2.7631                 1.3771
 Frc consts  --      0.7752                 1.1454                 0.6206
 IR Inten    --     16.7755                 8.1694                40.4280

                     25                     26                     27
                      A                      A                      A
 Frequencies --    950.4756               957.3987               983.0755
 Red. masses --      2.2097                 1.3188                 1.4130
 Frc consts  --      1.1762                 0.7122                 0.8046
 IR Inten    --      9.7366                 0.1907                 2.8375

                     28                     29                     30
                      A                      A                      A
 Frequencies --    998.6393              1042.3205              1070.5935
 Red. masses --      1.3702                 4.0855                 3.2000
 Frc consts  --      0.8051                 2.6151                 2.1609
 IR Inten    --      0.3238                12.5028                 3.9700

                     31                     32                     33
                      A                      A                      A
 Frequencies --   1082.8125              1118.3153              1140.4812
 Red. masses --      6.0121                 2.2236                 2.5792
 Frc consts  --      4.1532                 1.6385                 1.9766
 IR Inten    --     92.3682                41.6863                 6.5038

                     34                     35                     36
                      A                      A                      A
 Frequencies --   1149.2787              1174.2101              1190.7218
 Red. masses --      1.4544                 1.5604                 1.2980
 Frc consts  --      1.1318                 1.2676                 1.0843
 IR Inten    --      4.6859                 3.8701                 1.1935

                     37                     38                     39
                      A                      A                      A
 Frequencies --   1219.3263              1233.4564              1246.7247
 Red. masses --      1.6967                 1.4917                 1.8171
 Frc consts  --      1.4863                 1.3371                 1.6641
 IR Inten    --      3.7038                 3.6025                 5.6578

                     40                     41                     42
                      A                      A                      A
 Frequencies --   1303.7367              1354.2761              1372.6225
 Red. masses --      5.9948                 3.6182                 1.3481
 Frc consts  --      6.0035                 3.9098                 1.4965
 IR Inten    --      0.6607                32.9584                 7.1466

                     43                     44                     45
                      A                      A                      A
 Frequencies --   1436.7137              1461.8217              1469.0146
 Red. masses --      1.3340                 1.8203                 1.2399
 Frc consts  --      1.6224                 2.2918                 1.5765
 IR Inten    --      6.5171                15.4550                 7.0816

                     46                     47                     48
                      A                      A                      A
 Frequencies --   1482.7003              1505.5705              1510.1210
 Red. masses --      1.1482                 1.0534                 1.0461
 Frc consts  --      1.4872                 1.4068                 1.4056
 IR Inten    --      2.6695                 5.9277                 7.8707

                     49                     50                     51
                      A                      A                      A
 Frequencies --   1527.1881              1534.1852              1538.3291
 Red. masses --      2.2538                 1.0562                 1.0601
 Frc consts  --      3.0971                 1.4647                 1.4781
 IR Inten    --     13.7774                 7.8679                 1.5931

                     52                     53                     54
                      A                      A                      A
 Frequencies --   1621.5684              1649.1270              1696.8596
 Red. masses --      4.9369                 5.7445                 5.7334
 Frc consts  --      7.6485                 9.2046                 9.7265
 IR Inten    --      7.5393                 4.0729                54.8262

                     55                     56                     57
                      A                      A                      A
 Frequencies --   3031.8408              3036.1353              3100.9238
 Red. masses --      1.0472                 1.0309                 1.1075
 Frc consts  --      5.6712                 5.5988                 6.2745
 IR Inten    --     61.3326                39.9258                37.3040

                     58                     59                     60
                      A                      A                      A
 Frequencies --   3128.8421              3143.5716              3169.3434
 Red. masses --      1.0870                 1.1033                 1.1048
 Frc consts  --      6.2696                 6.4236                 6.5382
 IR Inten    --     20.0160                26.6435                21.4017

                     61                     62                     63
                      A                      A                      A
 Frequencies --   3174.9931              3194.4966              3199.2828
 Red. masses --      1.0886                 1.0903                 1.0774
 Frc consts  --      6.4656                 6.5554                 6.4976
 IR Inten    --     21.2234                13.8507                 8.6820

                     64                     65                     66
                      A                      A                      A
 Frequencies --   3201.7654              3215.8800              3292.0739
 Red. masses --      1.0706                 1.0965                 1.1162
 Frc consts  --      6.4661                 6.6814                 7.1276
 IR Inten    --      3.7215                16.2063                 3.2553

 - Thermochemistry -
 -------------------
 Temperature   298.150 Kelvin.  Pressure   1.00000 Atm.
 Atom     1 has atomic number  6 and mass  12.00000

 Molecular mass:   164.09496 amu.
 Principal axes and moments of inertia in atomic units:
                           1         2         3
     Eigenvalues --   866.884603272.305043548.69708
           X            0.99986  -0.01296  -0.01064
           Y            0.01265   0.99951  -0.02879
           Z            0.01100   0.02865   0.99953
 This molecule is an asymmetric top.
 Rotational symmetry number  1.
 Warning -- assumption of classical behavior for rotation
           may cause significant error
 Rotational temperatures (Kelvin)      0.09991     0.02647     0.02441
 Rotational constants (GHZ):           2.08187     0.55152     0.50856
 Zero-point vibrational energy     524860.6 (Joules/Mol)
                                  125.44471 (Kcal/Mol)
 Warning -- explicit consideration of  16 degrees of freedom as
           vibrations may cause significant error
 Vibrational temperatures:     76.50    98.18   128.03   166.08   243.35
          (Kelvin)            293.48   340.29   357.58   406.17   530.46
                              534.92   598.84   628.68   718.97   750.17
                              892.26   930.71   971.85  1052.90  1079.67
                             1130.66  1200.01  1206.86  1258.33  1367.52
                             1377.48  1414.43  1436.82  1499.67  1540.35
                             1557.93  1609.01  1640.90  1653.56  1689.43
                             1713.18  1754.34  1774.67  1793.76  1875.79
                             1948.50  1974.90  2067.11  2103.24  2113.58
                             2133.28  2166.18  2172.73  2197.28  2207.35
                             2213.31  2333.08  2372.73  2441.40  4362.14
                             4368.32  4461.54  4501.71  4522.90  4559.98
                             4568.11  4596.17  4603.05  4606.63  4626.93
                             4736.56

 Zero-point correction=                           0.199909 (Hartree/Particle)
 Thermal correction to Energy=                    0.211470
 Thermal correction to Enthalpy=                  0.212414
 Thermal correction to Gibbs Free Energy=         0.162046
 Sum of electronic and zero-point Energies=           -534.662018
 Sum of electronic and thermal Energies=              -534.650457
 Sum of electronic and thermal Enthalpies=            -534.649513
 Sum of electronic and thermal Free Energies=         -534.699881

                     E (Thermal)             CV                S
                      KCal/Mol        Cal/Mol-Kelvin    Cal/Mol-Kelvin
 Total                  132.699             43.331            106.009
 Electronic               0.000              0.000              0.000
 Translational            0.889              2.981             41.194
 Rotational               0.889              2.981             30.688
 Vibrational            130.922             37.369             34.127
 Vibration     1          0.596              1.976              4.696
 Vibration     2          0.598              1.969              4.203
 Vibration     3          0.602              1.957              3.682
 Vibration     4          0.608              1.937              3.175
 Vibration     5          0.625              1.880              2.445
 Vibration     6          0.640              1.834              2.097
 Vibration     7          0.655              1.785              1.829
 Vibration     8          0.662              1.765              1.741
 Vibration     9          0.681              1.706              1.520
 Vibration    10          0.741              1.537              1.085
 Vibration    11          0.743              1.530              1.072
 Vibration    12          0.779              1.435              0.905
 Vibration    13          0.797              1.390              0.836
 Vibration    14          0.855              1.251              0.659
 Vibration    15          0.876              1.203              0.607
 Vibration    16          0.980              0.989              0.416

 Optimization completed.
    -- Stationary point found.
 Normal termination of Gaussian 16 at Wed Dec  9 17:34:32 2020.

 ----------------------------------------------------------------------
 # B3LYP/6-311++G(d,p) empiricaldispersion=gd3bj scf=xqc pop=npa geom=c
 heck
 ----------------------------------------------------------------------

 ---------------------------------------
 CID_123828564_JID_2528_Energie_neutraal
 ---------------------------------------
 Structure from the checkpoint file:  "JID_2528.chk"
 Charge =  0 Multiplicity = 1

 SCF Done:  E(RB3LYP) =  -535.008021721     A.U. after   16 cycles
 Normal termination of Gaussian 16 at Wed Dec  9 17:37:30 2020.

 ----------------------------------------------------------------------
 # B3LYP/6-311++G(d,p) empiricaldispersion=gd3bj scf=xqc pop=npa geom=c
 heck
 ----------------------------------------------------------------------

 -------------------------------------
 CID_123828564_JID_2528_Energie_kation
 -------------------------------------
 Structure from the checkpoint file:  "JID_2528.chk"
 Charge =  1 Multiplicity = 2

 SCF Done:  E(UB3LYP) =  -534.714027833     A.U. after   24 cycles
 Normal termination of Gaussian 16 at Wed Dec  9 17:43:26 2020.
 Gaussian 16:  ES64L-G16RevA.03 25-Dec-2016

 ----------------------------------------------------------------------
 # B3LYP/6-311++G(d,p) empiricaldispersion=gd3bj scf=xqc pop=npa geom=c
 heck
 ----------------------------------------------------------------------

 ------------------------------------
 CID_123828564_JID_2528_Energie_anion
 ------------------------------------
 Structure from the checkpoint file:  "JID_2528.chk"
 Charge = -1 Multiplicity = 2

                         Standard orientation:
 ---------------------------------------------------------------------
 Center     Atomic      Atomic             Coordinates (Angstroms)
 Number     Number       Type             X           Y           Z
 ---------------------------------------------------------------------
      1          6           0        1.385656   -0.928434    1.657418
      2          7           0        1.517877   -0.380975    0.306778
      3          6           0        0.634379    0.689403   -0.010815
      4          6           0        1.047136    1.924443   -0.335365
      5          6           0       -0.790637    0.285681   -0.060034
      6          6           0       -1.173429   -0.980766   -0.533211
      7          7           0       -2.439743   -1.396755   -0.625704
      8          6           0       -3.398243   -0.544168   -0.241777
      9          6           0       -3.136138    0.736732    0.245970
     10          6           0       -1.812346    1.152848    0.345464
     11          8           0        2.882711    0.019557    0.174476
     12          6           0        3.365361   -0.441135   -1.082175
     13          1           0        0.344464   -1.212533    1.821428
     14          1           0        1.686501   -0.195065    2.418785
     15          1           0        2.017997   -1.815085    1.737265
     16          1           0        0.338649    2.660172   -0.697194
     17          1           0        2.092739    2.197034   -0.283807
     18          1           0       -0.406924   -1.680946   -0.855748
     19          1           0       -4.421749   -0.905344   -0.323815
     20          1           0       -3.951069    1.384915    0.553518
     21          1           0       -1.560729    2.130772    0.744930
     22          1           0        2.810730    0.015508   -1.911294
     23          1           0        4.411701   -0.126325   -1.124720
     24          1           0        3.298630   -1.533082   -1.155527
 ---------------------------------------------------------------------

 SCF Done:  E(UB3LYP) =  -535.000370189     A.U. after   32 cycles

 The electronic state is 2-A.
 Alpha  occ. eigenvalues --  -19.03500 -14.24474 -14.16354 -10.09368 -10.07925
 Alpha  occ. eigenvalues --  -10.06792 -10.06374 -10.05267 -10.04559 -10.03862
 Alpha  occ. eigenvalues --  -10.03682 -10.01120  -0.96042  -0.80043  -0.76162
 Alpha  occ. eigenvalues --   -0.67305  -0.63878  -0.60517  -0.57016  -0.53662
 Alpha  occ. eigenvalues --   -0.49558  -0.48750  -0.42918  -0.39324  -0.37363
 Alpha  occ. eigenvalues --   -0.36612  -0.35790  -0.33817  -0.32035  -0.31113
 Alpha  occ. eigenvalues --   -0.29854  -0.28672  -0.28270  -0.26844  -0.26083
 Alpha  occ. eigenvalues --   -0.25807  -0.24363  -0.22014  -0.18733  -0.16537
 Alpha  occ. eigenvalues --   -0.14883  -0.12446  -0.12036  -0.08958   0.05422
 Alpha virt. eigenvalues --    0.07559   0.08693   0.09211   0.10075   0.10383
 Alpha virt. eigenvalues --    0.10764   0.11299   0.12322   0.12698   0.13296
 Alpha virt. eigenvalues --    0.13536   0.14213   0.14639   0.15194   0.16199

  Beta  occ. eigenvalues --  -19.03496 -14.24462 -14.16235 -10.09320 -10.07911
  Beta  occ. eigenvalues --  -10.06722 -10.06397 -10.04971 -10.04643 -10.03634
  Beta  occ. eigenvalues --  -10.03484 -10.00947  -0.96008  -0.79727  -0.76032
  Beta  occ. eigenvalues --   -0.66912  -0.63614  -0.60239  -0.56911  -0.53472
  Beta  occ. eigenvalues --   -0.49107  -0.48528  -0.42733  -0.39201  -0.37257
  Beta  occ. eigenvalues --   -0.36419  -0.35699  -0.33640  -0.31931  -0.31030
  Beta  occ. eigenvalues --   -0.29780  -0.28585  -0.28171  -0.26573  -0.25894
  Beta  occ. eigenvalues --   -0.25148  -0.24262  -0.21852  -0.18105  -0.16166
  Beta  occ. eigenvalues --   -0.14111  -0.12063  -0.11511  -0.08109
  Beta virt. eigenvalues --    0.08119   0.08681   0.09365   0.09981   0.10420
  Beta virt. eigenvalues --    0.10729   0.11031   0.11355   0.12421   0.12959
  Beta virt. eigenvalues --    0.13308   0.13542   0.14162   0.14790   0.15693

 Mulliken charges and spin densities:
               1          2
     1  C   -0.227021  -0.118316
     2  N   -0.136509   0.071679
     3  C   -0.507151  -0.253527
     4  C   -0.828378   0.256241
     5  C    1.048105   0.351842
     6  C   -0.679751  -0.084226
     7  N   -0.037622   0.038636
     8  C   -0.353707   0.202795
     9  C   -0.282953   0.019010
    10  C   -0.120889   0.149976
    11  O    0.004663   0.053113
    12  C    0.794015  -1.014557
    13  H    0.143998   0.013195
    14  H    0.131634   0.007757
    15  H    0.033914   0.124046
    16  H    0.039008   0.065971
    17  H    0.152010  -0.057960
    18  H    0.192397  -0.006721
    19  H    0.128652  -0.016914
    20  H    0.121413   0.006988
    21  H    0.171274  -0.014310
    22  H   -0.118551   0.268829
    23  H   -0.416115   0.551630
    24  H   -0.252437   0.384822
 Sum of Mulliken charges =  -1.00000   1.00000

 Dipole moment (field-independent basis, Debye):
    X=             -2.2243    Y=              1.1665    Z=              2.9988  Tot=              3.9116
 Quadrupole moment (field-independent basis, Debye-Ang):
   XX=           -126.9662   YY=            -94.2752   ZZ=            -90.1040
   XY=             -4.3914   XZ=              3.4633   YZ=             -2.0852

 Summary of Natural Population Analysis:

                                       Natural Population
                Natural  -----------------------------------------------
    Atom  No    Charge         Core      Valence    Rydberg      Total
 -----------------------------------------------------------------------
      C    1   -0.17721      0.99963     2.16914    0.00844     3.17721
      N    2   -0.10942      0.99965     2.59595    0.01382     3.60942
      C    3    0.08237      0.99945     1.90501    0.01316     2.91763
      C    4   -0.19803      0.99952     2.19087    0.00764     3.19803
      C    5   -0.03305      0.99946     2.02294    0.01066     3.03305
      C    6    0.02288      0.99955     1.96038    0.01719     2.97712
      N    7   -0.22826      0.99971     2.71798    0.01057     3.72826
      C    8    0.06672      0.99960     1.91916    0.01452     2.93328
      C    9   -0.14526      0.99957     2.13749    0.00820     3.14526
      C   10   -0.03779      0.99953     2.03048    0.00778     3.03779
      O   11   -0.22971      0.99990     3.21804    0.01177     4.22971
      C   12   -0.09633      0.99962     2.08630    0.01041     3.09633
      H   13    0.10321      0.00000     0.39594    0.00084     0.39679
      H   14    0.08591      0.00000     0.41290    0.00119     0.41409
      H   15    0.09406      0.00000     0.40480    0.00113     0.40594
      H   16    0.09270      0.00000     0.40645    0.00085     0.40730
      H   17    0.09791      0.00000     0.40094    0.00115     0.40209
      H   18    0.08900      0.00000     0.40833    0.00267     0.41100
      H   19    0.07594      0.00000     0.42273    0.00132     0.42406
      H   20    0.09338      0.00000     0.40552    0.00110     0.40662
      H   21    0.09565      0.00000     0.40316    0.00119     0.40435
      H   22    0.08643      0.00000     0.41213    0.00144     0.41357
      H   23    0.08708      0.00000     0.41107    0.00185     0.41292
      H   24    0.08180      0.00000     0.41599    0.00220     0.41820
 =======================================================================
   * Total *   -0.00000     11.99520    31.85372    0.15109    44.00000

 Normal termination of Gaussian 16 at Wed Dec  9 17:51:08 2020.
