 Gaussian 16, Revision A.03,

 -----------------------------------------------------------
 # opt freq B3LYP/6-31G(d) empiricaldispersion=gd3bj scf=xqc
 -----------------------------------------------------------

 ------------------------------
 CID_64090052_JID_4422_neutraal
 ------------------------------
 Symbolic Z-matrix:
 Charge =  0 Multiplicity = 1

 SCF Done:  E(RB3LYP) =  -654.309713801     A.U. after   14 cycles
 SCF Done:  E(RB3LYP) =  -654.309833986     A.U. after   12 cycles
 SCF Done:  E(RB3LYP) =  -654.312363444     A.U. after   11 cycles
 SCF Done:  E(RB3LYP) =  -654.311067990     A.U. after   14 cycles
 SCF Done:  E(RB3LYP) =  -654.313316172     A.U. after   11 cycles
 SCF Done:  E(RB3LYP) =  -654.313614237     A.U. after   12 cycles
 SCF Done:  E(RB3LYP) =  -654.313996798     A.U. after   11 cycles
 SCF Done:  E(RB3LYP) =  -654.314180343     A.U. after   11 cycles
 SCF Done:  E(RB3LYP) =  -654.314326634     A.U. after   11 cycles
 SCF Done:  E(RB3LYP) =  -654.314513170     A.U. after   10 cycles
 SCF Done:  E(RB3LYP) =  -654.316360576     A.U. after   10 cycles
 SCF Done:  E(RB3LYP) =  -654.316363073     A.U. after    9 cycles
 SCF Done:  E(RB3LYP) =  -654.316363921     A.U. after    8 cycles
 SCF Done:  E(RB3LYP) =  -654.316364340     A.U. after    7 cycles
 SCF Done:  E(RB3LYP) =  -654.316364596     A.U. after    7 cycles
 SCF Done:  E(RB3LYP) =  -654.316364681     A.U. after    7 cycles
 Optimization completed.
    -- Stationary point found.
 Normal termination of Gaussian 16 at Thu Dec 10 10:02:39 2020.

 --------------------------------------------------------------------
 #N Geom=AllCheck Guess=TCheck SCRF=Check GenChk RB3LYP/6-31G(d) Freq
 --------------------------------------------------------------------

 Structure from the checkpoint file:  "JID_4422.chk"
 ------------------------------
 CID_64090052_JID_4422_neutraal
 ------------------------------
 Charge =  0 Multiplicity = 1

 SCF Done:  E(RB3LYP) =  -654.316364681     A.U. after    1 cycles

  Exact polarizability: 137.800  -4.252 129.110   3.792  -5.310 110.202
 Approx polarizability: 187.507  -4.357 171.502   3.801  -6.934 157.855

                      1                      2                      3
                      A                      A                      A
 Frequencies --     33.3517                46.0260                50.2525
 Red. masses --      4.0082                 3.2193                 4.2752
 Frc consts  --      0.0026                 0.0040                 0.0064
 IR Inten    --      0.9360                 0.5775                 0.4449

                      4                      5                      6
                      A                      A                      A
 Frequencies --     73.1649                76.5327                94.2604
 Red. masses --      4.4128                 3.6967                 3.0212
 Frc consts  --      0.0139                 0.0128                 0.0158
 IR Inten    --      0.3525                 1.1967                 0.9256

                      7                      8                      9
                      A                      A                      A
 Frequencies --    104.1749               115.8265               193.3743
 Red. masses --      2.4629                 4.1722                 1.7641
 Frc consts  --      0.0157                 0.0330                 0.0389
 IR Inten    --      5.8702                 0.4847                 0.4770

                     10                     11                     12
                      A                      A                      A
 Frequencies --    211.4671               227.3919               252.3093
 Red. masses --      2.6200                 2.8183                 1.5126
 Frc consts  --      0.0690                 0.0859                 0.0567
 IR Inten    --      3.1577                10.8124                 2.3375

                     13                     14                     15
                      A                      A                      A
 Frequencies --    260.4666               264.5363               280.7085
 Red. masses --      1.3883                 1.6494                 1.1589
 Frc consts  --      0.0555                 0.0680                 0.0538
 IR Inten    --     24.2883                16.7818                 9.3856

                     16                     17                     18
                      A                      A                      A
 Frequencies --    297.4248               308.1792               335.9164
 Red. masses --      2.0545                 2.5210                 3.7703
 Frc consts  --      0.1071                 0.1411                 0.2507
 IR Inten    --      3.9601                 6.5023                 2.8639

                     19                     20                     21
                      A                      A                      A
 Frequencies --    387.5874               406.1955               419.6619
 Red. masses --      1.9007                 2.9229                 2.5500
 Frc consts  --      0.1682                 0.2841                 0.2646
 IR Inten    --      0.3982                 5.2654                 9.4490

                     22                     23                     24
                      A                      A                      A
 Frequencies --    483.6062               529.6858               543.9295
 Red. masses --      2.1505                 1.6154                 2.4307
 Frc consts  --      0.2963                 0.2670                 0.4237
 IR Inten    --     10.8683                39.6516                 6.6730

                     25                     26                     27
                      A                      A                      A
 Frequencies --    598.1889               621.8235               667.6006
 Red. masses --      2.1892                 2.6704                 3.1136
 Frc consts  --      0.4615                 0.6084                 0.8176
 IR Inten    --     12.5511                16.4171                26.5198

                     28                     29                     30
                      A                      A                      A
 Frequencies --    742.4454               775.6886               794.1785
 Red. masses --      1.2451                 2.9476                 2.9051
 Frc consts  --      0.4044                 1.0450                 1.0796
 IR Inten    --      6.6066                 4.0487                 1.6052

                     31                     32                     33
                      A                      A                      A
 Frequencies --    835.4457               884.2411               893.3528
 Red. masses --      1.5374                 1.5269                 2.7536
 Frc consts  --      0.6322                 0.7034                 1.2948
 IR Inten    --      8.4502               129.5403                10.6005

                     34                     35                     36
                      A                      A                      A
 Frequencies --    913.7865               952.7256               966.8937
 Red. masses --      1.7927                 1.9896                 2.1458
 Frc consts  --      0.8819                 1.0640                 1.1819
 IR Inten    --      7.6201                 8.2911                15.7384

                     37                     38                     39
                      A                      A                      A
 Frequencies --    986.3520               987.9650              1016.1816
 Red. masses --      1.7753                 1.8058                 1.7071
 Frc consts  --      1.0176                 1.0385                 1.0386
 IR Inten    --      5.8247                 3.5125                 4.4785

                     40                     41                     42
                      A                      A                      A
 Frequencies --   1052.6179              1071.9669              1096.1795
 Red. masses --      2.0108                 2.2591                 2.0401
 Frc consts  --      1.3127                 1.5295                 1.4443
 IR Inten    --      5.2198                12.7222                18.6391

                     43                     44                     45
                      A                      A                      A
 Frequencies --   1125.2633              1130.0272              1145.4542
 Red. masses --      2.0954                 2.0995                 2.0440
 Frc consts  --      1.5632                 1.5796                 1.5801
 IR Inten    --     32.1944                 8.0664                13.7556

                     46                     47                     48
                      A                      A                      A
 Frequencies --   1169.2024              1183.4502              1194.2694
 Red. masses --      4.9742                 1.1607                 1.2697
 Frc consts  --      4.0064                 0.9578                 1.0670
 IR Inten    --    113.0255                 0.6448                 1.7005

                     49                     50                     51
                      A                      A                      A
 Frequencies --   1204.7989              1225.7262              1242.5317
 Red. masses --      2.0583                 1.6787                 1.3492
 Frc consts  --      1.7603                 1.4860                 1.2272
 IR Inten    --     13.7682                41.5481                12.6969

                     52                     53                     54
                      A                      A                      A
 Frequencies --   1262.4256              1263.9575              1301.9724
 Red. masses --      1.2577                 1.5049                 1.4138
 Frc consts  --      1.1810                 1.4165                 1.4120
 IR Inten    --      4.6872                 7.6991                15.2384

                     55                     56                     57
                      A                      A                      A
 Frequencies --   1312.2407              1318.7446              1358.7455
 Red. masses --      1.3327                 1.3812                 1.2050
 Frc consts  --      1.3521                 1.4153                 1.3107
 IR Inten    --     56.7144                47.9381                 5.8524

                     58                     59                     60
                      A                      A                      A
 Frequencies --   1370.5328              1387.6874              1399.3288
 Red. masses --      1.1963                 1.3765                 1.4620
 Frc consts  --      1.3239                 1.5617                 1.6867
 IR Inten    --      3.0302                10.7788                12.5362

                     61                     62                     63
                      A                      A                      A
 Frequencies --   1404.7513              1423.5089              1430.3577
 Red. masses --      1.4114                 1.3747                 1.3603
 Frc consts  --      1.6409                 1.6412                 1.6397
 IR Inten    --      3.8205                20.8081                13.4981

                     64                     65                     66
                      A                      A                      A
 Frequencies --   1439.0780              1443.0966              1448.5273
 Red. masses --      1.3574                 1.3075                 1.4753
 Frc consts  --      1.6562                 1.6042                 1.8238
 IR Inten    --      2.4293                 7.4188                29.1286

                     67                     68                     69
                      A                      A                      A
 Frequencies --   1493.3138              1502.9375              1507.9978
 Red. masses --      1.8235                 1.1597                 1.0901
 Frc consts  --      2.3958                 1.5435                 1.4605
 IR Inten    --     61.2590                 0.5064                 5.2137

                     70                     71                     72
                      A                      A                      A
 Frequencies --   1509.0352              1512.7083              1516.3980
 Red. masses --      1.0873                 1.0948                 1.0494
 Frc consts  --      1.4588                 1.4761                 1.4218
 IR Inten    --      1.9413                11.7312                 5.2019

                     73                     74                     75
                      A                      A                      A
 Frequencies --   1519.5928              1530.4376              1534.0360
 Red. masses --      1.0880                 1.0719                 1.0573
 Frc consts  --      1.4803                 1.4792                 1.4659
 IR Inten    --      2.3104                 6.3343                16.0962

                     76                     77                     78
                      A                      A                      A
 Frequencies --   1539.4071              1541.5638              1562.4691
 Red. masses --      1.0823                 1.0603                 1.0862
 Frc consts  --      1.5111                 1.4846                 1.5624
 IR Inten    --      1.0248                 1.9759                 2.0966

                     79                     80                     81
                      A                      A                      A
 Frequencies --   1704.6168              1790.7308              2979.9550
 Red. masses --      1.0886                 8.0633                 1.0545
 Frc consts  --      1.8636                15.2344                 5.5172
 IR Inten    --     21.1726               324.0583                30.8840

                     82                     83                     84
                      A                      A                      A
 Frequencies --   2998.5662              3007.5275              3025.3354
 Red. masses --      1.0411                 1.1021                 1.0787
 Frc consts  --      5.5153                 5.8736                 5.8169
 IR Inten    --     73.5019                72.5695                33.5144

                     85                     86                     87
                      A                      A                      A
 Frequencies --   3032.9285              3043.9333              3045.2800
 Red. masses --      1.0440                 1.1040                 1.0646
 Frc consts  --      5.6580                 6.0266                 5.8167
 IR Inten    --     27.4234                58.4535                32.5606

                     88                     89                     90
                      A                      A                      A
 Frequencies --   3046.0722              3057.9487              3059.0148
 Red. masses --      1.0703                 1.0651                 1.0715
 Frc consts  --      5.8511                 5.8680                 5.9075
 IR Inten    --     20.4938                37.6661                30.2321

                     91                     92                     93
                      A                      A                      A
 Frequencies --   3064.3261              3088.5854              3090.3339
 Red. masses --      1.0680                 1.1002                 1.1003
 Frc consts  --      5.9087                 6.1837                 6.1913
 IR Inten    --     39.7597                24.0440                47.6581

                     94                     95                     96
                      A                      A                      A
 Frequencies --   3111.3643              3117.3310              3125.4551
 Red. masses --      1.0918                 1.0965                 1.0991
 Frc consts  --      6.2271                 6.2783                 6.3258
 IR Inten    --     26.1870                 9.9797                31.6099

                     97                     98                     99
                      A                      A                      A
 Frequencies --   3126.2433              3135.7795              3147.6865
 Red. masses --      1.0988                 1.0935                 1.0969
 Frc consts  --      6.3273                 6.3355                 6.4034
 IR Inten    --     21.4860                15.1142                21.0514

                    100                    101                    102
                      A                      A                      A
 Frequencies --   3463.6485              3548.8669              3599.0091
 Red. masses --      1.0495                 1.0912                 1.0761
 Frc consts  --      7.4185                 8.0974                 8.2125
 IR Inten    --      3.0782                 0.2551                19.5952

 - Thermochemistry -
 -------------------
 Temperature   298.150 Kelvin.  Pressure   1.00000 Atm.
 Atom     1 has atomic number  6 and mass  12.00000

 Molecular mass:   202.16813 amu.
 Principal axes and moments of inertia in atomic units:
                           1         2         3
     Eigenvalues --  2385.722213781.675904907.53783
           X            0.99914  -0.04072  -0.00770
           Y            0.04055   0.99895  -0.02135
           Z            0.00856   0.02102   0.99974
 This molecule is an asymmetric top.
 Rotational symmetry number  1.
 Warning -- assumption of classical behavior for rotation
           may cause significant error
 Rotational temperatures (Kelvin)      0.03631     0.02290     0.01765
 Rotational constants (GHZ):           0.75648     0.47723     0.36775
 Zero-point vibrational energy     859635.2 (Joules/Mol)
                                  205.45774 (Kcal/Mol)
 Warning -- explicit consideration of  25 degrees of freedom as
           vibrations may cause significant error
 Vibrational temperatures:     47.99    66.22    72.30   105.27   110.11
          (Kelvin)            135.62   149.88   166.65   278.22   304.25
                              327.17   363.02   374.75   380.61   403.88
                              427.93   443.40   483.31   557.65   584.42
                              603.80   695.80   762.10   782.59   860.66
                              894.67   960.53  1068.21  1116.04  1142.65
                             1202.02  1272.23  1285.34  1314.73  1370.76
                             1391.14  1419.14  1421.46  1462.06  1514.48
                             1542.32  1577.16  1619.00  1625.86  1648.05
                             1682.22  1702.72  1718.29  1733.44  1763.55
                             1787.73  1816.35  1818.55  1873.25  1888.02
                             1897.38  1954.93  1971.89  1996.57  2013.32
                             2021.12  2048.11  2057.97  2070.51  2076.29
                             2084.11  2148.55  2162.39  2169.67  2171.17
                             2176.45  2181.76  2186.36  2201.96  2207.14
                             2214.86  2217.97  2248.04  2452.56  2576.46
                             4287.49  4314.27  4327.16  4352.78  4363.71
                             4379.54  4381.48  4382.62  4399.71  4401.24
                             4408.88  4443.79  4446.30  4476.56  4485.14
                             4496.83  4497.97  4511.69  4528.82  4983.42
                             5106.03  5178.17

 Zero-point correction=                           0.327418 (Hartree/Particle)
 Thermal correction to Energy=                    0.344367
 Thermal correction to Enthalpy=                  0.345311
 Thermal correction to Gibbs Free Energy=         0.282111
 Sum of electronic and zero-point Energies=           -653.988947
 Sum of electronic and thermal Energies=              -653.971998
 Sum of electronic and thermal Enthalpies=            -653.971054
 Sum of electronic and thermal Free Energies=         -654.034254

                     E (Thermal)             CV                S
                      KCal/Mol        Cal/Mol-Kelvin    Cal/Mol-Kelvin
 Total                  216.093             61.723            133.016
 Electronic               0.000              0.000              0.000
 Translational            0.889              2.981             41.816
 Rotational               0.889              2.981             32.160
 Vibrational            214.316             55.761             59.040
 Vibration     1          0.594              1.983              5.619
 Vibration     2          0.595              1.979              4.981
 Vibration     3          0.595              1.977              4.807
 Vibration     4          0.599              1.967              4.066
 Vibration     5          0.599              1.965              3.978
 Vibration     6          0.603              1.953              3.570
 Vibration     7          0.605              1.946              3.375
 Vibration     8          0.608              1.936              3.169
 Vibration     9          0.635              1.849              2.195
 Vibration    10          0.643              1.823              2.031
 Vibration    11          0.651              1.799              1.899
 Vibration    12          0.664              1.759              1.714
 Vibration    13          0.669              1.745              1.659
 Vibration    14          0.671              1.738              1.632
 Vibration    15          0.680              1.709              1.529
 Vibration    16          0.691              1.679              1.431
 Vibration    17          0.698              1.658              1.372
 Vibration    18          0.717              1.604              1.231
 Vibration    19          0.756              1.497              1.009
 Vibration    20          0.771              1.457              0.940
 Vibration    21          0.782              1.428              0.893
 Vibration    22          0.840              1.286              0.700
 Vibration    23          0.885              1.184              0.588
 Vibration    24          0.899              1.153              0.557
 Vibration    25          0.956              1.036              0.453

                           ! Non-Optimized Parameters !
 Normal termination of Gaussian 16 at Thu Dec 10 10:13:35 2020.

 ----------------------------------------------------------------------
 # B3LYP/6-311++G(d,p) empiricaldispersion=gd3bj scf=xqc pop=npa geom=c
 heck
 ----------------------------------------------------------------------

 --------------------------------------
 CID_64090052_JID_4422_Energie_neutraal
 --------------------------------------
 Structure from the checkpoint file:  "JID_4422.chk"
 Charge =  0 Multiplicity = 1

 SCF Done:  E(RB3LYP) =  -654.518550762     A.U. after   14 cycles
 Normal termination of Gaussian 16 at Thu Dec 10 10:18:02 2020.

 ----------------------------------------------------------------------
 # B3LYP/6-311++G(d,p) empiricaldispersion=gd3bj scf=xqc pop=npa geom=c
 heck
 ----------------------------------------------------------------------

 ------------------------------------
 CID_64090052_JID_4422_Energie_kation
 ------------------------------------
 Structure from the checkpoint file:  "JID_4422.chk"
 Charge =  1 Multiplicity = 2

 SCF Done:  E(UB3LYP) =  -654.214038083     A.U. after   25 cycles
 Normal termination of Gaussian 16 at Thu Dec 10 10:28:50 2020.
 Gaussian 16:  ES64L-G16RevA.03 25-Dec-2016

 ----------------------------------------------------------------------
 # B3LYP/6-311++G(d,p) empiricaldispersion=gd3bj scf=xqc pop=npa geom=c
 heck
 ----------------------------------------------------------------------

 -----------------------------------
 CID_64090052_JID_4422_Energie_anion
 -----------------------------------
 Structure from the checkpoint file:  "JID_4422.chk"
 Charge = -1 Multiplicity = 2

                         Standard orientation:
 ---------------------------------------------------------------------
 Center     Atomic      Atomic             Coordinates (Angstroms)
 Number     Number       Type             X           Y           Z
 ---------------------------------------------------------------------
      1          6           0       -0.731383    2.561481    0.639537
      2          6           0       -2.031943    1.739863    0.590691
      3          6           0       -2.272459    1.089783   -0.782899
      4          6           0       -1.274821   -0.017084   -1.173012
      5          6           0       -1.697777   -1.384631   -0.632883
      6          8           0       -2.865874   -1.749100   -0.651517
      7          7           0       -0.716082   -2.213119   -0.145525
      8          6           0        0.725256   -2.008005   -0.145842
      9          6           0        1.242193   -1.305581    1.115567
     10          6           0        2.741818   -0.981642    1.079605
     11          6           0        3.155909   -0.132310   -0.119415
     12          8           0        2.285014    0.981720   -0.214445
     13          6           0        2.591490    1.829676   -1.301540
     14          7           0       -2.144996    0.735590    1.658846
     15          1           0        0.158033    1.933577    0.520104
     16          1           0       -0.643943    3.075947    1.604808
     17          1           0       -0.715264    3.329868   -0.145044
     18          1           0       -2.865753    2.438600    0.746337
     19          1           0       -3.276080    0.656177   -0.804011
     20          1           0       -2.233896    1.882551   -1.539434
     21          1           0       -1.271741   -0.120069   -2.266351
     22          1           0       -0.255610    0.251835   -0.884842
     23          1           0       -1.076660   -3.097738    0.189344
     24          1           0        1.203427   -2.989245   -0.252582
     25          1           0        0.997570   -1.436434   -1.036087
     26          1           0        0.683985   -0.374079    1.249006
     27          1           0        1.022400   -1.932715    1.988591
     28          1           0        3.009403   -0.451437    2.000970
     29          1           0        3.336346   -1.905140    1.061280
     30          1           0        4.198253    0.207205   -0.003770
     31          1           0        3.112427   -0.718942   -1.052407
     32          1           0        3.601592    2.257284   -1.206684
     33          1           0        2.528859    1.293410   -2.261552
     34          1           0        1.856776    2.637876   -1.294813
     35          1           0       -1.954146    1.176449    2.558008
     36          1           0       -1.431255    0.017479    1.544724
 ---------------------------------------------------------------------

 SCF Done:  E(UB3LYP) =  -654.509044491     A.U. after   32 cycles

 The electronic state is 2-A.
 Alpha  occ. eigenvalues --  -19.03346 -18.98671 -14.23867 -14.19743 -10.17425
 Alpha  occ. eigenvalues --  -10.11860 -10.11457 -10.11218 -10.10631 -10.08117
 Alpha  occ. eigenvalues --  -10.07482 -10.07459 -10.07223 -10.06174  -0.94597
 Alpha  occ. eigenvalues --   -0.93927  -0.82526  -0.79557  -0.70456  -0.68728
 Alpha  occ. eigenvalues --   -0.63936  -0.63163  -0.58714  -0.57086  -0.54623
 Alpha  occ. eigenvalues --   -0.49715  -0.48253  -0.45406  -0.41556  -0.41109
 Alpha  occ. eigenvalues --   -0.40594  -0.39497  -0.38270  -0.37003  -0.35297
 Alpha  occ. eigenvalues --   -0.34805  -0.33693  -0.33664  -0.32743  -0.32098
 Alpha  occ. eigenvalues --   -0.30970  -0.29987  -0.29035  -0.28155  -0.27618
 Alpha  occ. eigenvalues --   -0.26466  -0.25758  -0.25462  -0.24313  -0.23842
 Alpha  occ. eigenvalues --   -0.22892  -0.22499  -0.17145  -0.16068  -0.15727
 Alpha  occ. eigenvalues --   -0.14719   0.04043
 Alpha virt. eigenvalues --    0.06069   0.06618   0.07150   0.08417   0.08707
 Alpha virt. eigenvalues --    0.08775   0.09543   0.09806   0.10772   0.11184
 Alpha virt. eigenvalues --    0.11539   0.11816   0.11949   0.12361   0.12529

  Beta  occ. eigenvalues --  -19.03336 -18.98670 -14.23856 -14.19735 -10.17426
  Beta  occ. eigenvalues --  -10.11828 -10.11414 -10.11187 -10.10629 -10.08105
  Beta  occ. eigenvalues --  -10.07468 -10.07440 -10.07219 -10.06160  -0.94581
  Beta  occ. eigenvalues --   -0.93923  -0.82504  -0.79542  -0.70415  -0.68710
  Beta  occ. eigenvalues --   -0.63895  -0.63135  -0.58647  -0.57054  -0.54542
  Beta  occ. eigenvalues --   -0.49691  -0.48183  -0.45379  -0.41522  -0.41088
  Beta  occ. eigenvalues --   -0.40545  -0.39433  -0.38233  -0.36964  -0.35283
  Beta  occ. eigenvalues --   -0.34783  -0.33662  -0.33642  -0.32707  -0.32076
  Beta  occ. eigenvalues --   -0.30950  -0.29963  -0.29011  -0.28107  -0.27598
  Beta  occ. eigenvalues --   -0.26427  -0.25735  -0.25432  -0.24276  -0.23826
  Beta  occ. eigenvalues --   -0.22866  -0.22442  -0.17118  -0.16059  -0.15711
  Beta  occ. eigenvalues --   -0.14707
  Beta virt. eigenvalues --    0.06166   0.06991   0.07237   0.07847   0.08899
  Beta virt. eigenvalues --    0.08983   0.09200   0.09906   0.10226   0.11103
  Beta virt. eigenvalues --    0.11495   0.11895   0.12115   0.12287   0.12609

 Mulliken charges and spin densities:
               1          2
     1  C   -0.790357   0.075247
     2  C    0.127623  -0.002953
     3  C   -0.493965  -0.049896
     4  C    0.000663   0.184922
     5  C   -0.714279   0.383644
     6  O   -0.318803   0.005000
     7  N   -0.245375   0.123763
     8  C    1.164880  -1.728695
     9  C   -1.242081   1.335389
    10  C    0.779566  -1.282971
    11  C    0.306470  -0.626345
    12  O   -0.161230   0.051265
    13  C    0.507852  -0.776981
    14  N   -0.385312   0.022057
    15  H    0.416653  -0.268160
    16  H   -0.112739   0.238764
    17  H   -0.002543   0.136478
    18  H    0.098149   0.085632
    19  H    0.280931  -0.053457
    20  H    0.004106   0.137051
    21  H   -0.115111   0.324146
    22  H    2.089591  -2.046442
    23  H    0.154108   0.151571
    24  H   -0.671738   0.850737
    25  H   -0.058212   0.261411
    26  H    0.052074   0.084108
    27  H   -0.160621   0.343598
    28  H   -0.028339   0.203866
    29  H   -0.444051   0.599518
    30  H   -0.362300   0.521364
    31  H    0.032306   0.136632
    32  H   -0.583469   0.725849
    33  H   -0.322711   0.460154
    34  H   -0.204857   0.324652
    35  H    0.190301   0.027422
    36  H    0.212817   0.041659
 Sum of Mulliken charges =  -1.00000   1.00000

 Dipole moment (field-independent basis, Debye):
    X=             -4.2987    Y=              2.4166    Z=              1.4632  Tot=              5.1439
 Quadrupole moment (field-independent basis, Debye-Ang):
   XX=           -171.2663   YY=           -140.8510   ZZ=           -122.1483
   XY=             -5.8370   XZ=              3.5469   YZ=              2.0686

 Summary of Natural Population Analysis:

                                       Natural Population
                Natural  -----------------------------------------------
    Atom  No    Charge         Core      Valence    Rydberg      Total
 -----------------------------------------------------------------------
      C    1   -0.30129      0.99964     2.29519    0.00646     3.30129
      C    2   -0.01295      0.99962     2.00260    0.01073     3.01295
      C    3   -0.19102      0.99960     2.18159    0.00983     3.19102
      C    4   -0.24713      0.99957     2.23931    0.00825     3.24713
      C    5    0.34401      0.99967     1.63281    0.02351     2.65599
      O    6   -0.32606      0.99988     3.32074    0.00545     4.32606
      N    7   -0.31973      0.99967     2.80986    0.01020     3.81973
      C    8   -0.09160      0.99960     2.08068    0.01132     3.09160
      C    9   -0.19575      0.99961     2.18677    0.00937     3.19575
      C   10   -0.19737      0.99962     2.18812    0.00963     3.19737
      C   11   -0.00740      0.99958     1.99550    0.01231     3.00740
      O   12   -0.30440      0.99988     3.29455    0.00997     4.30440
      C   13   -0.09679      0.99962     2.08777    0.00940     3.09679
      N   14   -0.41913      0.99977     2.90982    0.00953     3.91913
      H   15    0.10755      0.00000     0.39032    0.00214     0.39245
      H   16    0.09500      0.00000     0.40400    0.00100     0.40500
      H   17    0.09681      0.00000     0.40211    0.00108     0.40319
      H   18    0.08531      0.00000     0.41317    0.00152     0.41469
      H   19    0.11329      0.00000     0.38547    0.00124     0.38671
      H   20    0.09735      0.00000     0.40180    0.00085     0.40265
      H   21    0.11386      0.00000     0.38515    0.00099     0.38614
      H   22    0.10902      0.00000     0.38808    0.00289     0.39098
      H   23    0.19431      0.00000     0.30361    0.00208     0.30569
      H   24    0.10071      0.00000     0.39720    0.00209     0.39929
      H   25    0.09837      0.00000     0.39940    0.00223     0.40163
      H   26    0.09721      0.00000     0.39990    0.00288     0.40279
      H   27    0.09782      0.00000     0.40087    0.00131     0.40218
      H   28    0.09983      0.00000     0.39896    0.00121     0.40017
      H   29    0.10201      0.00000     0.39618    0.00181     0.39799
      H   30    0.08510      0.00000     0.41286    0.00204     0.41490
      H   31    0.07833      0.00000     0.41953    0.00214     0.42167
      H   32    0.08141      0.00000     0.41669    0.00190     0.41859
      H   33    0.07987      0.00000     0.41843    0.00170     0.42013
      H   34    0.09044      0.00000     0.40828    0.00128     0.40956
      H   35    0.17070      0.00000     0.32788    0.00142     0.32930
      H   36    0.17229      0.00000     0.32549    0.00222     0.32771
 =======================================================================
   * Total *   -0.00000     13.99533    41.82069    0.18398    56.00000

 Normal termination of Gaussian 16 at Thu Dec 10 10:42:57 2020.
