 Gaussian 16, Revision A.03,

 -----------------------------------------------------------
 # opt freq B3LYP/6-31G(d) empiricaldispersion=gd3bj scf=xqc
 -----------------------------------------------------------

 -------------------------------
 CID_149308817_JID_4819_neutraal
 -------------------------------
 Symbolic Z-matrix:
 Charge =  0 Multiplicity = 1

 SCF Done:  E(RB3LYP) =  -611.140167328     A.U. after   14 cycles
 SCF Done:  E(RB3LYP) =  -611.145583663     A.U. after   12 cycles
 SCF Done:  E(RB3LYP) =  -611.146412303     A.U. after   11 cycles
 SCF Done:  E(RB3LYP) =  -611.147206059     A.U. after   12 cycles
 SCF Done:  E(RB3LYP) =  -611.147406090     A.U. after   11 cycles
 SCF Done:  E(RB3LYP) =  -611.147515147     A.U. after   11 cycles
 SCF Done:  E(RB3LYP) =  -611.147542046     A.U. after   10 cycles
 SCF Done:  E(RB3LYP) =  -611.147554280     A.U. after    9 cycles
 SCF Done:  E(RB3LYP) =  -611.147556934     A.U. after    9 cycles
 SCF Done:  E(RB3LYP) =  -611.147558034     A.U. after    8 cycles
 SCF Done:  E(RB3LYP) =  -611.147560225     A.U. after    9 cycles
 SCF Done:  E(RB3LYP) =  -611.147562259     A.U. after    9 cycles
 SCF Done:  E(RB3LYP) =  -611.147562921     A.U. after    9 cycles
 SCF Done:  E(RB3LYP) =  -611.147563030     A.U. after    8 cycles
 SCF Done:  E(RB3LYP) =  -611.147563016     A.U. after    7 cycles
 Optimization completed.
    -- Stationary point found.
 Normal termination of Gaussian 16 at Thu Dec 10 10:38:46 2020.

 --------------------------------------------------------------------
 #N Geom=AllCheck Guess=TCheck SCRF=Check GenChk RB3LYP/6-31G(d) Freq
 --------------------------------------------------------------------

 Structure from the checkpoint file:  "JID_4819.chk"
 -------------------------------
 CID_149308817_JID_4819_neutraal
 -------------------------------
 Charge =  0 Multiplicity = 1

 SCF Done:  E(RB3LYP) =  -611.147563016     A.U. after    1 cycles

  Exact polarizability: 186.349  -2.810 117.252  16.383   0.638  78.865
 Approx polarizability: 257.056  -9.908 215.797  33.061   1.977 118.159

                      1                      2                      3
                      A                      A                      A
 Frequencies --     32.4048                71.6928                91.1018
 Red. masses --      4.8875                 3.6299                 1.1386
 Frc consts  --      0.0030                 0.0110                 0.0056
 IR Inten    --      0.2435                 0.5623                 0.4646

                      4                      5                      6
                      A                      A                      A
 Frequencies --    100.6678               128.9498               216.5375
 Red. masses --      3.5827                 3.5798                 3.9377
 Frc consts  --      0.0214                 0.0351                 0.1088
 IR Inten    --      4.1472                 1.7877                 5.8383

                      7                      8                      9
                      A                      A                      A
 Frequencies --    226.5141               280.8022               317.4335
 Red. masses --      3.6715                 4.8268                 3.6544
 Frc consts  --      0.1110                 0.2242                 0.2170
 IR Inten    --      2.5470                 0.1755                 3.6091

                     10                     11                     12
                      A                      A                      A
 Frequencies --    360.2414               371.1953               414.8487
 Red. masses --      2.7602                 2.7852                 3.5949
 Frc consts  --      0.2110                 0.2261                 0.3645
 IR Inten    --      2.4984                 2.6256                 5.6462

                     13                     14                     15
                      A                      A                      A
 Frequencies --    424.6851               442.2303               488.8666
 Red. masses --      1.3904                 2.7241                 3.5858
 Frc consts  --      0.1477                 0.3139                 0.5049
 IR Inten    --     83.0305                16.9583                 7.2330

                     16                     17                     18
                      A                      A                      A
 Frequencies --    546.1330               604.3431               674.8153
 Red. masses --      4.1300                 4.2933                 3.5611
 Frc consts  --      0.7258                 0.9239                 0.9554
 IR Inten    --      2.3737                 0.2082                 2.2016

                     19                     20                     21
                      A                      A                      A
 Frequencies --    689.7278               694.6732               754.4155
 Red. masses --      3.2138                 5.0940                 4.4879
 Frc consts  --      0.9008                 1.4483                 1.5049
 IR Inten    --      7.2973                 0.9009                 9.5757

                     22                     23                     24
                      A                      A                      A
 Frequencies --    775.8891               809.3564               840.3652
 Red. masses --      4.5657                 3.0338                 1.6937
 Frc consts  --      1.6194                 1.1709                 0.7047
 IR Inten    --      4.3703                 0.2016                18.3069

                     25                     26                     27
                      A                      A                      A
 Frequencies --    857.2578               863.3479               868.9745
 Red. masses --      1.9162                 2.1056                 3.8324
 Frc consts  --      0.8297                 0.9247                 1.7050
 IR Inten    --     10.8132                25.2429                 8.1150

                     28                     29                     30
                      A                      A                      A
 Frequencies --    932.3382               955.2166               968.2037
 Red. masses --      2.8644                 1.3064                 2.4585
 Frc consts  --      1.4670                 0.7023                 1.3578
 IR Inten    --      3.5419                 0.0915                 0.8322

                     31                     32                     33
                      A                      A                      A
 Frequencies --    993.6583               995.3299              1038.6739
 Red. masses --      2.2741                 2.1993                 2.6933
 Frc consts  --      1.3229                 1.2837                 1.7120
 IR Inten    --      7.7028                10.9157                 1.1029

                     34                     35                     36
                      A                      A                      A
 Frequencies --   1052.0961              1075.0115              1104.2770
 Red. masses --      1.6127                 1.4973                 1.1970
 Frc consts  --      1.0517                 1.0195                 0.8600
 IR Inten    --      4.3578                 1.9681                 0.7419

                     37                     38                     39
                      A                      A                      A
 Frequencies --   1158.6115              1161.2067              1174.9289
 Red. masses --      1.3389                 1.4582                 1.7855
 Frc consts  --      1.0589                 1.1585                 1.4523
 IR Inten    --      0.7004                 2.5203                 0.8428

                     40                     41                     42
                      A                      A                      A
 Frequencies --   1178.5380              1237.9325              1244.5579
 Red. masses --      1.2954                 1.8445                 1.5293
 Frc consts  --      1.0601                 1.6654                 1.3957
 IR Inten    --      0.4736                10.1654                 8.4851

                     43                     44                     45
                      A                      A                      A
 Frequencies --   1266.2951              1308.2631              1315.1426
 Red. masses --      1.9878                 2.0229                 2.3130
 Frc consts  --      1.8780                 2.0400                 2.3570
 IR Inten    --      1.5989                15.7326                37.4468

                     46                     47                     48
                      A                      A                      A
 Frequencies --   1338.9152              1362.6711              1397.1260
 Red. masses --      1.9398                 2.1515                 3.3325
 Frc consts  --      2.0488                 2.3539                 3.8326
 IR Inten    --      3.4228                 3.2744                24.5230

                     49                     50                     51
                      A                      A                      A
 Frequencies --   1429.4245              1439.3791              1452.1065
 Red. masses --      2.1071                 1.6248                 1.5893
 Frc consts  --      2.5367                 1.9834                 1.9745
 IR Inten    --     42.6421                26.1438                26.7944

                     52                     53                     54
                      A                      A                      A
 Frequencies --   1494.1319              1507.5789              1511.5626
 Red. masses --      2.9076                 1.1250                 1.0434
 Frc consts  --      3.8244                 1.5065                 1.4047
 IR Inten    --     32.9974                 8.7442                 8.3419

                     55                     56                     57
                      A                      A                      A
 Frequencies --   1515.2848              1545.5994              1552.0754
 Red. masses --      1.2644                 3.0538                 1.3666
 Frc consts  --      1.7105                 4.2981                 1.9397
 IR Inten    --      0.2979                 3.7762                11.4657

                     58                     59                     60
                      A                      A                      A
 Frequencies --   1605.5683              1635.7655              1691.8477
 Red. masses --      5.2225                 7.0556                 6.6730
 Frc consts  --      7.9321                11.1232                11.2537
 IR Inten    --     44.2984                 2.6573                18.9356

                     61                     62                     63
                      A                      A                      A
 Frequencies --   3036.3062              3047.2323              3074.9483
 Red. masses --      1.0610                 1.0402                 1.1016
 Frc consts  --      5.7633                 5.6909                 6.1368
 IR Inten    --     29.4947                35.0185                16.1019

                     64                     65                     66
                      A                      A                      A
 Frequencies --   3096.7726              3103.9389              3114.2482
 Red. masses --      1.1012                 1.0803                 1.0592
 Frc consts  --      6.2222                 6.1325                 6.0525
 IR Inten    --     16.7496                59.4910                39.6250

                     67                     68                     69
                      A                      A                      A
 Frequencies --   3169.5105              3182.9824              3202.8029
 Red. masses --      1.0978                 1.0907                 1.1197
 Frc consts  --      6.4974                 6.5104                 6.7674
 IR Inten    --      3.4972                15.8919                32.3000

                     70                     71                     72
                      A                      A                      A
 Frequencies --   3208.9747              3224.5583              3654.5889
 Red. masses --      1.0880                 1.0945                 1.0801
 Frc consts  --      6.6009                 6.7052                 8.4994
 IR Inten    --      4.0126                 9.4150                42.3533

 - Thermochemistry -
 -------------------
 Temperature   298.150 Kelvin.  Pressure   1.00000 Atm.
 Atom     1 has atomic number  6 and mass  12.00000

 Molecular mass:   188.09496 amu.
 Principal axes and moments of inertia in atomic units:
                           1         2         3
     Eigenvalues --   894.186925142.210425412.05857
           X            0.99998   0.00022   0.00573
           Y           -0.00015   0.99992  -0.01290
           Z           -0.00573   0.01290   0.99990
 This molecule is an asymmetric top.
 Rotational symmetry number  1.
 Warning -- assumption of classical behavior for rotation
           may cause significant error
 Rotational temperatures (Kelvin)      0.09686     0.01684     0.01600
 Rotational constants (GHZ):           2.01830     0.35097     0.33347
 Zero-point vibrational energy     560472.3 (Joules/Mol)
                                  133.95610 (Kcal/Mol)
 Warning -- explicit consideration of  17 degrees of freedom as
           vibrations may cause significant error
 Vibrational temperatures:     46.62   103.15   131.08   144.84   185.53
          (Kelvin)            311.55   325.90   404.01   456.72   518.31
                              534.07   596.87   611.03   636.27   703.37
                              785.76   869.51   970.91   992.36   999.48
                             1085.44  1116.33  1164.48  1209.10  1233.40
                             1242.17  1250.26  1341.43  1374.34  1393.03
                             1429.65  1432.06  1494.42  1513.73  1546.70
                             1588.81  1666.98  1670.72  1690.46  1695.65
                             1781.11  1790.64  1821.92  1882.30  1892.20
                             1926.40  1960.58  2010.15  2056.62  2070.95
                             2089.26  2149.72  2169.07  2174.80  2180.16
                             2223.77  2233.09  2310.05  2353.50  2434.19
                             4368.57  4384.29  4424.16  4455.57  4465.88
                             4480.71  4560.22  4579.60  4608.12  4617.00
                             4639.42  5258.14

 Zero-point correction=                           0.213473 (Hartree/Particle)
 Thermal correction to Energy=                    0.225559
 Thermal correction to Enthalpy=                  0.226503
 Thermal correction to Gibbs Free Energy=         0.174287
 Sum of electronic and zero-point Energies=           -610.934090
 Sum of electronic and thermal Energies=              -610.922004
 Sum of electronic and thermal Enthalpies=            -610.921060
 Sum of electronic and thermal Free Energies=         -610.973276

                     E (Thermal)             CV                S
                      KCal/Mol        Cal/Mol-Kelvin    Cal/Mol-Kelvin
 Total                  141.540             46.545            109.897
 Electronic               0.000              0.000              0.000
 Translational            0.889              2.981             41.601
 Rotational               0.889              2.981             31.587
 Vibrational            139.763             40.583             36.709
 Vibration     1          0.594              1.983              5.676
 Vibration     2          0.598              1.968              4.106
 Vibration     3          0.602              1.956              3.636
 Vibration     4          0.604              1.949              3.441
 Vibration     5          0.611              1.924              2.962
 Vibration     6          0.645              1.816              1.988
 Vibration     7          0.650              1.801              1.906
 Vibration     8          0.680              1.709              1.529
 Vibration     9          0.704              1.640              1.323
 Vibration    10          0.735              1.554              1.121
 Vibration    11          0.743              1.531              1.075
 Vibration    12          0.778              1.438              0.910
 Vibration    13          0.787              1.417              0.876
 Vibration    14          0.802              1.378              0.820
 Vibration    15          0.845              1.275              0.687
 Vibration    16          0.901              1.148              0.552
 Vibration    17          0.963              1.023              0.442

 Optimization completed.
    -- Stationary point found.
 Normal termination of Gaussian 16 at Thu Dec 10 10:45:34 2020.

 ----------------------------------------------------------------------
 # B3LYP/6-311++G(d,p) empiricaldispersion=gd3bj scf=xqc pop=npa geom=c
 heck
 ----------------------------------------------------------------------

 ---------------------------------------
 CID_149308817_JID_4819_Energie_neutraal
 ---------------------------------------
 Structure from the checkpoint file:  "JID_4819.chk"
 Charge =  0 Multiplicity = 1

 SCF Done:  E(RB3LYP) =  -611.311256044     A.U. after   15 cycles
 Normal termination of Gaussian 16 at Thu Dec 10 10:48:07 2020.

 ----------------------------------------------------------------------
 # B3LYP/6-311++G(d,p) empiricaldispersion=gd3bj scf=xqc pop=npa geom=c
 heck
 ----------------------------------------------------------------------

 -------------------------------------
 CID_149308817_JID_4819_Energie_kation
 -------------------------------------
 Structure from the checkpoint file:  "JID_4819.chk"
 Charge =  1 Multiplicity = 2

 SCF Done:  E(UB3LYP) =  -611.021646394     A.U. after   26 cycles
 Normal termination of Gaussian 16 at Thu Dec 10 10:53:43 2020.
 Gaussian 16:  ES64L-G16RevA.03 25-Dec-2016

 ----------------------------------------------------------------------
 # B3LYP/6-311++G(d,p) empiricaldispersion=gd3bj scf=xqc pop=npa geom=c
 heck
 ----------------------------------------------------------------------

 ------------------------------------
 CID_149308817_JID_4819_Energie_anion
 ------------------------------------
 Structure from the checkpoint file:  "JID_4819.chk"
 Charge = -1 Multiplicity = 2

                         Standard orientation:
 ---------------------------------------------------------------------
 Center     Atomic      Atomic             Coordinates (Angstroms)
 Number     Number       Type             X           Y           Z
 ---------------------------------------------------------------------
      1          6           0        4.686373   -0.346476    0.539786
      2          6           0        3.248189   -0.092499    0.235276
      3          7           0        2.683649    1.088849    0.149464
      4          6           0        1.347697    0.839440   -0.147794
      5          6           0        1.115900   -0.553857   -0.240740
      6          7           0        2.353246   -1.124948    0.009567
      7          6           0       -0.138096   -1.088139   -0.530467
      8          6           0       -1.190904   -0.193505   -0.738266
      9          6           0       -0.966780    1.199645   -0.647773
     10          6           0        0.285722    1.726160   -0.353980
     11          6           0       -2.578616   -0.716492   -1.028704
     12          6           0       -3.572260   -0.571678    0.114949
     13          6           0       -3.173781   -0.331612    1.507663
     14          8           0       -3.716321    0.725984    0.701244
     15          1           0        4.805968   -0.941075    1.453997
     16          1           0        5.181836   -0.886894   -0.276355
     17          1           0        5.188794    0.612011    0.678897
     18          1           0        2.568031   -2.110597    0.022762
     19          1           0       -0.301375   -2.160856   -0.596667
     20          1           0       -1.808516    1.867289   -0.795637
     21          1           0        0.447083    2.797195   -0.285427
     22          1           0       -3.002992   -0.200191   -1.900482
     23          1           0       -2.529754   -1.780556   -1.293158
     24          1           0       -4.524978   -1.078111   -0.059371
     25          1           0       -3.815462   -0.670092    2.321374
     26          1           0       -2.117005   -0.229223    1.747194
 ---------------------------------------------------------------------

 SCF Done:  E(UB3LYP) =  -611.303441456     A.U. after   33 cycles
 SCF Done:  E(UB3LYP) =  -611.303441456     a.u. after    1 cycles

 The electronic state is 2-A.
 Alpha  occ. eigenvalues --  -19.04543 -14.25728 -14.19445 -10.14317 -10.13948
 Alpha  occ. eigenvalues --  -10.13028 -10.10885 -10.09265 -10.08721 -10.08323
 Alpha  occ. eigenvalues --  -10.07853 -10.07673 -10.07472 -10.06951  -0.98670
 Alpha  occ. eigenvalues --   -0.91397  -0.77601  -0.75503  -0.68980  -0.65828
 Alpha  occ. eigenvalues --   -0.63798  -0.59866  -0.57335  -0.52572  -0.51832
 Alpha  occ. eigenvalues --   -0.49537  -0.47894  -0.43566  -0.42329  -0.40531
 Alpha  occ. eigenvalues --   -0.38006  -0.37153  -0.35736  -0.34503  -0.33634
 Alpha  occ. eigenvalues --   -0.32861  -0.30945  -0.30668  -0.30337  -0.29488
 Alpha  occ. eigenvalues --   -0.28340  -0.26349  -0.25383  -0.23687  -0.21727
 Alpha  occ. eigenvalues --   -0.20776  -0.18639  -0.17797  -0.13240  -0.12471
 Alpha  occ. eigenvalues --    0.04076
 Alpha virt. eigenvalues --    0.05852   0.07284   0.07731   0.08064   0.08614
 Alpha virt. eigenvalues --    0.09478   0.09507   0.10205   0.10719   0.11526
 Alpha virt. eigenvalues --    0.11652   0.12493   0.13064   0.13575   0.14023

  Beta  occ. eigenvalues --  -19.04540 -14.25661 -14.19442 -10.14312 -10.13936
  Beta  occ. eigenvalues --  -10.13018 -10.10887 -10.09258 -10.08709 -10.08318
  Beta  occ. eigenvalues --  -10.07805 -10.07647 -10.07472 -10.06949  -0.98663
  Beta  occ. eigenvalues --   -0.91357  -0.77538  -0.75484  -0.68952  -0.65794
  Beta  occ. eigenvalues --   -0.63757  -0.59827  -0.57310  -0.52493  -0.51799
  Beta  occ. eigenvalues --   -0.49477  -0.47848  -0.43507  -0.42300  -0.40502
  Beta  occ. eigenvalues --   -0.37983  -0.37121  -0.35690  -0.34458  -0.33604
  Beta  occ. eigenvalues --   -0.32832  -0.30902  -0.30627  -0.30303  -0.29450
  Beta  occ. eigenvalues --   -0.28315  -0.26331  -0.25357  -0.23655  -0.21709
  Beta  occ. eigenvalues --   -0.20749  -0.18625  -0.17788  -0.13202  -0.12440
  Beta virt. eigenvalues --    0.06410   0.07199   0.07409   0.08148   0.08597
  Beta virt. eigenvalues --    0.09031   0.10036   0.10214   0.10554   0.10925
  Beta virt. eigenvalues --    0.11761   0.11988   0.12658   0.13008   0.13899

 Mulliken charges and spin densities:
               1          2
     1  C    1.406811  -1.619352
     2  C   -0.709532   0.993788
     3  N   -0.103761  -0.027454
     4  C   -0.402576   0.149842
     5  C    1.281862  -1.279821
     6  N   -0.355214   0.198577
     7  C   -0.439634  -0.451816
     8  C    0.761452   0.301654
     9  C   -0.661065   0.251649
    10  C   -0.596348   0.314615
    11  C    1.170933  -1.818775
    12  C   -0.054662  -0.004020
    13  C    0.215481  -0.581260
    14  O   -0.169668   0.003599
    15  H   -0.456656   0.628673
    16  H   -0.380205   0.547358
    17  H    0.049925   0.110213
    18  H   -0.586166   0.926241
    19  H   -0.941098   1.136811
    20  H    0.173895   0.012882
    21  H    0.130343   0.028033
    22  H    0.128722   0.040325
    23  H   -0.194016   0.361105
    24  H   -0.330807   0.526580
    25  H   -0.070003   0.220520
    26  H    0.131985   0.030031
 Sum of Mulliken charges =  -1.00000   1.00000

 Dipole moment (field-independent basis, Debye):
    X=             -4.3582    Y=              5.9252    Z=             -0.2357  Tot=              7.3592
 Quadrupole moment (field-independent basis, Debye-Ang):
   XX=           -164.1070   YY=           -132.3502   ZZ=           -107.0198
   XY=             10.7469   XZ=             -2.0628   YZ=             -2.0585

 Summary of Natural Population Analysis:

                                       Natural Population
                Natural  -----------------------------------------------
    Atom  No    Charge         Core      Valence    Rydberg      Total
 -----------------------------------------------------------------------
      C    1   -0.30807      0.99963     2.30266    0.00579     3.30807
      C    2    0.21356      0.99963     1.76977    0.01704     2.78644
      N    3   -0.26529      0.99968     2.75659    0.00902     3.76529
      C    4    0.05452      0.99945     1.93184    0.01419     2.94548
      C    5    0.06720      0.99946     1.92100    0.01234     2.93280
      N    6   -0.27851      0.99963     2.76812    0.01076     3.77851
      C    7   -0.11080      0.99947     2.10125    0.01009     3.11080
      C    8   -0.02505      0.99952     2.01476    0.01077     3.02505
      C    9   -0.11094      0.99952     2.10297    0.00845     3.11094
      C   10   -0.09952      0.99952     2.09195    0.00806     3.09952
      C   11   -0.20926      0.99958     2.19932    0.01036     3.20926
      C   12    0.04871      0.99959     1.93590    0.01581     2.95129
      C   13   -0.03470      0.99957     2.02487    0.01026     3.03470
      O   14   -0.28486      0.99992     3.27753    0.00741     4.28486
      H   15    0.11166      0.00000     0.38643    0.00191     0.38834
      H   16    0.11014      0.00000     0.38848    0.00138     0.38986
      H   17    0.11186      0.00000     0.38702    0.00112     0.38814
      H   18    0.21443      0.00000     0.25580    0.02977     0.28557
      H   19    0.10685      0.00000     0.39071    0.00244     0.39315
      H   20    0.10390      0.00000     0.39505    0.00104     0.39610
      H   21    0.10175      0.00000     0.39714    0.00111     0.39825
      H   22    0.10417      0.00000     0.39486    0.00097     0.39583
      H   23    0.10851      0.00000     0.38994    0.00155     0.39149
      H   24    0.08856      0.00000     0.40982    0.00162     0.41144
      H   25    0.08554      0.00000     0.41351    0.00095     0.41446
      H   26    0.09566      0.00000     0.40326    0.00109     0.40434
 =======================================================================
   * Total *   -0.00000     13.99416    35.81055    0.19529    50.00000

 Normal termination of Gaussian 16 at Thu Dec 10 11:01:08 2020.
