 Gaussian 16, Revision A.03,

 -----------------------------------------------------------
 # opt freq B3LYP/6-31G(d) empiricaldispersion=gd3bj scf=xqc
 -----------------------------------------------------------

 -------------------------------
 CID_148612464_JID_2355_neutraal
 -------------------------------
 Symbolic Z-matrix:
 Charge =  0 Multiplicity = 1

 SCF Done:  E(RB3LYP) =  -594.286394697     A.U. after   14 cycles
 SCF Done:  E(RB3LYP) =  -594.291485227     A.U. after   12 cycles
 SCF Done:  E(RB3LYP) =  -594.292486847     A.U. after   11 cycles
 SCF Done:  E(RB3LYP) =  -594.293156819     A.U. after   11 cycles
 SCF Done:  E(RB3LYP) =  -594.293452374     A.U. after   11 cycles
 SCF Done:  E(RB3LYP) =  -594.293605727     A.U. after   10 cycles
 SCF Done:  E(RB3LYP) =  -594.293633010     A.U. after   10 cycles
 SCF Done:  E(RB3LYP) =  -594.293643652     A.U. after   10 cycles
 SCF Done:  E(RB3LYP) =  -594.293651941     A.U. after    9 cycles
 SCF Done:  E(RB3LYP) =  -594.293660235     A.U. after   10 cycles
 SCF Done:  E(RB3LYP) =  -594.296372589     A.U. after   10 cycles
 SCF Done:  E(RB3LYP) =  -594.296379128     A.U. after    9 cycles
 SCF Done:  E(RB3LYP) =  -594.296380125     A.U. after    8 cycles
 SCF Done:  E(RB3LYP) =  -594.296381323     A.U. after    8 cycles
 SCF Done:  E(RB3LYP) =  -594.296381516     A.U. after    8 cycles
 SCF Done:  E(RB3LYP) =  -594.296381534     A.U. after    7 cycles
 Optimization completed.
    -- Stationary point found.
 Normal termination of Gaussian 16 at Wed Dec  9 17:36:18 2020.

 --------------------------------------------------------------------
 #N Geom=AllCheck Guess=TCheck SCRF=Check GenChk RB3LYP/6-31G(d) Freq
 --------------------------------------------------------------------

 Structure from the checkpoint file:  "JID_2355.chk"
 -------------------------------
 CID_148612464_JID_2355_neutraal
 -------------------------------
 Charge =  0 Multiplicity = 1

 SCF Done:  E(RB3LYP) =  -594.296381534     A.U. after    1 cycles

  Exact polarizability: 110.439  -9.187 115.479   0.928  -6.147  77.924
 Approx polarizability: 140.246 -16.123 163.345   2.822 -13.939 117.396

                      1                      2                      3
                      A                      A                      A
 Frequencies --     34.5233                67.4401                92.9036
 Red. masses --      3.5535                 5.0882                 2.0533
 Frc consts  --      0.0025                 0.0136                 0.0104
 IR Inten    --      0.1719                 0.2637                 0.5391

                      4                      5                      6
                      A                      A                      A
 Frequencies --     97.2575               111.0906               145.7571
 Red. masses --      1.6759                 3.4486                 3.4558
 Frc consts  --      0.0093                 0.0251                 0.0433
 IR Inten    --      0.0316                 3.4969                 3.1452

                      7                      8                      9
                      A                      A                      A
 Frequencies --    164.3319               185.8797               223.8142
 Red. masses --      1.3261                 3.5308                 1.7332
 Frc consts  --      0.0211                 0.0719                 0.0512
 IR Inten    --      0.3769                 0.7194                18.7004

                     10                     11                     12
                      A                      A                      A
 Frequencies --    262.0950               273.7478               305.2674
 Red. masses --      1.2305                 1.5505                 2.9941
 Frc consts  --      0.0498                 0.0685                 0.1644
 IR Inten    --      0.6683                31.0984                 0.1690

                     13                     14                     15
                      A                      A                      A
 Frequencies --    320.6200               346.6992               383.6827
 Red. masses --      4.0805                 3.1153                 4.2319
 Frc consts  --      0.2471                 0.2206                 0.3671
 IR Inten    --      2.6313                 1.7166                 5.7090

                     16                     17                     18
                      A                      A                      A
 Frequencies --    429.7295               505.5369               523.2284
 Red. masses --      3.0456                 1.1488                 3.6896
 Frc consts  --      0.3314                 0.1730                 0.5951
 IR Inten    --     21.7188               135.1042                18.3075

                     19                     20                     21
                      A                      A                      A
 Frequencies --    569.5596               612.8209               654.5824
 Red. masses --      3.2392                 4.9017                 5.6816
 Frc consts  --      0.6191                 1.0846                 1.4343
 IR Inten    --      5.6655                 0.7550                 4.7802

                     22                     23                     24
                      A                      A                      A
 Frequencies --    719.4425               803.2181               811.5537
 Red. masses --      3.5635                 2.8521                 1.8145
 Frc consts  --      1.0867                 1.0841                 0.7041
 IR Inten    --     14.9160                 7.7503               211.1862

                     25                     26                     27
                      A                      A                      A
 Frequencies --    849.9210               896.2774               927.2429
 Red. masses --      1.0771                 2.5149                 2.1532
 Frc consts  --      0.4584                 1.1903                 1.0907
 IR Inten    --      0.7298                14.0386                70.4303

                     28                     29                     30
                      A                      A                      A
 Frequencies --    949.4594              1015.7897              1065.5114
 Red. masses --      2.1491                 2.1520                 3.3235
 Frc consts  --      1.1414                 1.3083                 2.2231
 IR Inten    --     24.8997                55.4193               100.1830

                     31                     32                     33
                      A                      A                      A
 Frequencies --   1069.7544              1086.1050              1093.2411
 Red. masses --      1.5816                 3.0718                 2.4728
 Frc consts  --      1.0664                 2.1349                 1.7413
 IR Inten    --      4.8320                88.0758                 4.2475

                     34                     35                     36
                      A                      A                      A
 Frequencies --   1106.5077              1132.6248              1135.6779
 Red. masses --      3.0046                 3.9746                 2.7634
 Frc consts  --      2.1675                 3.0041                 2.0999
 IR Inten    --     33.0144               109.8240                70.7826

                     37                     38                     39
                      A                      A                      A
 Frequencies --   1179.6821              1196.8830              1229.0018
 Red. masses --      2.9069                 1.4889                 1.4154
 Frc consts  --      2.3835                 1.2567                 1.2596
 IR Inten    --      2.8587                 3.8280                 8.3630

                     40                     41                     42
                      A                      A                      A
 Frequencies --   1236.7957              1243.6443              1275.0195
 Red. masses --      2.4411                 1.4632                 1.6315
 Frc consts  --      2.2000                 1.3334                 1.5627
 IR Inten    --     41.9175                 6.9177                76.6825

                     43                     44                     45
                      A                      A                      A
 Frequencies --   1310.5049              1327.3874              1348.9434
 Red. masses --      1.1204                 1.4434                 1.9998
 Frc consts  --      1.1337                 1.4984                 2.1440
 IR Inten    --      1.0464                38.5385               197.7287

                     46                     47                     48
                      A                      A                      A
 Frequencies --   1382.1102              1405.7967              1425.5983
 Red. masses --      1.5487                 1.2100                 1.3578
 Frc consts  --      1.7430                 1.4089                 1.6258
 IR Inten    --      7.4322                25.4707                 3.3169

                     49                     50                     51
                      A                      A                      A
 Frequencies --   1443.3263              1450.9461              1455.6595
 Red. masses --      1.2690                 1.3341                 1.4054
 Frc consts  --      1.5575                 1.6548                 1.7546
 IR Inten    --     18.8587                73.1578                 9.1223

                     52                     53                     54
                      A                      A                      A
 Frequencies --   1463.2618              1513.2065              1514.8318
 Red. masses --      1.3547                 1.0430                 1.0398
 Frc consts  --      1.7089                 1.4071                 1.4059
 IR Inten    --     10.7772                10.5966                 1.2868

                     55                     56                     57
                      A                      A                      A
 Frequencies --   1526.0417              1532.7761              1533.2406
 Red. masses --      1.0556                 1.0752                 1.0714
 Frc consts  --      1.4484                 1.4883                 1.4839
 IR Inten    --      1.3866                 3.5802                 3.4846

                     58                     59                     60
                      A                      A                      A
 Frequencies --   1556.1876              1680.9968              1767.9192
 Red. masses --      1.0864                 1.1126                 8.7263
 Frc consts  --      1.5501                 1.8524                16.0695
 IR Inten    --      6.4879                31.5765               148.7283

                     61                     62                     63
                      A                      A                      A
 Frequencies --   2984.5687              2991.0401              3025.9449
 Red. masses --      1.0732                 1.0823                 1.0462
 Frc consts  --      5.6322                 5.7049                 5.6442
 IR Inten    --     27.2177                89.1595                37.5803

                     64                     65                     66
                      A                      A                      A
 Frequencies --   3031.3783              3035.1967              3064.5205
 Red. masses --      1.0557                 1.0839                 1.0534
 Frc consts  --      5.7158                 5.8831                 5.8289
 IR Inten    --     38.3152                54.8772                17.5252

                     67                     68                     69
                      A                      A                      A
 Frequencies --   3064.5865              3073.8533              3113.6922
 Red. masses --      1.0789                 1.1085                 1.0927
 Frc consts  --      5.9699                 6.1711                 6.2414
 IR Inten    --     14.3176                36.1405                34.6191

                     70                     71                     72
                      A                      A                      A
 Frequencies --   3136.8331              3143.4454              3177.9639
 Red. masses --      1.1024                 1.1043                 1.0914
 Frc consts  --      6.3912                 6.4290                 6.4941
 IR Inten    --     21.8066                27.0278                19.0089

                     73                     74                     75
                      A                      A                      A
 Frequencies --   3474.6447              3576.7968              3703.0153
 Red. masses --      1.0496                 1.0931                 1.0651
 Frc consts  --      7.4660                 8.2393                 8.6053
 IR Inten    --      0.0909                 0.2764                24.9156

 - Thermochemistry -
 -------------------
 Temperature   298.150 Kelvin.  Pressure   1.00000 Atm.
 Atom     1 has atomic number  6 and mass  12.00000

 Molecular mass:   173.10519 amu.
 Principal axes and moments of inertia in atomic units:
                           1         2         3
     Eigenvalues --  1712.174592525.922343945.48432
           X            0.99966  -0.02610   0.00188
           Y            0.02611   0.99963  -0.00746
           Z           -0.00169   0.00750   0.99997
 This molecule is an asymmetric top.
 Rotational symmetry number  1.
 Warning -- assumption of classical behavior for rotation
           may cause significant error
 Rotational temperatures (Kelvin)      0.05059     0.03429     0.02195
 Rotational constants (GHZ):           1.05406     0.71449     0.45742
 Zero-point vibrational energy     613505.7 (Joules/Mol)
                                  146.63137 (Kcal/Mol)
 Warning -- explicit consideration of  20 degrees of freedom as
           vibrations may cause significant error
 Vibrational temperatures:     49.67    97.03   133.67   139.93   159.83
          (Kelvin)            209.71   236.44   267.44   322.02   377.10
                              393.86   439.21   461.30   498.82   552.03
                              618.28   727.35   752.81   819.47   881.71
                              941.80  1035.12  1155.65  1167.64  1222.85
                             1289.54  1334.10  1366.06  1461.49  1533.03
                             1539.14  1562.66  1572.93  1592.02  1629.59
                             1633.99  1697.30  1722.05  1768.26  1779.47
                             1789.33  1834.47  1885.52  1909.81  1940.83
                             1988.55  2022.63  2051.12  2076.62  2087.59
                             2094.37  2105.31  2177.17  2179.51  2195.63
                             2205.32  2205.99  2239.01  2418.58  2543.64
                             4294.13  4303.44  4353.66  4361.48  4366.97
                             4409.16  4409.26  4422.59  4479.91  4513.20
                             4522.72  4572.38  4999.24  5146.21  5327.81

 Zero-point correction=                           0.233672 (Hartree/Particle)
 Thermal correction to Energy=                    0.247224
 Thermal correction to Enthalpy=                  0.248168
 Thermal correction to Gibbs Free Energy=         0.193103
 Sum of electronic and zero-point Energies=           -594.062710
 Sum of electronic and thermal Energies=              -594.049158
 Sum of electronic and thermal Enthalpies=            -594.048214
 Sum of electronic and thermal Free Energies=         -594.103279

                     E (Thermal)             CV                S
                      KCal/Mol        Cal/Mol-Kelvin    Cal/Mol-Kelvin
 Total                  155.135             48.987            115.894
 Electronic               0.000              0.000              0.000
 Translational            0.889              2.981             41.354
 Rotational               0.889              2.981             31.212
 Vibrational            153.358             43.026             43.328
 Vibration     1          0.594              1.983              5.551
 Vibration     2          0.598              1.970              4.227
 Vibration     3          0.602              1.954              3.598
 Vibration     4          0.603              1.951              3.509
 Vibration     5          0.607              1.940              3.250
 Vibration     6          0.617              1.907              2.727
 Vibration     7          0.623              1.886              2.499
 Vibration     8          0.632              1.859              2.269
 Vibration     9          0.649              1.805              1.928
 Vibration    10          0.669              1.742              1.648
 Vibration    11          0.676              1.722              1.572
 Vibration    12          0.696              1.664              1.388
 Vibration    13          0.706              1.634              1.307
 Vibration    14          0.725              1.582              1.181
 Vibration    15          0.753              1.505              1.025
 Vibration    16          0.791              1.406              0.860
 Vibration    17          0.861              1.238              0.644
 Vibration    18          0.878              1.199              0.603
 Vibration    19          0.926              1.097              0.505
 Vibration    20          0.972              1.005              0.428

 Optimization completed.
    -- Stationary point found.
 Normal termination of Gaussian 16 at Wed Dec  9 17:43:49 2020.

 ----------------------------------------------------------------------
 # B3LYP/6-311++G(d,p) empiricaldispersion=gd3bj scf=xqc pop=npa geom=c
 heck
 ----------------------------------------------------------------------

 ---------------------------------------
 CID_148612464_JID_2355_Energie_neutraal
 ---------------------------------------
 Structure from the checkpoint file:  "JID_2355.chk"
 Charge =  0 Multiplicity = 1

 SCF Done:  E(RB3LYP) =  -594.486438718     A.U. after   14 cycles
 Normal termination of Gaussian 16 at Wed Dec  9 17:46:47 2020.

 ----------------------------------------------------------------------
 # B3LYP/6-311++G(d,p) empiricaldispersion=gd3bj scf=xqc pop=npa geom=c
 heck
 ----------------------------------------------------------------------

 -------------------------------------
 CID_148612464_JID_2355_Energie_kation
 -------------------------------------
 Structure from the checkpoint file:  "JID_2355.chk"
 Charge =  1 Multiplicity = 2

 SCF Done:  E(UB3LYP) =  -594.185216835     A.U. after   24 cycles
 Normal termination of Gaussian 16 at Wed Dec  9 17:54:43 2020.
 Gaussian 16:  ES64L-G16RevA.03 25-Dec-2016

 ----------------------------------------------------------------------
 # B3LYP/6-311++G(d,p) empiricaldispersion=gd3bj scf=xqc pop=npa geom=c
 heck
 ----------------------------------------------------------------------

 ------------------------------------
 CID_148612464_JID_2355_Energie_anion
 ------------------------------------
 Structure from the checkpoint file:  "JID_2355.chk"
 Charge = -1 Multiplicity = 2

                         Standard orientation:
 ---------------------------------------------------------------------
 Center     Atomic      Atomic             Coordinates (Angstroms)
 Number     Number       Type             X           Y           Z
 ---------------------------------------------------------------------
      1          6           0       -3.948611    0.709623   -0.258226
      2          6           0       -2.752625   -0.182037    0.017044
      3          8           0       -1.578445    0.570760   -0.294029
      4          6           0       -0.359828    0.003115   -0.138206
      5          6           0        0.093962   -1.192739    0.266705
      6          6           0        1.615072   -1.168822    0.183853
      7          8           0        1.952471    0.130750   -0.317691
      8          6           0        0.779180    0.932153   -0.457844
      9          6           0        0.889233    2.119956    0.501609
     10          8           0        2.086832    2.834980    0.266741
     11          7           0        2.236353   -2.158703   -0.673972
     12          6           0       -0.553210   -2.452919    0.758201
     13          1           0       -3.905979    1.610639    0.361305
     14          1           0       -4.877498    0.175049   -0.033318
     15          1           0       -3.966717    1.013754   -1.309218
     16          1           0       -2.721675   -0.488453    1.070555
     17          1           0       -2.781960   -1.086313   -0.604604
     18          1           0        2.066978   -1.303637    1.180141
     19          1           0        0.727849    1.313741   -1.487446
     20          1           0        0.055307    2.811226    0.347287
     21          1           0        0.836118    1.740199    1.536061
     22          1           0        2.784024    2.156813    0.239747
     23          1           0        2.279522   -3.063471   -0.211549
     24          1           0        1.700708   -2.264359   -1.534453
     25          1           0       -0.211815   -2.687367    1.776881
     26          1           0       -1.641576   -2.413211    0.777941
     27          1           0       -0.263661   -3.305592    0.129487
 ---------------------------------------------------------------------

 SCF Done:  E(UB3LYP) =  -594.476968627     A.U. after   30 cycles

 The electronic state is 2-A.
 Alpha  occ. eigenvalues --  -19.05880 -19.03214 -19.03103 -14.19747 -10.15323
 Alpha  occ. eigenvalues --  -10.13104 -10.13022 -10.12588 -10.12180 -10.07171
 Alpha  occ. eigenvalues --  -10.06694 -10.06512  -0.97664  -0.95801  -0.92963
 Alpha  occ. eigenvalues --   -0.78673  -0.70993  -0.67268  -0.64942  -0.59523
 Alpha  occ. eigenvalues --   -0.56491  -0.53759  -0.49065  -0.46677  -0.43408
 Alpha  occ. eigenvalues --   -0.41976  -0.39803  -0.38661  -0.38478  -0.35903
 Alpha  occ. eigenvalues --   -0.35068  -0.32582  -0.31766  -0.31668  -0.30201
 Alpha  occ. eigenvalues --   -0.29933  -0.29581  -0.28915  -0.28317  -0.25464
 Alpha  occ. eigenvalues --   -0.24098  -0.23463  -0.22388  -0.19887  -0.17264
 Alpha  occ. eigenvalues --   -0.15459  -0.12413   0.04266
 Alpha virt. eigenvalues --    0.06593   0.07754   0.08085   0.09154   0.09478
 Alpha virt. eigenvalues --    0.09904   0.10349   0.10669   0.11887   0.12280
 Alpha virt. eigenvalues --    0.12636   0.12934   0.13673   0.13906   0.14679

  Beta  occ. eigenvalues --  -19.05870 -19.03212 -19.03102 -14.19710 -10.15310
  Beta  occ. eigenvalues --  -10.13096 -10.13021 -10.12549 -10.12173 -10.07170
  Beta  occ. eigenvalues --  -10.06657 -10.06453  -0.97648  -0.95793  -0.92958
  Beta  occ. eigenvalues --   -0.78607  -0.70966  -0.67219  -0.64910  -0.59449
  Beta  occ. eigenvalues --   -0.56452  -0.53668  -0.49038  -0.46606  -0.43385
  Beta  occ. eigenvalues --   -0.41946  -0.39757  -0.38628  -0.38445  -0.35867
  Beta  occ. eigenvalues --   -0.35040  -0.32533  -0.31723  -0.31638  -0.30150
  Beta  occ. eigenvalues --   -0.29879  -0.29531  -0.28879  -0.28282  -0.25411
  Beta  occ. eigenvalues --   -0.24080  -0.23431  -0.22345  -0.19876  -0.17247
  Beta  occ. eigenvalues --   -0.15423  -0.12382
  Beta virt. eigenvalues --    0.06832   0.07561   0.08267   0.08657   0.09778
  Beta virt. eigenvalues --    0.09857   0.10277   0.10748   0.11041   0.12195
  Beta virt. eigenvalues --    0.12730   0.12879   0.13301   0.14039   0.14420

 Mulliken charges and spin densities:
               1          2
     1  C    1.487799  -2.152813
     2  C   -0.484093   0.495175
     3  O   -0.159830   0.058488
     4  C   -1.859979   1.287412
     5  C   -0.575260   1.667595
     6  C   -0.977666   0.133798
     7  O   -0.186250   0.007065
     8  C    0.014862  -0.016533
     9  C   -0.008594  -0.341286
    10  O   -0.243015   0.005095
    11  N   -0.168326  -0.041373
    12  C    4.190778  -4.899139
    13  H   -0.106557   0.247048
    14  H   -0.536302   0.693016
    15  H   -0.101344   0.245845
    16  H   -0.226980   0.398691
    17  H   -0.239747   0.411440
    18  H   -0.041782   0.233859
    19  H    0.131995   0.086328
    20  H    0.164904   0.020878
    21  H    0.072407   0.082442
    22  H    0.241766   0.006616
    23  H   -0.132772   0.386430
    24  H    0.098764   0.129757
    25  H   -0.281678   0.442364
    26  H   -0.790571   0.963215
    27  H   -0.282529   0.448588
 Sum of Mulliken charges =  -1.00000   1.00000

 Dipole moment (field-independent basis, Debye):
    X=              3.9545    Y=              4.9421    Z=             -1.1169  Tot=              6.4273
 Quadrupole moment (field-independent basis, Debye-Ang):
   XX=           -143.1113   YY=           -130.5912   ZZ=           -101.4618
   XY=             -6.3126   XZ=              5.0961   YZ=              3.4311

 Summary of Natural Population Analysis:

                                       Natural Population
                Natural  -----------------------------------------------
    Atom  No    Charge         Core      Valence    Rydberg      Total
 -----------------------------------------------------------------------
      C    1   -0.29144      0.99966     2.28582    0.00596     3.29144
      C    2   -0.00975      0.99958     1.99848    0.01169     3.00975
      O    3   -0.27957      0.99985     3.26932    0.01040     4.27957
      C    4    0.15680      0.99924     1.82824    0.01573     2.84320
      C    5   -0.07757      0.99941     2.06703    0.01113     3.07757
      C    6    0.15204      0.99956     1.82946    0.01894     2.84796
      O    7   -0.30925      0.99988     3.30049    0.00887     4.30925
      C    8    0.04225      0.99953     1.94267    0.01555     2.95775
      C    9   -0.01417      0.99958     2.00254    0.01205     3.01417
      O   10   -0.37122      0.99990     3.36485    0.00646     4.37122
      N   11   -0.41866      0.99975     2.90838    0.01053     3.91866
      C   12   -0.30032      0.99963     2.29319    0.00750     3.30032
      H   13    0.09928      0.00000     0.39952    0.00119     0.40072
      H   14    0.10561      0.00000     0.39268    0.00171     0.39439
      H   15    0.09947      0.00000     0.39934    0.00120     0.40053
      H   16    0.08681      0.00000     0.41097    0.00222     0.41319
      H   17    0.08639      0.00000     0.41157    0.00204     0.41361
      H   18    0.07758      0.00000     0.42081    0.00161     0.42242
      H   19    0.09057      0.00000     0.40798    0.00145     0.40943
      H   20    0.09017      0.00000     0.40843    0.00140     0.40983
      H   21    0.07670      0.00000     0.42177    0.00153     0.42330
      H   22    0.23269      0.00000     0.26429    0.00302     0.26731
      H   23    0.18027      0.00000     0.31741    0.00232     0.31973
      H   24    0.17503      0.00000     0.32282    0.00215     0.32497
      H   25    0.10524      0.00000     0.39243    0.00233     0.39476
      H   26    0.10940      0.00000     0.38797    0.00263     0.39060
      H   27    0.10566      0.00000     0.39146    0.00289     0.39434
 =======================================================================
   * Total *   -0.00000     11.99557    34.83993    0.16450    47.00000

 Normal termination of Gaussian 16 at Wed Dec  9 18:03:01 2020.
