 Gaussian 16, Revision A.03,

 -----------------------------------------------------------
 # opt freq B3LYP/6-31G(d) empiricaldispersion=gd3bj scf=xqc
 -----------------------------------------------------------

 ------------------------------
 CID_62762986_JID_2709_neutraal
 ------------------------------
 Symbolic Z-matrix:
 Charge =  0 Multiplicity = 1

 SCF Done:  E(RB3LYP) =  -516.235205004     A.U. after   14 cycles
 SCF Done:  E(RB3LYP) =  -516.241722317     A.U. after   12 cycles
 SCF Done:  E(RB3LYP) =  -516.242365020     A.U. after   11 cycles
 SCF Done:  E(RB3LYP) =  -516.242701091     A.U. after   11 cycles
 SCF Done:  E(RB3LYP) =  -516.242784751     A.U. after   11 cycles
 SCF Done:  E(RB3LYP) =  -516.242937743     A.U. after   11 cycles
 SCF Done:  E(RB3LYP) =  -516.243101681     A.U. after   12 cycles
 SCF Done:  E(RB3LYP) =  -516.243183483     A.U. after   12 cycles
 SCF Done:  E(RB3LYP) =  -516.243221620     A.U. after   11 cycles
 SCF Done:  E(RB3LYP) =  -516.243230973     A.U. after   10 cycles
 SCF Done:  E(RB3LYP) =  -516.243231270     A.U. after    9 cycles
 SCF Done:  E(RB3LYP) =  -516.243232124     A.U. after    9 cycles
 SCF Done:  E(RB3LYP) =  -516.243232285     A.U. after    8 cycles
 SCF Done:  E(RB3LYP) =  -516.243232306     A.U. after    7 cycles
 Optimization completed.
    -- Stationary point found.

 1\1\GINC-NODE364\FOpt\RB3LYP\6-31G(d)\C9H15N3\VSC10255\09-Dec-2020\0\\
 # opt freq B3LYP/6-31G(d) empiricaldispersion=gd3bj scf=xqc\\CID_62762
 986_JID_2709_neutraal\\0,1\C,0.4333586282,0.9571362797,-0.0213196872\C
 ,1.0116425716,-0.4824484395,-0.0129468853\C,-0.4156061805,-1.018288856
 ,-0.3049170937\C,-0.9786851939,0.3482013821,0.182876267\C,-0.874569231
 2,-2.280102168,0.4044695876\N,-2.2735198804,-2.5645347496,0.0953522795
 \C,-2.8095445925,-3.7712654939,0.7397087817\C,-2.8793562221,-3.7571872
 438,2.2388102126\C,-3.894115157,-3.4287880928,3.1099706468\N,-3.475741

 Normal termination of Gaussian 16 at Wed Dec  9 17:53:52 2020.

 --------------------------------------------------------------------
 #N Geom=AllCheck Guess=TCheck SCRF=Check GenChk RB3LYP/6-31G(d) Freq
 --------------------------------------------------------------------

 Structure from the checkpoint file:  "JID_2709.chk"
 ------------------------------
 CID_62762986_JID_2709_neutraal
 ------------------------------
 Charge =  0 Multiplicity = 1

 SCF Done:  E(RB3LYP) =  -516.243232305     A.U. after    1 cycles

  Exact polarizability: 118.751  -8.032 102.257  -8.289  -5.740  99.080
 Approx polarizability: 147.531 -19.813 156.635 -18.376  -9.689 158.343

                      1                      2                      3
                      A                      A                      A
 Frequencies --     29.8712                38.0633                69.3188
 Red. masses --      4.8352                 2.7144                 3.3195
 Frc consts  --      0.0025                 0.0023                 0.0094
 IR Inten    --      2.6135                 1.5844                 3.0068

                      4                      5                      6
                      A                      A                      A
 Frequencies --     98.8750               126.9364               173.3671
 Red. masses --      3.3474                 2.4662                 3.5390
 Frc consts  --      0.0193                 0.0234                 0.0627
 IR Inten    --      0.8063                 0.3739                 2.0468

                      7                      8                      9
                      A                      A                      A
 Frequencies --    194.0691               262.6444               337.5932
 Red. masses --      2.2601                 4.4184                 2.1157
 Frc consts  --      0.0502                 0.1796                 0.1421
 IR Inten    --      4.8490                 2.5743                 2.5148

                     10                     11                     12
                      A                      A                      A
 Frequencies --    372.8899               413.1946               479.9139
 Red. masses --      2.7733                 2.3710                 2.7166
 Frc consts  --      0.2272                 0.2385                 0.3686
 IR Inten    --      1.1919                 5.8709                18.5961

                     13                     14                     15
                      A                      A                      A
 Frequencies --    519.7308               645.8414               650.8813
 Red. masses --      1.4533                 2.8612                 2.1374
 Frc consts  --      0.2313                 0.7031                 0.5335
 IR Inten    --     73.2227                 7.2427                 1.9875

                     16                     17                     18
                      A                      A                      A
 Frequencies --    683.1470               731.5377               778.4456
 Red. masses --      3.0400                 2.1952                 1.4850
 Frc consts  --      0.8359                 0.6922                 0.5302
 IR Inten    --      1.6259                30.4126                 0.7032

                     19                     20                     21
                      A                      A                      A
 Frequencies --    789.3874               799.0854               818.2869
 Red. masses --      1.3679                 1.3562                 1.5938
 Frc consts  --      0.5022                 0.5102                 0.6288
 IR Inten    --     27.4260                10.6495                82.9370

                     22                     23                     24
                      A                      A                      A
 Frequencies --    845.5469               896.9628               919.0220
 Red. masses --      1.5053                 2.0155                 2.1097
 Frc consts  --      0.6341                 0.9554                 1.0499
 IR Inten    --     19.5620                 3.2640                 1.1443

                     25                     26                     27
                      A                      A                      A
 Frequencies --    929.2075               938.8093               944.7526
 Red. masses --      1.7084                 5.2666                 2.2740
 Frc consts  --      0.8691                 2.7349                 1.1958
 IR Inten    --      9.7915                 9.4969                 1.8517

                     28                     29                     30
                      A                      A                      A
 Frequencies --    977.2033               989.0205              1023.5295
 Red. masses --      1.3721                 2.4942                 3.1869
 Frc consts  --      0.7720                 1.4374                 1.9671
 IR Inten    --      0.7887                 0.3065                12.6305

                     31                     32                     33
                      A                      A                      A
 Frequencies --   1032.5792              1109.0126              1120.2307
 Red. masses --      1.8217                 2.3720                 1.5745
 Frc consts  --      1.1444                 1.7188                 1.1642
 IR Inten    --      6.7498                 3.5130                15.4053

                     34                     35                     36
                      A                      A                      A
 Frequencies --   1129.0614              1145.0020              1155.5316
 Red. masses --      2.2622                 3.1707                 2.2867
 Frc consts  --      1.6991                 2.4491                 1.7989
 IR Inten    --     17.8206                36.6045                20.8917

                     37                     38                     39
                      A                      A                      A
 Frequencies --   1179.0879              1211.9986              1232.2400
 Red. masses --      1.7818                 1.3499                 1.4344
 Frc consts  --      1.4595                 1.1683                 1.2833
 IR Inten    --      5.1327                 1.1309                 2.2102

                     40                     41                     42
                      A                      A                      A
 Frequencies --   1256.3840              1270.9475              1274.6931
 Red. masses --      1.6647                 1.3584                 1.5251
 Frc consts  --      1.5482                 1.2928                 1.4601
 IR Inten    --      1.9805                 0.3233                 5.7761

                     43                     44                     45
                      A                      A                      A
 Frequencies --   1281.3101              1288.4257              1291.7604
 Red. masses --      1.4208                 1.4539                 1.3731
 Frc consts  --      1.3743                 1.4220                 1.3499
 IR Inten    --      0.9610                 1.5050                 0.8964

                     46                     47                     48
                      A                      A                      A
 Frequencies --   1316.1108              1330.6959              1368.7142
 Red. masses --      1.4513                 1.3537                 1.4174
 Frc consts  --      1.4812                 1.4123                 1.5645
 IR Inten    --      1.2566                 4.4260                17.5776

                     49                     50                     51
                      A                      A                      A
 Frequencies --   1385.9971              1398.4816              1428.6576
 Red. masses --      1.3076                 2.8244                 1.5277
 Frc consts  --      1.4800                 3.2545                 1.8372
 IR Inten    --     12.7783                14.9541                 9.5829

                     52                     53                     54
                      A                      A                      A
 Frequencies --   1443.1883              1494.6575              1508.2666
 Red. masses --      2.7149                 1.1021                 1.0944
 Frc consts  --      3.3316                 1.4506                 1.4668
 IR Inten    --     13.3952                 1.1500                 0.2264

                     55                     56                     57
                      A                      A                      A
 Frequencies --   1511.4716              1515.0826              1520.2014
 Red. masses --      3.2510                 1.0896                 1.2669
 Frc consts  --      4.3758                 1.4736                 1.7250
 IR Inten    --     15.2443                 3.3464                39.1109

                     58                     59                     60
                      A                      A                      A
 Frequencies --   1539.0605              1548.1671              1617.2723
 Red. masses --      1.1237                 1.0981                 4.2495
 Frc consts  --      1.5682                 1.5507                 6.5486
 IR Inten    --      2.7259                 5.1671                 6.9985

                     61                     62                     63
                      A                      A                      A
 Frequencies --   2936.0538              3025.1608              3040.7610
 Red. masses --      1.0701                 1.0876                 1.0653
 Frc consts  --      5.4349                 5.8642                 5.8035
 IR Inten    --     49.6670                29.9097                48.3843

                     64                     65                     66
                      A                      A                      A
 Frequencies --   3051.9311              3057.4370              3072.8322
 Red. masses --      1.0611                 1.0635                 1.0609
 Frc consts  --      5.8232                 5.8576                 5.9020
 IR Inten    --     42.5357                21.3971                45.2729

                     67                     68                     69
                      A                      A                      A
 Frequencies --   3073.7409              3097.6018              3108.8884
 Red. masses --      1.0840                 1.0992                 1.1035
 Frc consts  --      6.0342                 6.2141                 6.2840
 IR Inten    --     19.2065                21.1381                21.1822

                     70                     71                     72
                      A                      A                      A
 Frequencies --   3111.5378              3128.9540              3252.4195
 Red. masses --      1.1054                 1.1078                 1.0958
 Frc consts  --      6.3057                 6.3904                 6.8298
 IR Inten    --     31.2893                74.1459                 9.4300

                     73                     74                     75
                      A                      A                      A
 Frequencies --   3265.2299              3479.0970              3649.3569
 Red. masses --      1.0974                 1.0734                 1.0808
 Frc consts  --      6.8933                 7.6552                 8.4806
 IR Inten    --      2.6090                 0.1735                32.7146

 - Thermochemistry -
 -------------------
 Temperature   298.150 Kelvin.  Pressure   1.00000 Atm.
 Atom     1 has atomic number  6 and mass  12.00000

 Molecular mass:   165.12660 amu.
 Principal axes and moments of inertia in atomic units:
                           1         2         3
     Eigenvalues --   941.183244309.142504563.19832
           X            0.99992   0.01181   0.00358
           Y           -0.01167   0.99921  -0.03804
           Z           -0.00403   0.03799   0.99927
 This molecule is an asymmetric top.
 Rotational symmetry number  1.
 Warning -- assumption of classical behavior for rotation
           may cause significant error
 Rotational temperatures (Kelvin)      0.09203     0.02010     0.01898
 Rotational constants (GHZ):           1.91752     0.41882     0.39550
 Zero-point vibrational energy     626439.0 (Joules/Mol)
                                  149.72252 (Kcal/Mol)
 Warning -- explicit consideration of  13 degrees of freedom as
           vibrations may cause significant error
 Vibrational temperatures:     42.98    54.76    99.73   142.26   182.63
          (Kelvin)            249.44   279.22   377.89   485.72   536.51
                              594.49   690.49   747.78   929.22   936.47
                              982.90  1052.52  1120.01  1135.75  1149.71
                             1177.33  1216.55  1290.53  1322.27  1336.92
                             1350.74  1359.29  1405.98  1422.98  1472.63
                             1485.65  1595.62  1611.76  1624.47  1647.40
                             1662.55  1696.44  1743.80  1772.92  1807.66
                             1828.61  1834.00  1843.52  1853.76  1858.56
                             1893.59  1914.57  1969.27  1994.14  2012.10
                             2055.52  2076.43  2150.48  2170.06  2174.67
                             2179.87  2187.23  2214.36  2227.47  2326.89
                             4224.33  4352.53  4374.98  4391.05  4398.97
                             4421.12  4422.43  4456.76  4473.00  4476.81
                             4501.87  4679.51  4697.94  5005.64  5250.61

 Zero-point correction=                           0.238598 (Hartree/Particle)
 Thermal correction to Energy=                    0.250075
 Thermal correction to Enthalpy=                  0.251020
 Thermal correction to Gibbs Free Energy=         0.199108
 Sum of electronic and zero-point Energies=           -516.004634
 Sum of electronic and thermal Energies=              -515.993157
 Sum of electronic and thermal Enthalpies=            -515.992213
 Sum of electronic and thermal Free Energies=         -516.044125

                     E (Thermal)             CV                S
                      KCal/Mol        Cal/Mol-Kelvin    Cal/Mol-Kelvin
 Total                  156.925             42.995            109.258
 Electronic               0.000              0.000              0.000
 Translational            0.889              2.981             41.213
 Rotational               0.889              2.981             31.293
 Vibrational            155.147             37.033             36.751
 Vibration     1          0.594              1.984              5.838
 Vibration     2          0.594              1.982              5.357
 Vibration     3          0.598              1.969              4.173
 Vibration     4          0.604              1.950              3.476
 Vibration     5          0.611              1.926              2.992
 Vibration     6          0.627              1.875              2.399
 Vibration     7          0.635              1.848              2.189
 Vibration     8          0.670              1.741              1.644
 Vibration     9          0.718              1.600              1.224
 Vibration    10          0.744              1.528              1.068
 Vibration    11          0.777              1.442              0.915
 Vibration    12          0.836              1.295              0.710
 Vibration    13          0.875              1.206              0.611

 Optimization completed.
    -- Stationary point found.

 1\1\GINC-NODE364\Freq\RB3LYP\6-31G(d)\C9H15N3\VSC10255\09-Dec-2020\0\\
 #N Geom=AllCheck Guess=TCheck SCRF=Check GenChk RB3LYP/6-31G(d) Freq\\
 CID_62762986_JID_2709_neutraal\\0,1\C,0.4333586282,0.9571362797,-0.021
 3196872\C,1.0116425716,-0.4824484395,-0.0129468853\C,-0.4156061805,-1.
 018288856,-0.3049170937\C,-0.9786851939,0.3482013821,0.182876267\C,-0.
 8745692312,-2.280102168,0.4044695876\N,-2.2735198804,-2.5645347496,0.0
 953522795\C,-2.8095445925,-3.7712654939,0.7397087817\C,-2.8793562221,-
 3.7571872438,2.2388102126\C,-3.894115157,-3.4287880928,3.1099706468\N,

 Normal termination of Gaussian 16 at Wed Dec  9 17:59:45 2020.

 ----------------------------------------------------------------------
 # B3LYP/6-311++G(d,p) empiricaldispersion=gd3bj scf=xqc pop=npa geom=c
 heck
 ----------------------------------------------------------------------

 --------------------------------------
 CID_62762986_JID_2709_Energie_neutraal
 --------------------------------------
 Structure from the checkpoint file:  "JID_2709.chk"
 Charge =  0 Multiplicity = 1

 SCF Done:  E(RB3LYP) =  -516.389678880     A.U. after   14 cycles
 Normal termination of Gaussian 16 at Wed Dec  9 18:02:12 2020.

 ----------------------------------------------------------------------
 # B3LYP/6-311++G(d,p) empiricaldispersion=gd3bj scf=xqc pop=npa geom=c
 heck
 ----------------------------------------------------------------------

 ------------------------------------
 CID_62762986_JID_2709_Energie_kation
 ------------------------------------
 Structure from the checkpoint file:  "JID_2709.chk"
 Charge =  1 Multiplicity = 2

 SCF Done:  E(UB3LYP) =  -516.093064734     A.U. after   20 cycles
 Normal termination of Gaussian 16 at Wed Dec  9 18:06:47 2020.
 Gaussian 16:  ES64L-G16RevA.03 25-Dec-2016

 -----------------------------------
 CID_62762986_JID_2709_Energie_anion
 -----------------------------------
 Structure from the checkpoint file:  "JID_2709.chk"
 Charge = -1 Multiplicity = 2

                         Standard orientation:
 ---------------------------------------------------------------------
 Center     Atomic      Atomic             Coordinates (Angstroms)
 Number     Number       Type             X           Y           Z
 ---------------------------------------------------------------------
      1          6           0       -3.905538   -0.955227   -0.533625
      2          6           0       -3.291776   -0.675607    0.863513
      3          6           0       -2.395051    0.410903    0.211754
      4          6           0       -2.680209   -0.247553   -1.169339
      5          6           0       -0.951588    0.528187    0.668601
      6          7           0       -0.237431    1.519887   -0.131417
      7          6           0        1.172797    1.703518    0.237709
      8          6           0        2.077220    0.521876    0.042470
      9          6           0        2.900317    0.154850   -0.998830
     10          7           0        3.499961   -1.063823   -0.761844
     11          6           0        3.050135   -1.444913    0.414403
     12          7           0        2.186334   -0.526097    0.944775
     13          1           0       -4.827239   -0.385796   -0.691194
     14          1           0       -4.089181   -1.998017   -0.809084
     15          1           0       -3.964482   -0.364569    1.668881
     16          1           0       -2.693314   -1.524067    1.216600
     17          1           0       -2.871916    1.395896    0.267277
     18          1           0       -1.894209   -0.965745   -1.434431
     19          1           0       -2.856175    0.411539   -2.025120
     20          1           0       -0.920338    0.857816    1.718160
     21          1           0       -0.490352   -0.477638    0.634389
     22          1           0       -0.277364    1.234538   -1.109597
     23          1           0        1.565416    2.533653   -0.359030
     24          1           0        1.196073    2.033243    1.285234
     25          1           0        3.098563    0.710639   -1.906145
     26          1           0        3.310628   -2.360321    0.928578
     27          1           0        1.713992   -0.587140    1.834947
 ---------------------------------------------------------------------

 SCF Done:  E(UB3LYP) =  -516.378455293     A.U. after   33 cycles
 SCF Done:  E(UB3LYP) =  -516.378455293     a.u. after    1 cycles

 The electronic state is 2-A.
 Alpha  occ. eigenvalues --  -14.25834 -14.20189 -14.19140 -10.11871 -10.10672
 Alpha  occ. eigenvalues --  -10.09931 -10.08577 -10.07978 -10.07349 -10.07346
 Alpha  occ. eigenvalues --  -10.07155 -10.06700  -0.90981  -0.81168  -0.76607
 Alpha  occ. eigenvalues --   -0.74815  -0.66359  -0.61474  -0.56621  -0.55754
 Alpha  occ. eigenvalues --   -0.51454  -0.50698  -0.48522  -0.45085  -0.43908
 Alpha  occ. eigenvalues --   -0.39868  -0.38762  -0.36250  -0.34867  -0.34347
 Alpha  occ. eigenvalues --   -0.33128  -0.31205  -0.30809  -0.30312  -0.29158
 Alpha  occ. eigenvalues --   -0.27614  -0.27073  -0.24654  -0.22154  -0.21060
 Alpha  occ. eigenvalues --   -0.20414  -0.18112  -0.17438  -0.14359  -0.12099
 Alpha  occ. eigenvalues --    0.04556
 Alpha virt. eigenvalues --    0.06621   0.07373   0.07848   0.08766   0.09183
 Alpha virt. eigenvalues --    0.09448   0.10274   0.11112   0.11258   0.11617
 Alpha virt. eigenvalues --    0.12109   0.12743   0.13154   0.13336   0.14600

  Beta  occ. eigenvalues --  -14.25773 -14.20185 -14.19143 -10.11850 -10.10653
  Beta  occ. eigenvalues --  -10.09931 -10.08545 -10.07966 -10.07342 -10.07335
  Beta  occ. eigenvalues --  -10.07145 -10.06677  -0.90937  -0.81149  -0.76548
  Beta  occ. eigenvalues --   -0.74795  -0.66322  -0.61436  -0.56579  -0.55712
  Beta  occ. eigenvalues --   -0.51393  -0.50580  -0.48480  -0.45033  -0.43846
  Beta  occ. eigenvalues --   -0.39838  -0.38717  -0.36201  -0.34832  -0.34309
  Beta  occ. eigenvalues --   -0.33078  -0.31163  -0.30780  -0.30281  -0.29131
  Beta  occ. eigenvalues --   -0.27577  -0.27033  -0.24627  -0.22119  -0.21032
  Beta  occ. eigenvalues --   -0.20383  -0.18077  -0.17429  -0.14341  -0.12081
  Beta virt. eigenvalues --    0.06643   0.07497   0.08188   0.08270   0.09188
  Beta virt. eigenvalues --    0.09677   0.09741   0.10892   0.11256   0.11554
  Beta virt. eigenvalues --    0.11982   0.12243   0.12976   0.13332   0.13802

 Mulliken charges and spin densities:
               1          2
     1  C   -0.368200   0.153329
     2  C    0.716834  -1.238437
     3  C   -1.148188   1.585098
     4  C    0.208912  -0.707753
     5  C    0.553304  -1.346583
     6  N   -0.082343   0.164506
     7  C    0.910133  -1.896600
     8  C    0.108969   0.508295
     9  C   -0.179683  -0.168412
    10  N   -0.177617   0.004516
    11  C    0.180541  -0.171595
    12  N   -0.021187  -0.100171
    13  H    0.020008   0.104704
    14  H   -0.064025   0.199120
    15  H   -0.151676   0.277883
    16  H   -0.374368   0.523200
    17  H    0.026255   0.162775
    18  H    0.017420   0.134948
    19  H    0.027336   0.090974
    20  H   -0.537814   0.718981
    21  H    0.577378  -0.456469
    22  H    0.094708   0.112737
    23  H    0.038299   0.152992
    24  H   -0.201120   0.384555
    25  H    0.030549   0.088070
    26  H   -0.671085   0.835728
    27  H   -0.533340   0.883607
 Sum of Mulliken charges =  -1.00000   1.00000

 Dipole moment (field-independent basis, Debye):
    X=             -2.3943    Y=              3.0739    Z=             -5.6782  Tot=              6.8865
 Quadrupole moment (field-independent basis, Debye-Ang):
   XX=           -137.8522   YY=           -110.1660   ZZ=           -117.5343
   XY=              6.9427   XZ=              0.3124   YZ=              1.5063

 Summary of Natural Population Analysis:

                                       Natural Population
                Natural  -----------------------------------------------
    Atom  No    Charge         Core      Valence    Rydberg      Total
 -----------------------------------------------------------------------
      C    1   -0.18832      0.99965     2.18151    0.00716     3.18832
      C    2   -0.18571      0.99963     2.17759    0.00849     3.18571
      C    3   -0.11059      0.99960     2.09849    0.01250     3.11059
      C    4   -0.19023      0.99963     2.18383    0.00677     3.19023
      C    5   -0.09026      0.99958     2.07861    0.01206     3.09026
      N    6   -0.33196      0.99975     2.82174    0.01046     3.83196
      C    7   -0.10410      0.99959     2.09203    0.01248     3.10410
      C    8    0.04026      0.99952     1.94633    0.01388     2.95974
      C    9   -0.03577      0.99950     2.02350    0.01277     3.03577
      N   10   -0.26175      0.99973     2.75155    0.01047     3.76175
      C   11    0.10338      0.99965     1.87811    0.01885     2.89662
      N   12   -0.27208      0.99966     2.76035    0.01207     3.77208
      H   13    0.09247      0.00000     0.40613    0.00140     0.40753
      H   14    0.09403      0.00000     0.40480    0.00117     0.40597
      H   15    0.09677      0.00000     0.40207    0.00116     0.40323
      H   16    0.09948      0.00000     0.39873    0.00178     0.40052
      H   17    0.09813      0.00000     0.40035    0.00152     0.40187
      H   18    0.09647      0.00000     0.40219    0.00134     0.40353
      H   19    0.09446      0.00000     0.40453    0.00101     0.40554
      H   20    0.09648      0.00000     0.40111    0.00241     0.40352
      H   21    0.08163      0.00000     0.41569    0.00268     0.41837
      H   22    0.16872      0.00000     0.32786    0.00342     0.33128
      H   23    0.10064      0.00000     0.39847    0.00089     0.39936
      H   24    0.10174      0.00000     0.39684    0.00142     0.39826
      H   25    0.09380      0.00000     0.40512    0.00108     0.40620
      H   26    0.09510      0.00000     0.40307    0.00183     0.40490
      H   27    0.21718      0.00000     0.25764    0.02518     0.28282
 =======================================================================
   * Total *    0.00000     11.99552    32.81823    0.18625    45.00000

 Normal termination of Gaussian 16 at Wed Dec  9 18:17:46 2020.
