 Gaussian 16, Revision A.03,

 -----------------------------------------------------------
 # opt freq B3LYP/6-31G(d) empiricaldispersion=gd3bj scf=xqc
 -----------------------------------------------------------

 ------------------------------
 CID_20502864_JID_3670_neutraal
 ------------------------------
 Symbolic Z-matrix:
 Charge =  0 Multiplicity = 1

 SCF Done:  E(RB3LYP) =  -724.179173379     A.U. after   14 cycles
 SCF Done:  E(RB3LYP) =  -724.183286951     A.U. after   12 cycles
 SCF Done:  E(RB3LYP) =  -724.182158274     A.U. after   12 cycles
 SCF Done:  E(RB3LYP) =  -724.184250956     A.U. after   12 cycles
 SCF Done:  E(RB3LYP) =  -724.184408145     A.U. after   11 cycles
 SCF Done:  E(RB3LYP) =  -724.184575932     A.U. after   13 cycles
 SCF Done:  E(RB3LYP) =  -724.184925133     A.U. after   12 cycles
 SCF Done:  E(RB3LYP) =  -724.185445483     A.U. after   12 cycles
 SCF Done:  E(RB3LYP) =  -724.185889203     A.U. after   12 cycles
 SCF Done:  E(RB3LYP) =  -724.184571924     A.U. after   15 cycles
 SCF Done:  E(RB3LYP) =  -724.187076538     A.U. after   11 cycles
 SCF Done:  E(RB3LYP) =  -724.187080867     A.U. after   11 cycles
 SCF Done:  E(RB3LYP) =  -724.187080434     A.U. after    9 cycles
 SCF Done:  E(RB3LYP) =  -724.187081334     A.U. after   11 cycles
 SCF Done:  E(RB3LYP) =  -724.187081571     A.U. after    9 cycles
 Optimization completed.
    -- Stationary point found.

 1\1\GINC-NODE223\FOpt\RB3LYP\6-31G(d)\C7H10O6\VSC10255\14-Dec-2020\0\\
 # opt freq B3LYP/6-31G(d) empiricaldispersion=gd3bj scf=xqc\\CID_20502
 864_JID_3670_neutraal\\0,1\C,0.9182923936,0.0903253219,-0.0705893827\C
 ,0.4193463213,-0.6974825525,-1.2848589074\C,0.7801102807,-2.207572273,
 -1.2541772515\C,0.2689138186,-2.9351528929,0.0010816493\C,-1.237644804
 4,-2.925210949,0.1043589131\O,-2.0143824199,-2.6138256688,-0.773255580
 7\O,-1.6471659079,-3.3391839654,1.3252679245\C,0.2441859429,-2.9676293
 765,-2.481258619\O,0.2031368391,-4.1767427903,-2.538577167\O,-0.128453

 Normal termination of Gaussian 16 at Mon Dec 14 13:29:13 2020.

 --------------------------------------------------------------------
 #N Geom=AllCheck Guess=TCheck SCRF=Check GenChk RB3LYP/6-31G(d) Freq
 --------------------------------------------------------------------

 Structure from the checkpoint file:  "JID_3670.chk"
 ------------------------------
 CID_20502864_JID_3670_neutraal
 ------------------------------
 Charge =  0 Multiplicity = 1

 SCF Done:  E(RB3LYP) =  -724.187081571     A.U. after    1 cycles

  Exact polarizability:  89.834   1.211  85.430   1.280   5.592  80.362
 Approx polarizability: 122.866   5.762 125.016   6.675  16.396 129.933

                      1                      2                      3
                      A                      A                      A
 Frequencies --     25.9334                37.9963                57.2415
 Red. masses --     10.8937                 5.6821                 5.0467
 Frc consts  --      0.0043                 0.0048                 0.0097
 IR Inten    --      0.9125                 1.7861                 2.4655

                      4                      5                      6
                      A                      A                      A
 Frequencies --     84.4494               105.5725               130.7699
 Red. masses --      4.8792                 4.9351                 4.9069
 Frc consts  --      0.0205                 0.0324                 0.0494
 IR Inten    --      1.7142                 0.1760                 0.3231

                      7                      8                      9
                      A                      A                      A
 Frequencies --    156.0990               192.8965               221.9965
 Red. masses --      7.0189                 1.8226                 2.8716
 Frc consts  --      0.1008                 0.0400                 0.0834
 IR Inten    --      0.6598                 1.1904                 0.2405

                     10                     11                     12
                      A                      A                      A
 Frequencies --    259.6185               305.5428               329.5798
 Red. masses --      4.4030                 2.1282                 2.4553
 Frc consts  --      0.1749                 0.1171                 0.1571
 IR Inten    --      1.7287                 1.6385                 0.9405

                     13                     14                     15
                      A                      A                      A
 Frequencies --    357.0158               379.6812               407.6275
 Red. masses --      7.1293                 4.4973                 6.6219
 Frc consts  --      0.5354                 0.3820                 0.6483
 IR Inten    --      0.2879                 5.7094                 2.3822

                     16                     17                     18
                      A                      A                      A
 Frequencies --    486.7171               530.5566               549.0983
 Red. masses --      3.0645                 1.9247                 2.2624
 Frc consts  --      0.4277                 0.3192                 0.4019
 IR Inten    --      4.4693                15.9839                 2.5951

                     19                     20                     21
                      A                      A                      A
 Frequencies --    608.4803               620.2146               653.9109
 Red. masses --      2.3368                 2.3816                 1.6662
 Frc consts  --      0.5098                 0.5398                 0.4198
 IR Inten    --     84.0746               146.3000               134.0121

                     22                     23                     24
                      A                      A                      A
 Frequencies --    672.7148               687.3910               739.7770
 Red. masses --      2.2900                 1.5314                 3.4858
 Frc consts  --      0.6106                 0.4263                 1.1240
 IR Inten    --     35.4634                76.7469                24.1564

                     25                     26                     27
                      A                      A                      A
 Frequencies --    756.2085               795.4718               804.1060
 Red. masses --      3.1206                 2.8779                 1.6107
 Frc consts  --      1.0514                 1.0729                 0.6136
 IR Inten    --     19.8710                12.8036                25.2240

                     28                     29                     30
                      A                      A                      A
 Frequencies --    895.9758               901.3676               972.7815
 Red. masses --      2.6298                 3.4176                 2.2720
 Frc consts  --      1.2439                 1.6360                 1.2667
 IR Inten    --      9.9563                15.7036                 2.5512

                     31                     32                     33
                      A                      A                      A
 Frequencies --   1017.9423              1050.3261              1115.1921
 Red. masses --      2.4058                 2.4152                 2.6852
 Frc consts  --      1.4688                 1.5698                 1.9676
 IR Inten    --      8.5521                 8.0847                12.2969

                     34                     35                     36
                      A                      A                      A
 Frequencies --   1139.5111              1172.5889              1194.3820
 Red. masses --      2.7133                 2.3599                 2.8557
 Frc consts  --      2.0758                 1.9117                 2.4002
 IR Inten    --     92.8528               455.8352                12.9610

                     37                     38                     39
                      A                      A                      A
 Frequencies --   1206.4921              1243.1647              1281.4253
 Red. masses --      2.1657                 2.5498                 1.2831
 Frc consts  --      1.8573                 2.3217                 1.2413
 IR Inten    --     87.3306               145.5037                 4.2336

                     40                     41                     42
                      A                      A                      A
 Frequencies --   1318.3989              1340.0473              1374.5830
 Red. masses --      1.2696                 1.4693                 1.7684
 Frc consts  --      1.3002                 1.5545                 1.9687
 IR Inten    --      2.0381                 3.4580                31.0351

                     43                     44                     45
                      A                      A                      A
 Frequencies --   1395.8692              1399.8062              1433.9788
 Red. masses --      1.6409                 2.6732                 2.3151
 Frc consts  --      1.8837                 3.0862                 2.8048
 IR Inten    --     24.7976                16.9318                81.6580

                     46                     47                     48
                      A                      A                      A
 Frequencies --   1449.6311              1481.2498              1522.6015
 Red. masses --      1.2431                 1.0999                 1.0617
 Frc consts  --      1.5391                 1.4219                 1.4502
 IR Inten    --      6.8298                35.8730                 9.3620

                     49                     50                     51
                      A                      A                      A
 Frequencies --   1531.4918              1539.3343              1830.5644
 Red. masses --      1.0602                 1.0481                10.4331
 Frc consts  --      1.4652                 1.4633                20.5983
 IR Inten    --     11.1043                 2.8831               373.9203

                     52                     53                     54
                      A                      A                      A
 Frequencies --   1838.2442              1845.4560              3054.8863
 Red. masses --      9.6282                10.0222                 1.0363
 Frc consts  --     19.1690                20.1104                 5.6978
 IR Inten    --    156.0871               204.0976                19.4491

                     55                     56                     57
                      A                      A                      A
 Frequencies --   3100.6940              3102.0452              3114.2095
 Red. masses --      1.0650                 1.0649                 1.1018
 Frc consts  --      6.0328                 6.0377                 6.2955
 IR Inten    --      4.4896                 1.1608                21.3589

                     58                     59                     60
                      A                      A                      A
 Frequencies --   3126.2190              3152.3949              3156.7880
 Red. masses --      1.0986                 1.1043                 1.0966
 Frc consts  --      6.3260                 6.4655                 6.4383
 IR Inten    --     29.8990                12.8113                 2.9721

                     61                     62                     63
                      A                      A                      A
 Frequencies --   3675.6566              3683.5211              3686.8425
 Red. masses --      1.0639                 1.0640                 1.0639
 Frc consts  --      8.4691                 8.5055                 8.5203
 IR Inten    --     60.8738                52.1404                61.1542

 - Thermochemistry -
 -------------------
 Temperature   298.150 Kelvin.  Pressure   1.00000 Atm.
 Atom     1 has atomic number  6 and mass  12.00000

 Molecular mass:   190.04774 amu.
 Principal axes and moments of inertia in atomic units:
                           1         2         3
     Eigenvalues --  1799.844282646.479123098.52774
           X            0.99991  -0.00861   0.00990
           Y            0.00902   0.99905  -0.04258
           Z           -0.00952   0.04266   0.99904
 This molecule is an asymmetric top.
 Rotational symmetry number  1.
 Warning -- assumption of classical behavior for rotation
           may cause significant error
 Rotational temperatures (Kelvin)      0.04812     0.03273     0.02795
 Rotational constants (GHZ):           1.00272     0.68194     0.58245
 Zero-point vibrational energy     468351.9 (Joules/Mol)
                                  111.93880 (Kcal/Mol)
 Warning -- explicit consideration of  20 degrees of freedom as
           vibrations may cause significant error
 Vibrational temperatures:     37.31    54.67    82.36   121.50   151.90
          (Kelvin)            188.15   224.59   277.54   319.40   373.53
                              439.61   474.19   513.67   546.28   586.49
                              700.28   763.35   790.03   875.47   892.35
                              940.83   967.89   989.00  1064.37  1088.02
                             1144.51  1156.93  1289.11  1296.87  1399.62
                             1464.59  1511.19  1604.51  1639.50  1687.09
                             1718.45  1735.87  1788.64  1843.69  1896.88
                             1928.03  1977.72  2008.34  2014.01  2063.18
                             2085.70  2131.19  2190.68  2203.48  2214.76
                             2633.77  2644.82  2655.20  4395.30  4461.21
                             4463.15  4480.65  4497.93  4535.59  4541.91
                             5288.45  5299.77  5304.54

 Zero-point correction=                           0.178386 (Hartree/Particle)
 Thermal correction to Energy=                    0.192006
 Thermal correction to Enthalpy=                  0.192950
 Thermal correction to Gibbs Free Energy=         0.136587
 Sum of electronic and zero-point Energies=           -724.008696
 Sum of electronic and thermal Energies=              -723.995075
 Sum of electronic and thermal Enthalpies=            -723.994131
 Sum of electronic and thermal Free Energies=         -724.050494

                     E (Thermal)             CV                S
                      KCal/Mol        Cal/Mol-Kelvin    Cal/Mol-Kelvin
 Total                  120.486             48.590            118.626
 Electronic               0.000              0.000              0.000
 Translational            0.889              2.981             41.632
 Rotational               0.889              2.981             31.068
 Vibrational            118.708             42.628             45.926
 Vibration     1          0.593              1.985              6.118
 Vibration     2          0.594              1.982              5.361
 Vibration     3          0.596              1.975              4.550
 Vibration     4          0.601              1.960              3.785
 Vibration     5          0.605              1.945              3.349
 Vibration     6          0.612              1.923              2.935
 Vibration     7          0.620              1.896              2.597
 Vibration     8          0.635              1.850              2.200
 Vibration     9          0.648              1.808              1.943
 Vibration    10          0.668              1.746              1.664
 Vibration    11          0.696              1.663              1.386
 Vibration    12          0.712              1.616              1.262
 Vibration    13          0.732              1.561              1.135
 Vibration    14          0.750              1.513              1.040
 Vibration    15          0.772              1.454              0.935
 Vibration    16          0.843              1.279              0.692
 Vibration    17          0.886              1.182              0.586
 Vibration    18          0.904              1.142              0.546
 Vibration    19          0.967              1.014              0.435
 Vibration    20          0.980              0.989              0.416

                           ! Non-Optimized Parameters !

 1\1\GINC-NODE223\Freq\RB3LYP\6-31G(d)\C7H10O6\VSC10255\14-Dec-2020\0\\
 #N Geom=AllCheck Guess=TCheck SCRF=Check GenChk RB3LYP/6-31G(d) Freq\\
 CID_20502864_JID_3670_neutraal\\0,1\C,0.9182923936,0.0903253219,-0.070
 5893827\C,0.4193463213,-0.6974825525,-1.2848589074\C,0.7801102807,-2.2
 07572273,-1.2541772515\C,0.2689138186,-2.9351528929,0.0010816493\C,-1.
 2376448044,-2.925210949,0.1043589131\O,-2.0143824199,-2.6138256688,-0.
 7732555807\O,-1.6471659079,-3.3391839654,1.3252679245\C,0.2441859429,-
 2.9676293765,-2.481258619\O,0.2031368391,-4.1767427903,-2.538577167\O,

 Normal termination of Gaussian 16 at Mon Dec 14 13:35:08 2020.

 ----------------------------------------------------------------------
 # B3LYP/6-311++G(d,p) empiricaldispersion=gd3bj scf=xqc pop=npa geom=c
 heck
 ----------------------------------------------------------------------

 --------------------------------------
 CID_20502864_JID_3670_Energie_neutraal
 --------------------------------------
 Structure from the checkpoint file:  "JID_3670.chk"
 Charge =  0 Multiplicity = 1

 SCF Done:  E(RB3LYP) =  -724.429186059     A.U. after   14 cycles
 Normal termination of Gaussian 16 at Mon Dec 14 13:37:20 2020.

 ----------------------------------------------------------------------
 # B3LYP/6-311++G(d,p) empiricaldispersion=gd3bj scf=xqc pop=npa geom=c
 heck
 ----------------------------------------------------------------------

 ------------------------------------
 CID_20502864_JID_3670_Energie_kation
 ------------------------------------
 Structure from the checkpoint file:  "JID_3670.chk"
 Charge =  1 Multiplicity = 2

 SCF Done:  E(UB3LYP) =  -724.064124240     A.U. after   26 cycles
 Normal termination of Gaussian 16 at Mon Dec 14 13:43:04 2020.
 Gaussian 16:  ES64L-G16RevA.03 25-Dec-2016

 -----------------------------------
 CID_20502864_JID_3670_Energie_anion
 -----------------------------------
 Structure from the checkpoint file:  "JID_3670.chk"
 Charge = -1 Multiplicity = 2

                         Standard orientation:
 ---------------------------------------------------------------------
 Center     Atomic      Atomic             Coordinates (Angstroms)
 Number     Number       Type             X           Y           Z
 ---------------------------------------------------------------------
      1          6           0        0.464840   -2.069575    1.643674
      2          6           0        0.420904   -0.544347    1.518024
      3          6           0        0.389086   -0.028348    0.053717
      4          6           0       -0.785623   -0.586187   -0.768017
      5          6           0       -2.128653   -0.173772   -0.214243
      6          8           0       -2.327263    0.681367    0.622286
      7          8           0       -3.131788   -0.874380   -0.790931
      8          6           0        0.325212    1.507750   -0.029672
      9          8           0        0.053120    2.099373   -1.050884
     10          8           0        0.642534    2.125564    1.119269
     11          6           0        1.739111   -0.389898   -0.579629
     12          8           0        2.787174    0.130044   -0.272968
     13          8           0        1.657687   -1.385164   -1.492221
     14          1           0       -0.444676   -2.542465    1.257810
     15          1           0        0.556779   -2.352124    2.697261
     16          1           0        1.317972   -2.502748    1.109350
     17          1           0       -0.457940   -0.146910    2.030309
     18          1           0        1.298264   -0.106080    1.999658
     19          1           0       -0.729448   -0.204091   -1.792033
     20          1           0       -0.742006   -1.673812   -0.840290
     21          1           0       -3.960219   -0.524967   -0.411324
     22          1           0        0.589443    3.081934    0.932947
     23          1           0        2.570847   -1.536909   -1.803218
 ---------------------------------------------------------------------

 SCF Done:  E(UB3LYP) =  -724.420268797     A.U. after   33 cycles
 SCF Done:  E(UB3LYP) =  -724.420268797     a.u. after    1 cycles

 The electronic state is 2-A.
 Alpha  occ. eigenvalues --  -19.07848 -19.07254 -19.07142 -19.02078 -19.01806
 Alpha  occ. eigenvalues --  -19.01608 -10.21273 -10.21204 -10.21001 -10.12016
 Alpha  occ. eigenvalues --  -10.09168 -10.07752 -10.06551  -1.02122  -1.01412
 Alpha  occ. eigenvalues --   -1.01329  -0.92797  -0.92587  -0.92503  -0.74529
 Alpha  occ. eigenvalues --   -0.65888  -0.62379  -0.56179  -0.52486  -0.51540
 Alpha  occ. eigenvalues --   -0.47363  -0.42702  -0.40843  -0.39775  -0.39431
 Alpha  occ. eigenvalues --   -0.39177  -0.37749  -0.37310  -0.35167  -0.34077
 Alpha  occ. eigenvalues --   -0.33052  -0.31862  -0.30661  -0.29714  -0.29537
 Alpha  occ. eigenvalues --   -0.29166  -0.27188  -0.25575  -0.24520  -0.23153
 Alpha  occ. eigenvalues --   -0.22901  -0.22477  -0.19422  -0.18670  -0.18300
 Alpha  occ. eigenvalues --    0.04341
 Alpha virt. eigenvalues --    0.06299   0.07052   0.07690   0.07766   0.09292
 Alpha virt. eigenvalues --    0.10227   0.10475   0.11204   0.11947   0.12245
 Alpha virt. eigenvalues --    0.13207   0.13792   0.15557   0.15616   0.16630

  Beta  occ. eigenvalues --  -19.07829 -19.07182 -19.07084 -19.02068 -19.01766
  Beta  occ. eigenvalues --  -19.01566 -10.21272 -10.21170 -10.20933 -10.12011
  Beta  occ. eigenvalues --  -10.09140 -10.07739 -10.06518  -1.02042  -1.01338
  Beta  occ. eigenvalues --   -1.01228  -0.92729  -0.92493  -0.92438  -0.74470
  Beta  occ. eigenvalues --   -0.65844  -0.62288  -0.56032  -0.52401  -0.51415
  Beta  occ. eigenvalues --   -0.47266  -0.42621  -0.40802  -0.39695  -0.39385
  Beta  occ. eigenvalues --   -0.39117  -0.37689  -0.37216  -0.35103  -0.33944
  Beta  occ. eigenvalues --   -0.32996  -0.31788  -0.30602  -0.29668  -0.29477
  Beta  occ. eigenvalues --   -0.29121  -0.27125  -0.25520  -0.24492  -0.23061
  Beta  occ. eigenvalues --   -0.22775  -0.22369  -0.19381  -0.18618  -0.18224
  Beta virt. eigenvalues --    0.06872   0.07564   0.08025   0.08174   0.08434
  Beta virt. eigenvalues --    0.09502   0.10731   0.10794   0.11555   0.12231
  Beta virt. eigenvalues --    0.12364   0.13536   0.13974   0.15589   0.15858

 Mulliken charges and spin densities:
               1          2
     1  C    0.047708  -0.735179
     2  C   -0.806211   0.381246
     3  C   -0.174183   0.691912
     4  C    1.719012  -2.311961
     5  C   -0.272490   0.214325
     6  O   -0.273638  -0.002638
     7  O   -0.187885   0.056041
     8  C   -0.021405   0.038661
     9  O   -0.292749   0.035621
    10  O   -0.132752   0.053726
    11  C    0.774838  -0.777362
    12  O   -0.254095   0.043486
    13  O   -0.156429   0.048295
    14  H   -0.220232   0.376874
    15  H   -0.151848   0.288890
    16  H   -0.186851   0.360550
    17  H    0.195089   0.018805
    18  H    0.213032  -0.003393
    19  H    0.113871   0.172054
    20  H    0.116131   0.141684
    21  H   -0.586553   0.883100
    22  H    0.119609   0.138482
    23  H   -0.581968   0.886780
 Sum of Mulliken charges =  -1.00000   1.00000

 Dipole moment (field-independent basis, Debye):
    X=              1.0196    Y=              3.2404    Z=              2.9160  Tot=              4.4769
 Quadrupole moment (field-independent basis, Debye-Ang):
   XX=           -140.3646   YY=           -108.8913   ZZ=           -106.1446
   XY=              2.2586   XZ=              5.4761   YZ=             -1.9397

 Summary of Natural Population Analysis:

                                       Natural Population
                Natural  -----------------------------------------------
    Atom  No    Charge         Core      Valence    Rydberg      Total
 -----------------------------------------------------------------------
      C    1   -0.28903      0.99966     2.28409    0.00527     3.28903
      C    2   -0.19167      0.99961     2.18348    0.00859     3.19167
      C    3   -0.11331      0.99947     2.09805    0.01579     3.11331
      C    4   -0.24730      0.99955     2.23547    0.01228     3.24730
      C    5    0.41255      0.99971     1.56243    0.02530     2.58745
      O    6   -0.30884      0.99987     3.30290    0.00608     4.30884
      O    7   -0.34057      0.99988     3.33397    0.00672     4.34057
      C    8    0.43258      0.99966     1.54007    0.02769     2.56742
      O    9   -0.30915      0.99987     3.30330    0.00598     4.30915
      O   10   -0.33566      0.99987     3.32993    0.00586     4.33566
      C   11    0.42272      0.99965     1.55021    0.02742     2.57728
      O   12   -0.30247      0.99987     3.29634    0.00626     4.30247
      O   13   -0.34160      0.99987     3.33416    0.00756     4.34160
      H   14    0.09845      0.00000     0.40029    0.00126     0.40155
      H   15    0.10098      0.00000     0.39827    0.00075     0.39902
      H   16    0.10041      0.00000     0.39828    0.00131     0.39959
      H   17    0.11179      0.00000     0.38683    0.00138     0.38821
      H   18    0.10917      0.00000     0.38943    0.00140     0.39083
      H   19    0.13180      0.00000     0.36692    0.00128     0.36820
      H   20    0.12640      0.00000     0.37197    0.00164     0.37360
      H   21    0.24494      0.00000     0.23466    0.02040     0.25506
      H   22    0.23933      0.00000     0.25722    0.00346     0.26067
      H   23    0.24847      0.00000     0.22685    0.02469     0.25153
 =======================================================================
   * Total *   -0.00000     12.99653    36.78510    0.21836    50.00000

 Normal termination of Gaussian 16 at Mon Dec 14 13:50:02 2020.
