 Gaussian 16, Revision A.03,

 -----------------------------------------------------------
 # opt freq B3LYP/6-31G(d) empiricaldispersion=gd3bj scf=xqc
 -----------------------------------------------------------

 -------------------------------
 CID_145709772_JID_3854_neutraal
 -------------------------------
 Symbolic Z-matrix:
 Charge =  0 Multiplicity = 1

 SCF Done:  E(RB3LYP) =  -580.506278133     A.U. after   15 cycles
 SCF Done:  E(RB3LYP) =  -580.508566992     A.U. after   13 cycles
 SCF Done:  E(RB3LYP) =  -580.506067204     A.U. after   13 cycles
 SCF Done:  E(RB3LYP) =  -580.509352095     A.U. after   12 cycles
 SCF Done:  E(RB3LYP) =  -580.510211158     A.U. after   12 cycles
 SCF Done:  E(RB3LYP) =  -580.510586128     A.U. after   12 cycles
 SCF Done:  E(RB3LYP) =  -580.510730860     A.U. after   10 cycles
 SCF Done:  E(RB3LYP) =  -580.510843899     A.U. after   12 cycles
 SCF Done:  E(RB3LYP) =  -580.510883449     A.U. after   11 cycles
 SCF Done:  E(RB3LYP) =  -580.510919954     A.U. after   11 cycles
 SCF Done:  E(RB3LYP) =  -580.510924436     A.U. after   10 cycles
 SCF Done:  E(RB3LYP) =  -580.510925460     A.U. after    7 cycles
 SCF Done:  E(RB3LYP) =  -580.510925758     A.U. after    8 cycles
 SCF Done:  E(RB3LYP) =  -580.510925976     A.U. after    7 cycles
 SCF Done:  E(RB3LYP) =  -580.510926016     A.U. after    7 cycles
 Optimization completed.
    -- Stationary point found.
 Normal termination of Gaussian 16 at Sun Dec 13 20:06:15 2020.

 --------------------------------------------------------------------
 #N Geom=AllCheck Guess=TCheck SCRF=Check GenChk RB3LYP/6-31G(d) Freq
 --------------------------------------------------------------------

 Structure from the checkpoint file:  "JID_3854.chk"
 -------------------------------
 CID_145709772_JID_3854_neutraal
 -------------------------------
 Charge =  0 Multiplicity = 1

 SCF Done:  E(RB3LYP) =  -580.510926016     A.U. after    1 cycles

  Exact polarizability: 145.525   1.303 116.431   0.640   5.106  97.381
 Approx polarizability: 198.126  13.840 157.145   4.043   8.942 150.957

                      1                      2                      3
                      A                      A                      A
 Frequencies --     37.2742                47.6476                87.3837
 Red. masses --      4.3077                 4.5129                 2.7678
 Frc consts  --      0.0035                 0.0060                 0.0125
 IR Inten    --      1.6293                 1.5769                 0.8301

                      4                      5                      6
                      A                      A                      A
 Frequencies --    108.1868               131.4489               138.6821
 Red. masses --      2.0701                 2.4655                 1.1366
 Frc consts  --      0.0143                 0.0251                 0.0129
 IR Inten    --      0.1413                 1.1527                 0.3005

                      7                      8                      9
                      A                      A                      A
 Frequencies --    150.3991               194.5643               215.7150
 Red. masses --      3.2335                 2.5235                 1.6615
 Frc consts  --      0.0431                 0.0563                 0.0456
 IR Inten    --      0.9564                 0.8094                 2.1069

                     10                     11                     12
                      A                      A                      A
 Frequencies --    264.4338               293.5904               298.2720
 Red. masses --      2.8983                 2.2192                 3.2051
 Frc consts  --      0.1194                 0.1127                 0.1680
 IR Inten    --      3.0216                 0.3099                 6.0764

                     13                     14                     15
                      A                      A                      A
 Frequencies --    330.2015               338.9913               392.1333
 Red. masses --      2.5144                 2.4202                 2.6468
 Frc consts  --      0.1615                 0.1639                 0.2398
 IR Inten    --      4.8722                 3.8083                 1.0425

                     16                     17                     18
                      A                      A                      A
 Frequencies --    423.6017               474.0179               515.4646
 Red. masses --      3.2484                 3.1059                 2.7227
 Frc consts  --      0.3434                 0.4112                 0.4262
 IR Inten    --      1.0078                 0.6644                 1.1854

                     19                     20                     21
                      A                      A                      A
 Frequencies --    546.0552               643.3288               679.2484
 Red. masses --      2.7708                 3.3433                 2.8147
 Frc consts  --      0.4868                 0.8152                 0.7651
 IR Inten    --      0.9657                 7.3590                 3.6748

                     22                     23                     24
                      A                      A                      A
 Frequencies --    756.9983               778.4057               807.3759
 Red. masses --      3.2378                 2.0422                 1.4350
 Frc consts  --      1.0932                 0.7291                 0.5511
 IR Inten    --      5.2447                 2.9991                 3.0959

                     25                     26                     27
                      A                      A                      A
 Frequencies --    835.8097               860.4522               864.4424
 Red. masses --      2.0179                 1.7653                 1.9172
 Frc consts  --      0.8306                 0.7701                 0.8441
 IR Inten    --     22.3820                 2.4248                 9.3953

                     28                     29                     30
                      A                      A                      A
 Frequencies --    895.7109               913.8338               935.2675
 Red. masses --      3.0598                 2.5393                 1.5434
 Frc consts  --      1.4464                 1.2494                 0.7955
 IR Inten    --     12.8638                 8.1762                 5.2142

                     31                     32                     33
                      A                      A                      A
 Frequencies --    943.5878               995.3545              1023.8161
 Red. masses --      2.2416                 1.9351                 1.8057
 Frc consts  --      1.1759                 1.1296                 1.1152
 IR Inten    --      0.7794                 4.9393                 0.7778

                     34                     35                     36
                      A                      A                      A
 Frequencies --   1052.2308              1063.4727              1085.3926
 Red. masses --      1.8603                 4.5043                 1.9595
 Frc consts  --      1.2135                 3.0015                 1.3601
 IR Inten    --      6.6041                47.0357                 9.5616

                     37                     38                     39
                      A                      A                      A
 Frequencies --   1111.8137              1115.7321              1145.2686
 Red. masses --      2.0281                 1.9732                 1.6513
 Frc consts  --      1.4771                 1.4473                 1.2761
 IR Inten    --      3.4275                 1.7610                12.8235

                     40                     41                     42
                      A                      A                      A
 Frequencies --   1168.0549              1183.9381              1185.1792
 Red. masses --      2.1204                 1.7172                 1.2823
 Frc consts  --      1.7045                 1.4182                 1.0612
 IR Inten    --      1.7352                 2.1910                 1.5775

                     43                     44                     45
                      A                      A                      A
 Frequencies --   1218.2464              1221.4979              1274.7048
 Red. masses --      1.5333                 1.4991                 1.3846
 Frc consts  --      1.3407                 1.3179                 1.3255
 IR Inten    --      7.2519                38.8887                 4.1412

                     46                     47                     48
                      A                      A                      A
 Frequencies --   1288.1812              1298.0236              1315.5701
 Red. masses --      3.3019                 1.2397                 1.2572
 Frc consts  --      3.2282                 1.2307                 1.2820
 IR Inten    --    286.3904                 1.4847                20.6715

                     49                     50                     51
                      A                      A                      A
 Frequencies --   1344.5227              1355.8543              1366.1234
 Red. masses --      1.3192                 1.2181                 1.3551
 Frc consts  --      1.4051                 1.3193                 1.4901
 IR Inten    --      9.9681                 0.9312                 0.8529

                     52                     53                     54
                      A                      A                      A
 Frequencies --   1378.9881              1387.8248              1394.0606
 Red. masses --      1.3675                 1.4870                 1.3871
 Frc consts  --      1.5321                 1.6874                 1.5882
 IR Inten    --      1.2833                 6.9780                 1.8954

                     55                     56                     57
                      A                      A                      A
 Frequencies --   1404.0013              1438.7173              1442.7746
 Red. masses --      1.4409                 1.5577                 1.2536
 Frc consts  --      1.6735                 1.8997                 1.5375
 IR Inten    --      1.5302                 0.8911                 2.0743

                     58                     59                     60
                      A                      A                      A
 Frequencies --   1489.8253              1512.4389              1513.3667
 Red. masses --      1.2024                 1.0499                 1.0927
 Frc consts  --      1.5725                 1.4150                 1.4745
 IR Inten    --      9.5604                 5.1585                 1.3158

                     61                     62                     63
                      A                      A                      A
 Frequencies --   1515.2293              1519.6306              1523.0632
 Red. masses --      1.0917                 1.0846                 1.0554
 Frc consts  --      1.4767                 1.4756                 1.4425
 IR Inten    --      3.4306                 5.9351                 4.8323

                     64                     65                     66
                      A                      A                      A
 Frequencies --   1526.1148              1530.6124              1534.8332
 Red. masses --      1.0482                 1.0758                 1.0679
 Frc consts  --      1.4383                 1.4849                 1.4822
 IR Inten    --      6.1348                 3.1985                 4.0718

                     67                     68                     69
                      A                      A                      A
 Frequencies --   1539.2914              1724.1077              1808.0779
 Red. masses --      1.0766                 8.2650                11.1685
 Frc consts  --      1.5029                14.4751                21.5120
 IR Inten    --      6.5609                21.6362               310.8848

                     70                     71                     72
                      A                      A                      A
 Frequencies --   2971.5007              3025.2035              3027.1612
 Red. masses --      1.0806                 1.0666                 1.0683
 Frc consts  --      5.6218                 5.7510                 5.7676
 IR Inten    --     18.6235                15.3970                41.0299

                     73                     74                     75
                      A                      A                      A
 Frequencies --   3040.3600              3042.5433              3045.9339
 Red. masses --      1.0609                 1.0573                 1.0407
 Frc consts  --      5.7780                 5.7664                 5.6888
 IR Inten    --     25.5089                17.5112                28.5610

                     76                     77                     78
                      A                      A                      A
 Frequencies --   3052.8542              3072.9343              3076.3991
 Red. masses --      1.0692                 1.0301                 1.0937
 Frc consts  --      5.8710                 5.7311                 6.0985
 IR Inten    --     22.2258                32.1438                54.1659

                     79                     80                     81
                      A                      A                      A
 Frequencies --   3084.5133              3090.4161              3095.8843
 Red. masses --      1.1020                 1.1032                 1.0988
 Frc consts  --      6.1773                 6.2078                 6.2052
 IR Inten    --     47.5810                46.5548                45.3850

                     82                     83                     84
                      A                      A                      A
 Frequencies --   3102.5597              3116.0024              3129.4534
 Red. masses --      1.0982                 1.1015                 1.0972
 Frc consts  --      6.2282                 6.3011                 6.3308
 IR Inten    --     15.0814                38.5792                39.7307

                     85                     86                     87
                      A                      A                      A
 Frequencies --   3147.2231              3168.3292              3179.6005
 Red. masses --      1.1064                 1.0872                 1.1072
 Frc consts  --      6.4571                 6.4300                 6.5949
 IR Inten    --     22.3564                 7.5658                15.8068

 - Thermochemistry -
 -------------------
 Temperature   298.150 Kelvin.  Pressure   1.00000 Atm.
 Atom     1 has atomic number  6 and mass  12.00000

 Molecular mass:   182.13068 amu.
 Principal axes and moments of inertia in atomic units:
                           1         2         3
     Eigenvalues --  1707.018373225.774144036.84614
           X            0.99954  -0.02869  -0.00932
           Y            0.02856   0.99949  -0.01404
           Z            0.00971   0.01377   0.99986
 This molecule is an asymmetric top.
 Rotational symmetry number  1.
 Warning -- assumption of classical behavior for rotation
           may cause significant error
 Rotational temperatures (Kelvin)      0.05074     0.02685     0.02146
 Rotational constants (GHZ):           1.05725     0.55948     0.44707
 Zero-point vibrational energy     725937.9 (Joules/Mol)
                                  173.50331 (Kcal/Mol)
 Warning -- explicit consideration of  19 degrees of freedom as
           vibrations may cause significant error
 Vibrational temperatures:     53.63    68.55   125.73   155.66   189.13
          (Kelvin)            199.53   216.39   279.93   310.37   380.46
                              422.41   429.15   475.09   487.73   564.19
                              609.47   682.01   741.64   785.65   925.61
                              977.29  1089.15  1119.95  1161.63  1202.54
                             1238.00  1243.74  1288.73  1314.80  1345.64
                             1357.61  1432.09  1473.04  1513.93  1530.10
                             1561.64  1599.65  1605.29  1647.79  1680.57
                             1703.42  1705.21  1752.78  1757.46  1834.02
                             1853.41  1867.57  1892.81  1934.47  1950.77
                             1965.55  1984.06  1996.77  2005.74  2020.04
                             2069.99  2075.83  2143.53  2176.06  2177.40
                             2180.08  2186.41  2191.35  2195.74  2202.21
                             2208.28  2214.70  2480.61  2601.42  4275.33
                             4352.59  4355.41  4374.40  4377.54  4382.42
                             4392.38  4421.27  4426.25  4437.93  4446.42
                             4454.29  4463.89  4483.23  4502.59  4528.15
                             4558.52  4574.74

 Zero-point correction=                           0.276495 (Hartree/Particle)
 Thermal correction to Energy=                    0.290302
 Thermal correction to Enthalpy=                  0.291246
 Thermal correction to Gibbs Free Energy=         0.235542
 Sum of electronic and zero-point Energies=           -580.234431
 Sum of electronic and thermal Energies=              -580.220624
 Sum of electronic and thermal Enthalpies=            -580.219680
 Sum of electronic and thermal Free Energies=         -580.275384

                     E (Thermal)             CV                S
                      KCal/Mol        Cal/Mol-Kelvin    Cal/Mol-Kelvin
 Total                  182.167             51.400            117.238
 Electronic               0.000              0.000              0.000
 Translational            0.889              2.981             41.505
 Rotational               0.889              2.981             31.475
 Vibrational            180.390             45.438             44.258
 Vibration     1          0.594              1.982              5.399
 Vibration     2          0.595              1.978              4.913
 Vibration     3          0.601              1.958              3.718
 Vibration     4          0.606              1.943              3.301
 Vibration     5          0.612              1.922              2.925
 Vibration     6          0.614              1.915              2.822
 Vibration     7          0.618              1.902              2.667
 Vibration     8          0.635              1.847              2.184
 Vibration     9          0.645              1.817              1.995
 Vibration    10          0.671              1.738              1.632
 Vibration    11          0.688              1.686              1.453
 Vibration    12          0.691              1.677              1.427
 Vibration    13          0.713              1.615              1.259
 Vibration    14          0.719              1.598              1.217
 Vibration    15          0.760              1.487              0.992
 Vibration    16          0.786              1.419              0.880
 Vibration    17          0.831              1.308              0.726
 Vibration    18          0.871              1.216              0.621
 Vibration    19          0.901              1.148              0.552

 Optimization completed.
    -- Stationary point found.
 Normal termination of Gaussian 16 at Sun Dec 13 20:14:47 2020.

 ----------------------------------------------------------------------
 # B3LYP/6-311++G(d,p) empiricaldispersion=gd3bj scf=xqc pop=npa geom=c
 heck
 ----------------------------------------------------------------------

 ---------------------------------------
 CID_145709772_JID_3854_Energie_neutraal
 ---------------------------------------
 Structure from the checkpoint file:  "JID_3854.chk"
 Charge =  0 Multiplicity = 1

 SCF Done:  E(RB3LYP) =  -580.675295252     A.U. after   14 cycles
 Normal termination of Gaussian 16 at Sun Dec 13 20:18:39 2020.

 ----------------------------------------------------------------------
 # B3LYP/6-311++G(d,p) empiricaldispersion=gd3bj scf=xqc pop=npa geom=c
 heck
 ----------------------------------------------------------------------

 -------------------------------------
 CID_145709772_JID_3854_Energie_kation
 -------------------------------------
 Structure from the checkpoint file:  "JID_3854.chk"
 Charge =  1 Multiplicity = 2

 SCF Done:  E(UB3LYP) =  -580.351962301     A.U. after   21 cycles
 Normal termination of Gaussian 16 at Sun Dec 13 20:26:51 2020.
 Gaussian 16:  ES64L-G16RevA.03 25-Dec-2016

 ----------------------------------------------------------------------
 # B3LYP/6-311++G(d,p) empiricaldispersion=gd3bj scf=xqc pop=npa geom=c
 heck
 ----------------------------------------------------------------------

 ------------------------------------
 CID_145709772_JID_3854_Energie_anion
 ------------------------------------
 Structure from the checkpoint file:  "JID_3854.chk"
 Charge = -1 Multiplicity = 2

                         Standard orientation:
 ---------------------------------------------------------------------
 Center     Atomic      Atomic             Coordinates (Angstroms)
 Number     Number       Type             X           Y           Z
 ---------------------------------------------------------------------
      1          6           0        0.131026    3.109461   -0.817457
      2          6           0       -0.304143    1.685158   -0.458265
      3          6           0        0.882487    0.710880   -0.390197
      4          6           0        1.719081    0.869388    0.903337
      5          6           0        3.024545    0.066297    0.829227
      6          6           0        2.769536   -1.407073    0.487400
      7          6           0        1.897357   -1.548473   -0.778734
      8          6           0        0.613432   -0.770524   -0.586277
      9          6           0       -0.553080   -1.432998   -0.553613
     10          6           0       -1.921018   -0.938791   -0.259885
     11          8           0       -2.889678   -1.140965   -0.964003
     12          8           0       -2.001522   -0.311478    0.940611
     13          6           0       -3.305434    0.188680    1.271105
     14          1           0        0.837097    3.516763   -0.084743
     15          1           0       -0.731029    3.784503   -0.852794
     16          1           0        0.618309    3.139031   -1.799608
     17          1           0       -0.833827    1.689855    0.497623
     18          1           0       -1.020195    1.334236   -1.212125
     19          1           0        1.552356    0.981004   -1.224447
     20          1           0        1.109245    0.526814    1.749928
     21          1           0        1.941629    1.929019    1.074192
     22          1           0        3.571899    0.144398    1.776599
     23          1           0        3.669930    0.508809    0.056702
     24          1           0        2.248076   -1.891416    1.323694
     25          1           0        3.718394   -1.939284    0.348398
     26          1           0        1.689111   -2.604458   -0.980248
     27          1           0        2.453339   -1.152040   -1.640772
     28          1           0       -0.551003   -2.490264   -0.812387
     29          1           0       -3.620317    0.946048    0.547397
     30          1           0       -4.038371   -0.621806    1.274874
     31          1           0       -3.207775    0.626291    2.265011
 ---------------------------------------------------------------------

 SCF Done:  E(UB3LYP) =  -580.664771876     A.U. after   32 cycles

 The electronic state is 2-A.
 Alpha  occ. eigenvalues --  -19.05348 -18.98877 -10.17602 -10.12072 -10.06571
 Alpha  occ. eigenvalues --  -10.06501 -10.05746 -10.05701 -10.05530 -10.05499
 Alpha  occ. eigenvalues --  -10.05440 -10.05403 -10.04936  -0.99144  -0.90125
 Alpha  occ. eigenvalues --   -0.73759  -0.67292  -0.66737  -0.62768  -0.61315
 Alpha  occ. eigenvalues --   -0.57246  -0.52519  -0.48677  -0.47456  -0.45879
 Alpha  occ. eigenvalues --   -0.43241  -0.39266  -0.37613  -0.36526  -0.35036
 Alpha  occ. eigenvalues --   -0.34695  -0.33688  -0.32626  -0.30937  -0.30675
 Alpha  occ. eigenvalues --   -0.30340  -0.28645  -0.27207  -0.26819  -0.25462
 Alpha  occ. eigenvalues --   -0.25042  -0.24653  -0.23547  -0.22056  -0.21765
 Alpha  occ. eigenvalues --   -0.20478  -0.19653  -0.19337  -0.16804  -0.13517
 Alpha  occ. eigenvalues --    0.04564
 Alpha virt. eigenvalues --    0.06660   0.07543   0.07950   0.08527   0.09097
 Alpha virt. eigenvalues --    0.09586   0.10161   0.10664   0.10905   0.11906
 Alpha virt. eigenvalues --    0.12121   0.12450   0.12595   0.13487   0.14405

  Beta  occ. eigenvalues --  -19.05324 -18.98770 -10.17500 -10.12050 -10.06577
  Beta  occ. eigenvalues --  -10.06345 -10.05743 -10.05674 -10.05501 -10.05471
  Beta  occ. eigenvalues --  -10.05430 -10.05379 -10.04884  -0.99026  -0.89963
  Beta  occ. eigenvalues --   -0.73613  -0.67253  -0.66563  -0.62663  -0.61242
  Beta  occ. eigenvalues --   -0.57125  -0.52452  -0.48488  -0.47383  -0.45785
  Beta  occ. eigenvalues --   -0.43117  -0.39151  -0.37436  -0.36424  -0.34944
  Beta  occ. eigenvalues --   -0.34635  -0.33632  -0.32556  -0.30836  -0.30598
  Beta  occ. eigenvalues --   -0.30255  -0.28412  -0.27041  -0.26748  -0.25367
  Beta  occ. eigenvalues --   -0.24986  -0.24599  -0.23480  -0.21991  -0.21681
  Beta  occ. eigenvalues --   -0.20381  -0.19461  -0.19164  -0.16646  -0.12950
  Beta virt. eigenvalues --    0.06797   0.07486   0.08012   0.08712   0.09267
  Beta virt. eigenvalues --    0.09715   0.10006   0.10430   0.10903   0.11095
  Beta virt. eigenvalues --    0.12208   0.12330   0.12646   0.12835   0.13645

 Mulliken charges and spin densities:
               1          2
     1  C    0.198220  -0.952343
     2  C   -0.915576   0.488327
     3  C   -0.028872   0.631103
     4  C    0.112675  -0.642953
     5  C    0.654068  -1.084729
     6  C   -0.042427  -0.379141
     7  C    0.349476  -0.727456
     8  C    0.107561   0.525368
     9  C    0.244131  -0.089646
    10  C   -0.601234  -0.135011
    11  O   -0.245935   0.037451
    12  O   -0.017862   0.017302
    13  C    0.217906  -0.474128
    14  H   -0.112844   0.252875
    15  H   -0.162163   0.298013
    16  H   -0.132680   0.267325
    17  H    0.088757   0.076576
    18  H    0.267889  -0.072642
    19  H    0.081945   0.087182
    20  H    0.083194   0.059967
    21  H   -0.056398   0.193705
    22  H   -0.273703   0.433935
    23  H   -0.116645   0.255024
    24  H    0.167530  -0.053540
    25  H   -0.472319   0.648860
    26  H    0.002912   0.149712
    27  H   -0.283751   0.427915
    28  H   -0.035545   0.214877
    29  H   -0.023457   0.199202
    30  H    0.048147   0.099664
    31  H   -0.103001   0.247204
 Sum of Mulliken charges =  -1.00000   1.00000

 Dipole moment (field-independent basis, Debye):
    X=             -3.0173    Y=             -0.4517    Z=              1.7243  Tot=              3.5045
 Quadrupole moment (field-independent basis, Debye-Ang):
   XX=           -147.1215   YY=           -121.4020   ZZ=           -109.4496
   XY=              0.6958   XZ=             -2.9670   YZ=             -3.7880

 Summary of Natural Population Analysis:

                                       Natural Population
                Natural  -----------------------------------------------
    Atom  No    Charge         Core      Valence    Rydberg      Total
 -----------------------------------------------------------------------
      C    1   -0.28076      0.99967     2.27726    0.00383     3.28076
      C    2   -0.19116      0.99962     2.18324    0.00830     3.19116
      C    3   -0.12625      0.99954     2.11526    0.01145     3.12625
      C    4   -0.18191      0.99961     2.17338    0.00892     3.18191
      C    5   -0.18939      0.99963     2.18125    0.00851     3.18939
      C    6   -0.18352      0.99962     2.17549    0.00841     3.18352
      C    7   -0.20096      0.99959     2.19105    0.01032     3.20096
      C    8    0.05987      0.99949     1.92942    0.01122     2.94013
      C    9   -0.15652      0.99938     2.14776    0.00938     3.15652
      C   10    0.40813      0.99966     1.56839    0.02381     2.59187
      O   11   -0.30428      0.99987     3.29900    0.00541     4.30428
      O   12   -0.27946      0.99986     3.27139    0.00820     4.27946
      C   13   -0.10939      0.99960     2.09991    0.00988     3.10939
      H   14    0.09597      0.00000     0.40286    0.00117     0.40403
      H   15    0.09682      0.00000     0.40225    0.00094     0.40318
      H   16    0.09451      0.00000     0.40440    0.00109     0.40549
      H   17    0.10019      0.00000     0.39779    0.00202     0.39981
      H   18    0.09757      0.00000     0.40063    0.00180     0.40243
      H   19    0.09898      0.00000     0.39867    0.00235     0.40102
      H   20    0.09593      0.00000     0.40256    0.00152     0.40407
      H   21    0.09923      0.00000     0.39960    0.00117     0.40077
      H   22    0.09699      0.00000     0.40207    0.00094     0.40301
      H   23    0.09526      0.00000     0.40274    0.00200     0.40474
      H   24    0.09207      0.00000     0.40665    0.00128     0.40793
      H   25    0.10007      0.00000     0.39811    0.00182     0.39993
      H   26    0.09901      0.00000     0.39992    0.00107     0.40099
      H   27    0.09968      0.00000     0.39842    0.00190     0.40032
      H   28    0.10312      0.00000     0.39572    0.00116     0.39688
      H   29    0.09072      0.00000     0.40824    0.00105     0.40928
      H   30    0.09019      0.00000     0.40889    0.00092     0.40981
      H   31    0.08931      0.00000     0.40972    0.00097     0.41069
 =======================================================================
   * Total *    0.00000     12.99514    36.85205    0.15281    50.00000

 Normal termination of Gaussian 16 at Sun Dec 13 20:39:25 2020.
