 Gaussian 16, Revision A.03,

 -----------------------------------------------------------
 # opt freq B3LYP/6-31G(d) empiricaldispersion=gd3bj scf=xqc
 -----------------------------------------------------------

 -------------------------------
 CID_131052025_JID_4437_neutraal
 -------------------------------
 Symbolic Z-matrix:
 Charge =  0 Multiplicity = 1

 SCF Done:  E(RB3LYP) =  -953.988532669     A.U. after   15 cycles
 SCF Done:  E(RB3LYP) =  -953.992520279     A.U. after   14 cycles
 SCF Done:  E(RB3LYP) =  -953.993781443     A.U. after   14 cycles
 SCF Done:  E(RB3LYP) =  -953.997507846     A.U. after   14 cycles
 SCF Done:  E(RB3LYP) =  -953.999933101     A.U. after   16 cycles
 SCF Done:  E(RB3LYP) =  -954.000513980     A.U. after   14 cycles
 SCF Done:  E(RB3LYP) =  -954.000678034     A.U. after   13 cycles
 SCF Done:  E(RB3LYP) =  -954.001201023     A.U. after   12 cycles
 SCF Done:  E(RB3LYP) =  -954.001445076     A.U. after   12 cycles
 SCF Done:  E(RB3LYP) =  -954.001498163     A.U. after   12 cycles
 SCF Done:  E(RB3LYP) =  -954.001512786     A.U. after   10 cycles
 SCF Done:  E(RB3LYP) =  -954.001516873     A.U. after   10 cycles
 SCF Done:  E(RB3LYP) =  -954.001517805     A.U. after    9 cycles
 SCF Done:  E(RB3LYP) =  -954.001518065     A.U. after    8 cycles
 SCF Done:  E(RB3LYP) =  -954.001518134     A.U. after    8 cycles
 Optimization completed.
    -- Stationary point found.
 Normal termination of Gaussian 16 at Thu Dec 10 09:48:04 2020.

 --------------------------------------------------------------------
 #N Geom=AllCheck Guess=TCheck SCRF=Check GenChk RB3LYP/6-31G(d) Freq
 --------------------------------------------------------------------

 Structure from the checkpoint file:  "JID_4437.chk"
 -------------------------------
 CID_131052025_JID_4437_neutraal
 -------------------------------
 Charge =  0 Multiplicity = 1

 SCF Done:  E(RB3LYP) =  -954.001518134     A.U. after    1 cycles

  Exact polarizability: 206.103  11.102 146.008   4.404  -4.039  76.306
 Approx polarizability: 302.387  39.885 261.667   2.881 -12.721 115.043

                      1                      2                      3
                      A                      A                      A
 Frequencies --     36.6875                43.9431                70.1452
 Red. masses --      4.7220                 2.9229                 3.3136
 Frc consts  --      0.0037                 0.0033                 0.0096
 IR Inten    --      2.6582                 4.0370                 3.0030

                      4                      5                      6
                      A                      A                      A
 Frequencies --     79.1772               126.5122               131.5557
 Red. masses --      3.5896                 3.7655                 4.9337
 Frc consts  --      0.0133                 0.0355                 0.0503
 IR Inten    --      0.7445                 5.4794                 4.0696

                      7                      8                      9
                      A                      A                      A
 Frequencies --    147.5094               168.7345               200.8656
 Red. masses --      2.1283                 2.8929                 2.3751
 Frc consts  --      0.0273                 0.0485                 0.0565
 IR Inten    --      0.5534                 0.8203                 0.5307

                     10                     11                     12
                      A                      A                      A
 Frequencies --    217.3238               233.8894               293.7527
 Red. masses --      1.3905                 3.2714                 5.2117
 Frc consts  --      0.0387                 0.1054                 0.2650
 IR Inten    --      1.0513                 2.0163                 2.2391

                     13                     14                     15
                      A                      A                      A
 Frequencies --    310.9829               341.6239               398.1991
 Red. masses --      4.9880                 6.6354                 4.2496
 Frc consts  --      0.2842                 0.4563                 0.3970
 IR Inten    --      0.5105                 0.1779                 2.3451

                     16                     17                     18
                      A                      A                      A
 Frequencies --    441.8307               461.1884               495.4224
 Red. masses --      7.6713                 3.5385                 3.9994
 Frc consts  --      0.8823                 0.4434                 0.5784
 IR Inten    --      6.1076                 0.9171                 9.3447

                     19                     20                     21
                      A                      A                      A
 Frequencies --    533.7603               582.2875               604.5815
 Red. masses --      7.7655                 6.0504                 4.0749
 Frc consts  --      1.3035                 1.2087                 0.8776
 IR Inten    --      8.5620                 2.4357                13.8823

                     22                     23                     24
                      A                      A                      A
 Frequencies --    639.5782               701.3052               709.7228
 Red. masses --      6.3509                 6.4017                 6.8424
 Frc consts  --      1.5306                 1.8551                 2.0307
 IR Inten    --      0.2319                 0.4235                 4.1433

                     25                     26                     27
                      A                      A                      A
 Frequencies --    730.4537               757.8694               819.9098
 Red. masses --      4.9459                 3.1994                 1.2369
 Frc consts  --      1.5548                 1.0827                 0.4899
 IR Inten    --      1.3415                 8.9867                 2.3061

                     28                     29                     30
                      A                      A                      A
 Frequencies --    874.1390               887.2655               925.7260
 Red. masses --      1.3974                 5.2054                 1.4411
 Frc consts  --      0.6291                 2.4144                 0.7276
 IR Inten    --     15.8512                 3.5722                 8.9176

                     31                     32                     33
                      A                      A                      A
 Frequencies --    963.5912               997.0680              1009.3749
 Red. masses --      2.1726                 1.1842                 1.3293
 Frc consts  --      1.1885                 0.6936                 0.7980
 IR Inten    --     47.0995                 6.1067                 0.5177

                     34                     35                     36
                      A                      A                      A
 Frequencies --   1017.1415              1033.6342              1078.9990
 Red. masses --      1.3113                 2.5194                 5.1058
 Frc consts  --      0.7993                 1.5859                 3.5023
 IR Inten    --     31.2264                27.6952                48.8020

                     37                     38                     39
                      A                      A                      A
 Frequencies --   1088.3226              1142.0472              1165.4916
 Red. masses --      1.7956                 1.8551                 1.6347
 Frc consts  --      1.2531                 1.4256                 1.3083
 IR Inten    --      3.4244                 1.9716                 1.1627

                     40                     41                     42
                      A                      A                      A
 Frequencies --   1214.5613              1264.9856              1301.5928
 Red. masses --      1.9696                 1.8722                 1.3392
 Frc consts  --      1.7119                 1.7651                 1.3367
 IR Inten    --      4.3878                94.2360                35.7150

                     43                     44                     45
                      A                      A                      A
 Frequencies --   1327.5219              1345.4686              1355.5137
 Red. masses --      1.7241                10.3330                 1.7364
 Frc consts  --      1.7902                11.0210                 1.8798
 IR Inten    --     86.5138                 0.3851                36.8552

                     46                     47                     48
                      A                      A                      A
 Frequencies --   1390.3269              1424.8417              1438.1934
 Red. masses --      1.1515                 3.4370                 1.2175
 Frc consts  --      1.3115                 4.1112                 1.4837
 IR Inten    --      4.1730                18.6007                 7.2054

                     49                     50                     51
                      A                      A                      A
 Frequencies --   1495.2740              1510.4852              1520.6719
 Red. masses --      1.0540                 1.5228                 1.0592
 Frc consts  --      1.3885                 2.0470                 1.4431
 IR Inten    --      8.5661                11.6780                15.8366

                     52                     53                     54
                      A                      A                      A
 Frequencies --   1523.2976              1529.5054              1539.1106
 Red. masses --      1.3669                 1.0948                 1.0817
 Frc consts  --      1.8687                 1.5090                 1.5097
 IR Inten    --      1.9847                 9.0084                 9.3442

                     55                     56                     57
                      A                      A                      A
 Frequencies --   1596.9238              1646.8531              1778.0926
 Red. masses --      7.1031                 5.4047                11.3637
 Frc consts  --     10.6726                 8.6364                21.1680
 IR Inten    --     31.6398                72.6778               181.8167

                     58                     59                     60
                      A                      A                      A
 Frequencies --   2348.4648              3060.9342              3066.8418
 Red. masses --     12.6771                 1.0354                 1.0632
 Frc consts  --     41.1945                 5.7155                 5.8920
 IR Inten    --     22.8061                16.1532                17.0059

                     61                     62                     63
                      A                      A                      A
 Frequencies --   3081.6678              3119.3979              3135.0683
 Red. masses --      1.0307                 1.1005                 1.1027
 Frc consts  --      5.7668                 6.3095                 6.3855
 IR Inten    --     18.5477                 0.6462                26.5566

                     64                     65                     66
                      A                      A                      A
 Frequencies --   3139.6530              3165.7336              3194.1453
 Red. masses --      1.1031                 1.1054                 1.1065
 Frc consts  --      6.4065                 6.5272                 6.6515
 IR Inten    --     40.2586                 3.8840                 1.1031

                     67                     68                     69
                      A                      A                      A
 Frequencies --   3213.4787              3230.8422              3232.0659
 Red. masses --      1.0893                 1.0903                 1.0933
 Frc consts  --      6.6277                 6.7057                 6.7287
 IR Inten    --      1.5119                 2.6739                 1.4840

 - Thermochemistry -
 -------------------
 Temperature   298.150 Kelvin.  Pressure   1.00000 Atm.
 Atom     1 has atomic number  6 and mass  12.00000

 Molecular mass:   205.05614 amu.
 Principal axes and moments of inertia in atomic units:
                           1         2         3
     Eigenvalues --  1552.827645214.312576339.98310
           X            0.99978  -0.02065   0.00414
           Y            0.02058   0.99965   0.01651
           Z           -0.00448  -0.01642   0.99986
 This molecule is an asymmetric top.
 Rotational symmetry number  1.
 Warning -- assumption of classical behavior for rotation
           may cause significant error
 Rotational temperatures (Kelvin)      0.05578     0.01661     0.01366
 Rotational constants (GHZ):           1.16223     0.34611     0.28466
 Zero-point vibrational energy     512319.5 (Joules/Mol)
                                  122.44729 (Kcal/Mol)
 Warning -- explicit consideration of  21 degrees of freedom as
           vibrations may cause significant error
 Vibrational temperatures:     52.79    63.22   100.92   113.92   182.02
          (Kelvin)            189.28   212.23   242.77   289.00   312.68
                              336.51   422.64   447.44   491.52   572.92
                              635.70   663.55   712.80   767.96   837.78
                              869.86   920.21  1009.02  1021.13  1050.96
                             1090.41  1179.67  1257.69  1276.58  1331.91
                             1386.39  1434.56  1452.27  1463.44  1487.17
                             1552.44  1565.85  1643.15  1676.88  1747.48
                             1820.03  1872.70  1910.01  1935.83  1950.28
                             2000.37  2050.03  2069.24  2151.37  2173.25
                             2187.91  2191.69  2200.62  2214.44  2297.62
                             2369.45  2558.28  3378.92  4404.00  4412.50
                             4433.83  4488.12  4510.66  4517.26  4554.78
                             4595.66  4623.48  4648.46  4650.22

 Zero-point correction=                           0.195132 (Hartree/Particle)
 Thermal correction to Energy=                    0.209454
 Thermal correction to Enthalpy=                  0.210398
 Thermal correction to Gibbs Free Energy=         0.152615
 Sum of electronic and zero-point Energies=           -953.806386
 Sum of electronic and thermal Energies=              -953.792064
 Sum of electronic and thermal Enthalpies=            -953.791120
 Sum of electronic and thermal Free Energies=         -953.848903

                     E (Thermal)             CV                S
                      KCal/Mol        Cal/Mol-Kelvin    Cal/Mol-Kelvin
 Total                  131.434             51.471            121.614
 Electronic               0.000              0.000              0.000
 Translational            0.889              2.981             41.859
 Rotational               0.889              2.981             32.307
 Vibrational            129.657             45.510             47.449
 Vibration     1          0.594              1.982              5.430
 Vibration     2          0.595              1.980              5.073
 Vibration     3          0.598              1.968              4.149
 Vibration     4          0.600              1.963              3.911
 Vibration     5          0.611              1.927              2.998
 Vibration     6          0.612              1.922              2.923
 Vibration     7          0.617              1.905              2.704
 Vibration     8          0.625              1.881              2.450
 Vibration     9          0.638              1.839              2.125
 Vibration    10          0.646              1.815              1.981
 Vibration    11          0.654              1.789              1.849
 Vibration    12          0.689              1.685              1.452
 Vibration    13          0.700              1.653              1.357
 Vibration    14          0.721              1.592              1.205
 Vibration    15          0.764              1.474              0.969
 Vibration    16          0.802              1.379              0.821
 Vibration    17          0.819              1.336              0.763
 Vibration    18          0.851              1.260              0.670
 Vibration    19          0.889              1.175              0.579
 Vibration    20          0.939              1.070              0.481
 Vibration    21          0.963              1.022              0.442

                           ! Non-Optimized Parameters !
 Normal termination of Gaussian 16 at Thu Dec 10 09:54:27 2020.

 ----------------------------------------------------------------------
 # B3LYP/6-311++G(d,p) empiricaldispersion=gd3bj scf=xqc pop=npa geom=c
 heck
 ----------------------------------------------------------------------

 ---------------------------------------
 CID_131052025_JID_4437_Energie_neutraal
 ---------------------------------------
 Structure from the checkpoint file:  "JID_4437.chk"
 Charge =  0 Multiplicity = 1

 SCF Done:  E(RB3LYP) =  -954.176916978     A.U. after   16 cycles
 Normal termination of Gaussian 16 at Thu Dec 10 09:57:03 2020.

 ----------------------------------------------------------------------
 # B3LYP/6-311++G(d,p) empiricaldispersion=gd3bj scf=xqc pop=npa geom=c
 heck
 ----------------------------------------------------------------------

 -------------------------------------
 CID_131052025_JID_4437_Energie_kation
 -------------------------------------
 Structure from the checkpoint file:  "JID_4437.chk"
 Charge =  1 Multiplicity = 2

 SCF Done:  E(UB3LYP) =  -953.859934535     A.U. after   28 cycles
 Normal termination of Gaussian 16 at Thu Dec 10 10:03:01 2020.
 Gaussian 16:  ES64L-G16RevA.03 25-Dec-2016

 ----------------------------------------------------------------------
 # B3LYP/6-311++G(d,p) empiricaldispersion=gd3bj scf=xqc pop=npa geom=c
 heck
 ----------------------------------------------------------------------

 ------------------------------------
 CID_131052025_JID_4437_Energie_anion
 ------------------------------------
 Structure from the checkpoint file:  "JID_4437.chk"
 Charge = -1 Multiplicity = 2

                         Standard orientation:
 ---------------------------------------------------------------------
 Center     Atomic      Atomic             Coordinates (Angstroms)
 Number     Number       Type             X           Y           Z
 ---------------------------------------------------------------------
      1          6           0       -3.659634    1.505804    1.106495
      2          6           0       -3.635378    0.816921   -0.270810
      3          6           0       -2.899982   -0.511630   -0.210225
      4          8           0       -3.515697   -1.563717   -0.133351
      5          6           0       -1.399460   -0.521517   -0.194200
      6          6           0       -0.627051    0.633027   -0.326069
      7          6           0        0.774679    0.566806   -0.309594
      8          6           0        1.428430   -0.672615   -0.121390
      9          6           0        0.639494   -1.826346    0.000278
     10          6           0       -0.745463   -1.754231   -0.043289
     11         16           0        3.195192   -0.880022   -0.117641
     12          6           0        3.770346    0.348274    1.117374
     13          6           0        1.505786    1.777158   -0.528066
     14          7           0        2.075442    2.775082   -0.709052
     15          1           0       -4.133327    0.856291    1.849489
     16          1           0       -4.229675    2.438599    1.055584
     17          1           0       -2.651146    1.743239    1.460436
     18          1           0       -4.655459    0.595610   -0.595259
     19          1           0       -3.181976    1.479869   -1.016905
     20          1           0       -1.089996    1.603061   -0.463587
     21          1           0        1.132654   -2.781396    0.148411
     22          1           0       -1.354808   -2.645901    0.057502
     23          1           0        3.716664    1.368096    0.737851
     24          1           0        3.197758    0.250693    2.042222
     25          1           0        4.813126    0.086442    1.313653
 ---------------------------------------------------------------------

 SCF Done:  E(UB3LYP) =  -954.215456848     A.U. after   26 cycles

 The electronic state is 2-A.
 Alpha  occ. eigenvalues --  -88.72672 -18.95155 -14.18111 -10.09868 -10.08398
 Alpha  occ. eigenvalues --  -10.07927 -10.07570 -10.06839 -10.06458 -10.06089
 Alpha  occ. eigenvalues --  -10.05614 -10.04920 -10.03805 -10.03115  -7.81225
 Alpha  occ. eigenvalues --   -5.77627  -5.77242  -5.76620  -0.89108  -0.78410
 Alpha  occ. eigenvalues --   -0.74143  -0.68067  -0.66229  -0.64082  -0.62066
 Alpha  occ. eigenvalues --   -0.55051  -0.52691  -0.50637  -0.47543  -0.44292
 Alpha  occ. eigenvalues --   -0.37623  -0.35824  -0.35287  -0.34092  -0.32324
 Alpha  occ. eigenvalues --   -0.31656  -0.31373  -0.31065  -0.29436  -0.28098
 Alpha  occ. eigenvalues --   -0.27465  -0.26339  -0.24989  -0.24695  -0.23476
 Alpha  occ. eigenvalues --   -0.23339  -0.22409  -0.21953  -0.21014  -0.19727
 Alpha  occ. eigenvalues --   -0.15080  -0.13487  -0.10975  -0.10413   0.01830
 Alpha virt. eigenvalues --    0.07735   0.08094   0.08503   0.10184   0.10388
 Alpha virt. eigenvalues --    0.10996   0.11365   0.12205   0.12773   0.13120
 Alpha virt. eigenvalues --    0.13618   0.14269   0.14564   0.14837   0.15211

  Beta  occ. eigenvalues --  -88.72668 -18.94784 -14.18006 -10.09645 -10.08399
  Beta  occ. eigenvalues --  -10.07851 -10.07514 -10.06493 -10.06360 -10.06059
  Beta  occ. eigenvalues --  -10.05634 -10.05046 -10.03680 -10.02768  -7.81220
  Beta  occ. eigenvalues --   -5.77632  -5.77254  -5.76589  -0.88428  -0.78238
  Beta  occ. eigenvalues --   -0.73743  -0.67720  -0.66089  -0.63695  -0.61745
  Beta  occ. eigenvalues --   -0.54635  -0.52580  -0.50403  -0.47105  -0.43992
  Beta  occ. eigenvalues --   -0.37331  -0.35599  -0.35082  -0.33928  -0.32160
  Beta  occ. eigenvalues --   -0.31526  -0.31238  -0.30818  -0.28974  -0.27688
  Beta  occ. eigenvalues --   -0.26874  -0.26106  -0.24770  -0.24521  -0.23169
  Beta  occ. eigenvalues --   -0.22409  -0.22200  -0.21557  -0.20342  -0.19223
  Beta  occ. eigenvalues --   -0.14165  -0.12330  -0.10622  -0.09556
  Beta virt. eigenvalues --    0.07236   0.08016   0.08750   0.08807   0.10186
  Beta virt. eigenvalues --    0.10403   0.10946   0.11333   0.12239   0.12800
  Beta virt. eigenvalues --    0.13163   0.14247   0.14426   0.14687   0.15091

 Mulliken charges and spin densities:
               1          2
     1  C   -0.487926  -0.045288
     2  C   -0.102504   0.036031
     3  C   -0.022789   0.111914
     4  O   -0.350320   0.136077
     5  C    1.121272   0.052916
     6  C   -0.759361  -0.020620
     7  C    1.215155   0.097170
     8  C    0.130989   0.285551
     9  C   -0.778815  -0.071226
    10  C    0.292230   0.309820
    11  S   -0.580667   0.039643
    12  C   -0.573590  -0.040474
    13  C   -1.313659  -0.037100
    14  N   -0.287375   0.054736
    15  H    0.150114  -0.004567
    16  H    0.076573   0.034848
    17  H    0.121639   0.004882
    18  H    0.170212   0.014238
    19  H    0.115757   0.002019
    20  H    0.134223   0.008192
    21  H    0.142212   0.006431
    22  H    0.169040  -0.021498
    23  H    0.170603   0.005088
    24  H    0.149552   0.015390
    25  H    0.097435   0.025826
 Sum of Mulliken charges =  -1.00000   1.00000

 Dipole moment (field-independent basis, Debye):
    X=              0.4991    Y=              0.5773    Z=              1.9907  Tot=              2.1319
 Quadrupole moment (field-independent basis, Debye-Ang):
   XX=           -138.4238   YY=           -119.1536   ZZ=            -98.9593
   XY=            -18.3488   XZ=              5.4224   YZ=              2.4064

 Summary of Natural Population Analysis:

                                       Natural Population
                Natural  -----------------------------------------------
    Atom  No    Charge         Core      Valence    Rydberg      Total
 -----------------------------------------------------------------------
      C    1   -0.27971      0.99967     2.27624    0.00380     3.27971
      C    2   -0.22958      0.99961     2.22322    0.00674     3.22958
      C    3    0.30294      0.99963     1.67644    0.02100     2.69706
      O    4   -0.26670      0.99988     3.26003    0.00680     4.26670
      C    5   -0.05476      0.99946     2.04573    0.00956     3.05476
      C    6   -0.06774      0.99951     2.06169    0.00654     3.06774
      C    7   -0.11117      0.99936     2.10085    0.01095     3.11117
      C    8    0.01898      0.99939     1.96847    0.01317     2.98102
      C    9   -0.13400      0.99952     2.12526    0.00922     3.13400
      C   10    0.00130      0.99954     1.99035    0.00882     2.99870
      S   11    0.10359      4.99957     2.87656    0.02029     7.89641
      C   12   -0.34112      0.99961     2.33593    0.00558     3.34112
      C   13    0.15938      0.99963     1.82190    0.01908     2.84062
      N   14   -0.19353      0.99979     2.68270    0.01104     3.69353
      H   15    0.09720      0.00000     0.40182    0.00098     0.40280
      H   16    0.09120      0.00000     0.40780    0.00100     0.40880
      H   17    0.09904      0.00000     0.40000    0.00096     0.40096
      H   18    0.09980      0.00000     0.39742    0.00278     0.40020
      H   19    0.09639      0.00000     0.40234    0.00126     0.40361
      H   20    0.09960      0.00000     0.39940    0.00101     0.40040
      H   21    0.09902      0.00000     0.39992    0.00106     0.40098
      H   22    0.10410      0.00000     0.39428    0.00163     0.39590
      H   23    0.10764      0.00000     0.38989    0.00248     0.39236
      H   24    0.10017      0.00000     0.39837    0.00145     0.39983
      H   25    0.09798      0.00000     0.40034    0.00168     0.40202
 =======================================================================
   * Total *    0.00000     17.99416    35.83696    0.16888    54.00000

 Normal termination of Gaussian 16 at Thu Dec 10 10:08:37 2020.
