 Gaussian 16, Revision A.03,

 -----------------------------------------------------------
 # opt freq B3LYP/6-31G(d) empiricaldispersion=gd3bj scf=xqc
 -----------------------------------------------------------

 ------------------------------
 CID_10750477_JID_5545_neutraal
 ------------------------------
 Symbolic Z-matrix:
 Charge =  0 Multiplicity = 1

 SCF Done:  E(RB3LYP) =  -617.213569000     A.U. after   14 cycles
 SCF Done:  E(RB3LYP) =  -617.216327511     A.U. after   13 cycles
 SCF Done:  E(RB3LYP) =  -617.216311568     A.U. after   13 cycles
 SCF Done:  E(RB3LYP) =  -617.217298013     A.U. after   12 cycles
 SCF Done:  E(RB3LYP) =  -617.217454422     A.U. after   12 cycles
 SCF Done:  E(RB3LYP) =  -617.217475124     A.U. after   11 cycles
 SCF Done:  E(RB3LYP) =  -617.217479740     A.U. after   10 cycles
 SCF Done:  E(RB3LYP) =  -617.217481106     A.U. after    9 cycles
 SCF Done:  E(RB3LYP) =  -617.217481278     A.U. after    8 cycles
 Optimization completed.
    -- Stationary point found.
 Normal termination of Gaussian 16 at Thu Dec 10 16:35:24 2020.

 --------------------------------------------------------------------
 #N Geom=AllCheck Guess=TCheck SCRF=Check GenChk RB3LYP/6-31G(d) Freq
 --------------------------------------------------------------------

 Structure from the checkpoint file:  "JID_5545.chk"
 ------------------------------
 CID_10750477_JID_5545_neutraal
 ------------------------------
 Charge =  0 Multiplicity = 1

 SCF Done:  E(RB3LYP) =  -617.217481278     A.U. after    1 cycles

  Exact polarizability: 229.756  -0.648 145.829  -4.159  -1.981  74.966
 Approx polarizability: 334.614  -8.597 245.534  -8.945  -3.843 121.691

                      1                      2                      3
                      A                      A                      A
 Frequencies --     60.2304                79.6909               105.8549
 Red. masses --      4.1604                 4.1592                 2.8365
 Frc consts  --      0.0089                 0.0156                 0.0187
 IR Inten    --      2.4662                 0.1171                 0.8649

                      4                      5                      6
                      A                      A                      A
 Frequencies --    185.1981               216.1553               236.7602
 Red. masses --      4.1949                 3.3740                 3.3908
 Frc consts  --      0.0848                 0.0929                 0.1120
 IR Inten    --      1.1014                 0.1738                 1.6044

                      7                      8                      9
                      A                      A                      A
 Frequencies --    299.9538               331.2195               351.5165
 Red. masses --      2.3232                 5.2338                 2.9094
 Frc consts  --      0.1232                 0.3383                 0.2118
 IR Inten    --      0.5522                 0.3790                 1.4716

                     10                     11                     12
                      A                      A                      A
 Frequencies --    358.3585               436.4636               444.2992
 Red. masses --      3.4886                 3.0284                 3.1885
 Frc consts  --      0.2640                 0.3399                 0.3708
 IR Inten    --      4.1201                 3.9154                 3.2320

                     13                     14                     15
                      A                      A                      A
 Frequencies --    454.5594               520.6130               530.1964
 Red. masses --      3.5782                 4.5986                 3.2534
 Frc consts  --      0.4356                 0.7344                 0.5388
 IR Inten    --      2.1809                17.1089                 9.1710

                     16                     17                     18
                      A                      A                      A
 Frequencies --    548.8501               603.0121               619.3184
 Red. masses --      3.0294                 3.0902                 3.6070
 Frc consts  --      0.5377                 0.6620                 0.8151
 IR Inten    --      1.1045                 5.6261                 1.2609

                     19                     20                     21
                      A                      A                      A
 Frequencies --    634.0973               654.6958               732.3470
 Red. masses --      5.1205                 3.9661                 2.9853
 Frc consts  --      1.2130                 1.0016                 0.9434
 IR Inten    --      1.5695                 3.4396                 5.4832

                     22                     23                     24
                      A                      A                      A
 Frequencies --    754.1786               775.9279               789.4939
 Red. masses --      2.3276                 1.5937                 3.8747
 Frc consts  --      0.7800                 0.5653                 1.4229
 IR Inten    --      8.6526                25.6270                 1.2875

                     25                     26                     27
                      A                      A                      A
 Frequencies --    853.5817               877.7127               884.8162
 Red. masses --      1.7455                 2.5396                 1.5409
 Frc consts  --      0.7493                 1.1527                 0.7108
 IR Inten    --     21.5169                 0.0333                 0.4432

                     28                     29                     30
                      A                      A                      A
 Frequencies --    914.6430               930.2225               944.6925
 Red. masses --      2.2236                 1.9974                 1.3751
 Frc consts  --      1.0960                 1.0183                 0.7230
 IR Inten    --      4.9897                11.8285                 0.1205

                     31                     32                     33
                      A                      A                      A
 Frequencies --    960.7388               980.0586               986.8090
 Red. masses --      1.9232                 1.4704                 1.7763
 Frc consts  --      1.0459                 0.8321                 1.0192
 IR Inten    --      2.7690                 8.0319                 2.1599

                     34                     35                     36
                      A                      A                      A
 Frequencies --    989.6579              1058.8799              1068.9755
 Red. masses --      1.7971                 2.2118                 2.2794
 Frc consts  --      1.0370                 1.4611                 1.5346
 IR Inten    --      2.4642                 6.2002                 0.1625

                     37                     38                     39
                      A                      A                      A
 Frequencies --   1095.3676              1108.6858              1128.3208
 Red. masses --      1.9534                 2.0170                 2.1673
 Frc consts  --      1.3809                 1.4608                 1.6257
 IR Inten    --      1.5257                 2.2982                 0.8309

                     40                     41                     42
                      A                      A                      A
 Frequencies --   1147.1575              1161.3333              1195.4200
 Red. masses --      1.7188                 1.6298                 1.1065
 Frc consts  --      1.3327                 1.2951                 0.9317
 IR Inten    --      2.3888                51.3905                 4.1695

                     43                     44                     45
                      A                      A                      A
 Frequencies --   1202.2812              1221.2146              1226.7020
 Red. masses --      1.7164                 1.3420                 2.4221
 Frc consts  --      1.4618                 1.1792                 2.1474
 IR Inten    --     89.6304                18.7510                 0.4545

                     46                     47                     48
                      A                      A                      A
 Frequencies --   1241.8834              1282.4539              1293.8736
 Red. masses --      1.5613                 1.4030                 1.3474
 Frc consts  --      1.4187                 1.3595                 1.3290
 IR Inten    --     46.7577                 5.4050                12.9808

                     49                     50                     51
                      A                      A                      A
 Frequencies --   1301.9021              1334.9952              1351.9490
 Red. masses --      2.4474                 1.6073                 1.5720
 Frc consts  --      2.4441                 1.6877                 1.6929
 IR Inten    --     76.4764                39.3280                 5.7792

                     52                     53                     54
                      A                      A                      A
 Frequencies --   1359.7095              1372.4564              1383.7640
 Red. masses --      2.2147                 1.5345                 1.6548
 Frc consts  --      2.4124                 1.7030                 1.8669
 IR Inten    --      0.1623                 8.3988                 4.4482

                     55                     56                     57
                      A                      A                      A
 Frequencies --   1396.2749              1404.3478              1412.4820
 Red. masses --      1.4859                 1.8139                 1.9326
 Frc consts  --      1.7068                 2.1077                 2.2717
 IR Inten    --      7.7514                 1.3375                 1.0731

                     58                     59                     60
                      A                      A                      A
 Frequencies --   1484.1529              1498.8650              1502.6690
 Red. masses --      1.0842                 1.3507                 1.7319
 Frc consts  --      1.4070                 1.7878                 2.3041
 IR Inten    --      5.8675                 3.4418                12.5882

                     61                     62                     63
                      A                      A                      A
 Frequencies --   1521.9626              1528.8016              1535.1446
 Red. masses --      1.0921                 1.0958                 2.6649
 Frc consts  --      1.4905                 1.5090                 3.7003
 IR Inten    --      6.0230                 2.7357                 2.5330

                     64                     65                     66
                      A                      A                      A
 Frequencies --   1620.4348              1662.8828              1663.7154
 Red. masses --      5.8252                 6.4799                 6.8551
 Frc consts  --      9.0121                10.5571                11.1794
 IR Inten    --     80.6409                40.9683               137.4902

                     67                     68                     69
                      A                      A                      A
 Frequencies --   1768.1709              2966.6668              3002.2098
 Red. masses --     11.5554                 1.0805                 1.0697
 Frc consts  --     21.2855                 5.6031                 5.6807
 IR Inten    --    132.4585                13.3255                23.7113

                     70                     71                     72
                      A                      A                      A
 Frequencies --   3022.4283              3026.1407              3039.1079
 Red. masses --      1.0708                 1.0668                 1.0623
 Frc consts  --      5.7636                 5.7556                 5.7810
 IR Inten    --      6.1123                29.1463                41.5998

                     73                     74                     75
                      A                      A                      A
 Frequencies --   3076.9680              3082.8420              3085.4280
 Red. masses --      1.0959                 1.0942                 1.1005
 Frc consts  --      6.1131                 6.1271                 6.1725
 IR Inten    --     10.6962                64.9595                50.4603

                     76                     77                     78
                      A                      A                      A
 Frequencies --   3108.9483              3178.5084              3185.8193
 Red. masses --      1.0924                 1.0868                 1.0882
 Frc consts  --      6.2209                 6.4690                 6.5073
 IR Inten    --     21.2510                 8.4890                 0.7080

                     79                     80                     81
                      A                      A                      A
 Frequencies --   3195.4935              3197.7634              3211.7210
 Red. masses --      1.0898                 1.0919                 1.0973
 Frc consts  --      6.5566                 6.5783                 6.6687
 IR Inten    --      0.5349                26.9876                34.0262

 - Thermochemistry -
 -------------------
 Temperature   298.150 Kelvin.  Pressure   1.00000 Atm.
 Atom     1 has atomic number  6 and mass  12.00000

 Molecular mass:   198.10447 amu.
 Principal axes and moments of inertia in atomic units:
                           1         2         3
     Eigenvalues --  1283.950104600.684015754.69975
           X            0.99984   0.01780   0.00021
           Y           -0.01780   0.99984  -0.00340
           Z           -0.00027   0.00340   0.99999
 This molecule is an asymmetric top.
 Rotational symmetry number  1.
 Warning -- assumption of classical behavior for rotation
           may cause significant error
 Rotational temperatures (Kelvin)      0.06746     0.01883     0.01505
 Rotational constants (GHZ):           1.40562     0.39228     0.31361
 Zero-point vibrational energy     645763.3 (Joules/Mol)
                                  154.34114 (Kcal/Mol)
 Warning -- explicit consideration of  18 degrees of freedom as
           vibrations may cause significant error
 Vibrational temperatures:     86.66   114.66   152.30   266.46   311.00
          (Kelvin)            340.65   431.57   476.55   505.75   515.60
                              627.97   639.25   654.01   749.05   762.83
                              789.67   867.60   891.06   912.32   941.96
                             1053.68  1085.09  1116.39  1135.91  1228.11
                             1262.83  1273.05  1315.97  1338.38  1359.20
                             1382.29  1410.09  1419.80  1423.90  1523.49
                             1538.02  1575.99  1595.15  1623.40  1650.50
                             1670.90  1719.94  1729.81  1757.06  1764.95
                             1786.79  1845.17  1861.60  1873.15  1920.76
                             1945.15  1956.32  1974.66  1990.93  2008.93
                             2020.54  2032.25  2135.36  2156.53  2162.01
                             2189.76  2199.60  2208.73  2331.44  2392.52
                             2393.72  2544.00  4268.37  4319.51  4348.60
                             4353.94  4372.60  4427.07  4435.52  4439.24
                             4473.08  4573.16  4583.68  4597.60  4600.87
                             4620.95

 Zero-point correction=                           0.245958 (Hartree/Particle)
 Thermal correction to Energy=                    0.257462
 Thermal correction to Enthalpy=                  0.258406
 Thermal correction to Gibbs Free Energy=         0.208349
 Sum of electronic and zero-point Energies=           -616.971523
 Sum of electronic and thermal Energies=              -616.960020
 Sum of electronic and thermal Enthalpies=            -616.959075
 Sum of electronic and thermal Free Energies=         -617.009132

                     E (Thermal)             CV                S
                      KCal/Mol        Cal/Mol-Kelvin    Cal/Mol-Kelvin
 Total                  161.560             47.571            105.354
 Electronic               0.000              0.000              0.000
 Translational            0.889              2.981             41.756
 Rotational               0.889              2.981             31.897
 Vibrational            159.782             41.609             31.701
 Vibration     1          0.597              1.973              4.450
 Vibration     2          0.600              1.963              3.898
 Vibration     3          0.605              1.945              3.344
 Vibration     4          0.631              1.860              2.275
 Vibration     5          0.645              1.816              1.991
 Vibration     6          0.656              1.784              1.827
 Vibration     7          0.692              1.674              1.417
 Vibration     8          0.714              1.613              1.254
 Vibration     9          0.728              1.572              1.159
 Vibration    10          0.733              1.558              1.129
 Vibration    11          0.797              1.391              0.838
 Vibration    12          0.804              1.373              0.813
 Vibration    13          0.813              1.351              0.782
 Vibration    14          0.876              1.204              0.609
 Vibration    15          0.885              1.183              0.587
 Vibration    16          0.904              1.142              0.547
 Vibration    17          0.961              1.025              0.445
 Vibration    18          0.979              0.991              0.418

 Optimization completed.
    -- Stationary point found.
 Normal termination of Gaussian 16 at Thu Dec 10 16:45:25 2020.

 ----------------------------------------------------------------------
 # B3LYP/6-311++G(d,p) empiricaldispersion=gd3bj scf=xqc pop=npa geom=c
 heck
 ----------------------------------------------------------------------

 --------------------------------------
 CID_10750477_JID_5545_Energie_neutraal
 --------------------------------------
 Structure from the checkpoint file:  "JID_5545.chk"
 Charge =  0 Multiplicity = 1

 SCF Done:  E(RB3LYP) =  -617.376036112     A.U. after   15 cycles
 Normal termination of Gaussian 16 at Thu Dec 10 16:49:28 2020.

 ----------------------------------------------------------------------
 # B3LYP/6-311++G(d,p) empiricaldispersion=gd3bj scf=xqc pop=npa geom=c
 heck
 ----------------------------------------------------------------------

 ------------------------------------
 CID_10750477_JID_5545_Energie_kation
 ------------------------------------
 Structure from the checkpoint file:  "JID_5545.chk"
 Charge =  1 Multiplicity = 2

 SCF Done:  E(UB3LYP) =  -617.082662488     A.U. after   28 cycles
 Normal termination of Gaussian 16 at Thu Dec 10 17:00:15 2020.
 Gaussian 16:  ES64L-G16RevA.03 25-Dec-2016

 ----------------------------------------------------------------------
 # B3LYP/6-311++G(d,p) empiricaldispersion=gd3bj scf=xqc pop=npa geom=c
 heck
 ----------------------------------------------------------------------

 -----------------------------------
 CID_10750477_JID_5545_Energie_anion
 -----------------------------------
 Structure from the checkpoint file:  "JID_5545.chk"
 Charge = -1 Multiplicity = 2

                         Standard orientation:
 ---------------------------------------------------------------------
 Center     Atomic      Atomic             Coordinates (Angstroms)
 Number     Number       Type             X           Y           Z
 ---------------------------------------------------------------------
      1          6           0       -3.361297   -1.091566   -0.501586
      2          6           0       -2.125133   -1.773484    0.089124
      3          6           0       -0.851344   -1.001588   -0.273392
      4          6           0        0.389942   -1.567065    0.428720
      5          6           0        1.627114   -0.743917    0.155948
      6          6           0        2.897959   -1.305641    0.068433
      7          6           0        4.024811   -0.499489   -0.117235
      8          6           0        3.886866    0.886646   -0.207201
      9          6           0        2.621597    1.461388   -0.116841
     10          6           0        1.483771    0.658952    0.053818
     11          6           0        0.151063    1.236577    0.124272
     12          6           0       -0.969657    0.491295   -0.001879
     13          6           0       -2.291694    1.175291    0.062331
     14          8           0       -2.387084    2.394342    0.126458
     15          6           0       -3.542030    0.303626    0.105383
     16          1           0       -4.259455   -1.693781   -0.322976
     17          1           0       -3.247895   -1.012889   -1.591743
     18          1           0       -2.223781   -1.825040    1.183380
     19          1           0       -2.039125   -2.805912   -0.270625
     20          1           0       -0.701759   -1.115317   -1.361467
     21          1           0        0.549355   -2.610490    0.133491
     22          1           0        0.201457   -1.571716    1.514599
     23          1           0        3.011047   -2.384169    0.148663
     24          1           0        5.008641   -0.954699   -0.188123
     25          1           0        4.761368    1.515289   -0.347073
     26          1           0        2.502182    2.539368   -0.189250
     27          1           0        0.046546    2.311010    0.253289
     28          1           0       -4.356825    0.864879   -0.362439
     29          1           0       -3.806896    0.202583    1.169237
 ---------------------------------------------------------------------

 SCF Done:  E(UB3LYP) =  -617.399294371     A.U. after   26 cycles

 The electronic state is 2-A.
 Alpha  occ. eigenvalues --  -18.91945 -10.06894 -10.05176 -10.04863 -10.04432
 Alpha  occ. eigenvalues --  -10.04309 -10.03960 -10.03880 -10.03687 -10.03450
 Alpha  occ. eigenvalues --  -10.03233 -10.03114 -10.03033 -10.00284  -9.99853
 Alpha  occ. eigenvalues --   -0.85877  -0.73166  -0.70129  -0.65935  -0.63100
 Alpha  occ. eigenvalues --   -0.60552  -0.58909  -0.55965  -0.50512  -0.47663
 Alpha  occ. eigenvalues --   -0.46052  -0.45531  -0.41504  -0.37711  -0.36942
 Alpha  occ. eigenvalues --   -0.34029  -0.33249  -0.31502  -0.30941  -0.29833
 Alpha  occ. eigenvalues --   -0.29515  -0.28556  -0.27216  -0.26079  -0.25527
 Alpha  occ. eigenvalues --   -0.24660  -0.23574  -0.23270  -0.22470  -0.21644
 Alpha  occ. eigenvalues --   -0.20799  -0.19662  -0.18212  -0.17523  -0.15196
 Alpha  occ. eigenvalues --   -0.11897  -0.08082  -0.07772   0.03415
 Alpha virt. eigenvalues --    0.08094   0.08555   0.09581   0.10213   0.10494
 Alpha virt. eigenvalues --    0.11282   0.11529   0.12175   0.12661   0.13116
 Alpha virt. eigenvalues --    0.13317   0.13678   0.14622   0.14869   0.15853

  Beta  occ. eigenvalues --  -18.91534 -10.06661 -10.05173 -10.04860 -10.04439
  Beta  occ. eigenvalues --  -10.04312 -10.04015 -10.03941 -10.03524 -10.03475
  Beta  occ. eigenvalues --  -10.03038 -10.02995 -10.02958 -10.00131  -9.99530
  Beta  occ. eigenvalues --   -0.85127  -0.72915  -0.69977  -0.65760  -0.62709
  Beta  occ. eigenvalues --   -0.60397  -0.58454  -0.55820  -0.50223  -0.47244
  Beta  occ. eigenvalues --   -0.45878  -0.45387  -0.41086  -0.37523  -0.36777
  Beta  occ. eigenvalues --   -0.33861  -0.33074  -0.31317  -0.30807  -0.29692
  Beta  occ. eigenvalues --   -0.29346  -0.28250  -0.27075  -0.25677  -0.25111
  Beta  occ. eigenvalues --   -0.24424  -0.23389  -0.22908  -0.22135  -0.21499
  Beta  occ. eigenvalues --   -0.20677  -0.18458  -0.17771  -0.17321  -0.13775
  Beta  occ. eigenvalues --   -0.11353  -0.07638  -0.06166
  Beta virt. eigenvalues --    0.08065   0.08492   0.09096   0.09617   0.10286
  Beta virt. eigenvalues --    0.10465   0.11261   0.11725   0.12174   0.12679
  Beta virt. eigenvalues --    0.13175   0.13402   0.14276   0.14628   0.15495

 Mulliken charges and spin densities:
               1          2
     1  C   -0.161643   0.022764
     2  C   -0.555543  -0.018212
     3  C    0.526637  -0.008327
     4  C   -1.165004  -0.063843
     5  C    0.105892   0.134785
     6  C   -0.423035  -0.071801
     7  C   -0.412677   0.192137
     8  C   -0.361737  -0.037311
     9  C   -0.087904   0.121367
    10  C    0.928829   0.058071
    11  C   -0.373432   0.287757
    12  C    0.511874   0.087337
    13  C   -0.492359   0.110278
    14  O   -0.386337   0.157383
    15  C   -0.337489  -0.013079
    16  H    0.136640   0.011535
    17  H    0.097946  -0.001202
    18  H    0.122586  -0.003059
    19  H    0.114744   0.004775
    20  H    0.143732   0.010064
    21  H    0.097143   0.004640
    22  H    0.138710   0.001422
    23  H    0.100097   0.009124
    24  H    0.107524  -0.015161
    25  H    0.110686   0.002457
    26  H    0.096086  -0.003511
    27  H    0.163155  -0.020595
    28  H    0.144962   0.002310
    29  H    0.109917   0.037897
 Sum of Mulliken charges =  -1.00000   1.00000

 Dipole moment (field-independent basis, Debye):
    X=              0.6121    Y=             -5.2404    Z=             -0.2999  Tot=              5.2846
 Quadrupole moment (field-independent basis, Debye-Ang):
   XX=           -129.6059   YY=           -111.6882   ZZ=            -98.7872
   XY=             12.6384   XZ=              0.8491   YZ=             -1.1609

 Summary of Natural Population Analysis:

                                       Natural Population
                Natural  -----------------------------------------------
    Atom  No    Charge         Core      Valence    Rydberg      Total
 -----------------------------------------------------------------------
      C    1   -0.18669      0.99964     2.18016    0.00690     3.18669
      C    2   -0.18140      0.99962     2.17429    0.00749     3.18140
      C    3   -0.11006      0.99957     2.10216    0.00833     3.11006
      C    4   -0.18916      0.99960     2.18151    0.00805     3.18916
      C    5    0.02883      0.99948     1.96332    0.00837     2.97117
      C    6   -0.12507      0.99952     2.11655    0.00900     3.12507
      C    7   -0.06582      0.99958     2.05665    0.00959     3.06582
      C    8   -0.13267      0.99960     2.12344    0.00963     3.13267
      C    9   -0.05690      0.99943     2.04831    0.00917     3.05690
      C   10   -0.03463      0.99949     2.02631    0.00883     3.03463
      C   11   -0.00998      0.99948     2.00120    0.00930     3.00998
      C   12   -0.03512      0.99945     2.02578    0.00989     3.03512
      C   13    0.29733      0.99960     1.68197    0.02110     2.70267
      O   14   -0.27320      0.99988     3.26592    0.00739     4.27320
      C   15   -0.22733      0.99960     2.21923    0.00850     3.22733
      H   16    0.08890      0.00000     0.40961    0.00148     0.41110
      H   17    0.09059      0.00000     0.40807    0.00134     0.40941
      H   18    0.09007      0.00000     0.40847    0.00146     0.40993
      H   19    0.09003      0.00000     0.40875    0.00122     0.40997
      H   20    0.09138      0.00000     0.40612    0.00250     0.40862
      H   21    0.09231      0.00000     0.40606    0.00163     0.40769
      H   22    0.09778      0.00000     0.40075    0.00147     0.40222
      H   23    0.09001      0.00000     0.40848    0.00151     0.40999
      H   24    0.08644      0.00000     0.41196    0.00160     0.41356
      H   25    0.09051      0.00000     0.40836    0.00114     0.40949
      H   26    0.09153      0.00000     0.40665    0.00183     0.40847
      H   27    0.10111      0.00000     0.39692    0.00198     0.39889
      H   28    0.10190      0.00000     0.39675    0.00135     0.39810
      H   29    0.09931      0.00000     0.39828    0.00242     0.40069
 =======================================================================
   * Total *    0.00000     14.99353    37.84203    0.16444    53.00000

 Normal termination of Gaussian 16 at Thu Dec 10 17:09:14 2020.
