 Gaussian 16, Revision A.03,

 -----------------------------------------------------------
 # opt freq B3LYP/6-31G(d) empiricaldispersion=gd3bj scf=xqc
 -----------------------------------------------------------

 ------------------------------
 CID_45088214_JID_1999_neutraal
 ------------------------------
 Symbolic Z-matrix:
 Charge =  0 Multiplicity = 1

 SCF Done:  E(RB3LYP) =  -444.845325479     A.U. after   14 cycles
 SCF Done:  E(RB3LYP) =  -444.849296844     A.U. after   12 cycles
 SCF Done:  E(RB3LYP) =  -444.849623773     A.U. after   11 cycles
 SCF Done:  E(RB3LYP) =  -444.849784186     A.U. after   10 cycles
 SCF Done:  E(RB3LYP) =  -444.849907065     A.U. after   11 cycles
 SCF Done:  E(RB3LYP) =  -444.849984761     A.U. after   10 cycles
 SCF Done:  E(RB3LYP) =  -444.850126079     A.U. after   10 cycles
 SCF Done:  E(RB3LYP) =  -444.850246378     A.U. after   11 cycles
 SCF Done:  E(RB3LYP) =  -444.850248276     A.U. after    9 cycles
 SCF Done:  E(RB3LYP) =  -444.850250827     A.U. after    9 cycles
 Optimization completed.
    -- Stationary point found.
 Normal termination of Gaussian 16 at Tue Dec  8 21:18:36 2020.

 --------------------------------------------------------------------
 #N Geom=AllCheck Guess=TCheck SCRF=Check GenChk RB3LYP/6-31G(d) Freq
 --------------------------------------------------------------------

 Structure from the checkpoint file:  "JID_1999.chk"
 ------------------------------
 CID_45088214_JID_1999_neutraal
 ------------------------------
 Charge =  0 Multiplicity = 1

 SCF Done:  E(RB3LYP) =  -444.850250827     A.U. after    1 cycles

  Exact polarizability: 129.243   6.389 113.909   0.616  -8.024  75.556
 Approx polarizability: 161.191  15.121 182.883   0.218 -18.173 115.309

                      1                      2                      3
                      A                      A                      A
 Frequencies --     72.2059                81.8567               126.5256
 Red. masses --      3.0309                 3.1660                 2.4066
 Frc consts  --      0.0093                 0.0125                 0.0227
 IR Inten    --      0.3850                 1.3779                 0.6752

                      4                      5                      6
                      A                      A                      A
 Frequencies --    161.0201               182.8795               233.6674
 Red. masses --      3.2244                 2.2089                 1.0569
 Frc consts  --      0.0493                 0.0435                 0.0340
 IR Inten    --      0.2420                 5.4534                 0.0305

                      7                      8                      9
                      A                      A                      A
 Frequencies --    255.9918               266.4158               339.4758
 Red. masses --      2.6203                 2.7574                 2.6882
 Frc consts  --      0.1012                 0.1153                 0.1825
 IR Inten    --      1.3286                 1.1140                 2.7650

                     10                     11                     12
                      A                      A                      A
 Frequencies --    410.2232               417.4461               470.5065
 Red. masses --      2.1421                 3.1589                 3.4871
 Frc consts  --      0.2124                 0.3243                 0.4548
 IR Inten    --      0.1803                 1.0044                 1.8726

                     13                     14                     15
                      A                      A                      A
 Frequencies --    638.0239               677.5945               685.3048
 Red. masses --      3.1742                 1.8221                 1.2403
 Frc consts  --      0.7613                 0.4929                 0.3432
 IR Inten    --      1.5194                15.7811                19.2923

                     16                     17                     18
                      A                      A                      A
 Frequencies --    760.9535               774.9604               804.4149
 Red. masses --      2.4474                 2.0814                 4.4025
 Frc consts  --      0.8350                 0.7365                 1.6785
 IR Inten    --     12.6896                10.9979                 2.2770

                     19                     20                     21
                      A                      A                      A
 Frequencies --    815.3090               845.7410               907.1857
 Red. masses --      3.0376                 2.4074                 2.2334
 Frc consts  --      1.1897                 1.0145                 1.0829
 IR Inten    --      1.8000                 1.5124                 3.9816

                     22                     23                     24
                      A                      A                      A
 Frequencies --    933.7042               956.3821               960.8712
 Red. masses --      2.4651                 1.1848                 1.7820
 Frc consts  --      1.2662                 0.6385                 0.9694
 IR Inten    --      1.9431                 0.1782                 4.8309

                     25                     26                     27
                      A                      A                      A
 Frequencies --    969.8553               988.6633              1004.2796
 Red. masses --      2.1517                 1.7398                 2.5557
 Frc consts  --      1.1925                 1.0019                 1.5187
 IR Inten    --      1.4343                 3.5335                 0.8818

                     28                     29                     30
                      A                      A                      A
 Frequencies --   1036.3301              1042.2534              1062.4535
 Red. masses --      1.9181                 1.6007                 1.6417
 Frc consts  --      1.2137                 1.0245                 1.0918
 IR Inten    --      2.2397                13.5429                 1.0828

                     31                     32                     33
                      A                      A                      A
 Frequencies --   1068.0608              1107.1884              1128.0711
 Red. masses --      1.6387                 1.7062                 1.4408
 Frc consts  --      1.1014                 1.2323                 1.0803
 IR Inten    --      2.1730                 3.2965                 0.8784

                     34                     35                     36
                      A                      A                      A
 Frequencies --   1139.9494              1196.4292              1205.1572
 Red. masses --      1.1270                 1.1423                 1.4538
 Frc consts  --      0.8628                 0.9634                 1.2441
 IR Inten    --      0.0044                 4.7038                12.1797

                     37                     38                     39
                      A                      A                      A
 Frequencies --   1209.2344              1225.0971              1233.6660
 Red. masses --      1.4834                 1.7414                 1.5267
 Frc consts  --      1.2780                 1.5399                 1.3690
 IR Inten    --     10.0248                17.6973                 3.2059

                     40                     41                     42
                      A                      A                      A
 Frequencies --   1308.7702              1318.7098              1340.3563
 Red. masses --      1.4603                 1.4266                 1.6260
 Frc consts  --      1.4737                 1.4617                 1.7211
 IR Inten    --      1.8107                 4.4614                17.0150

                     43                     44                     45
                      A                      A                      A
 Frequencies --   1342.0640              1361.0591              1370.6511
 Red. masses --      1.3435                 1.8129                 1.3285
 Frc consts  --      1.4257                 1.9787                 1.4705
 IR Inten    --     10.8244                21.0249                 5.4210

                     46                     47                     48
                      A                      A                      A
 Frequencies --   1384.0602              1407.6098              1425.1406
 Red. masses --      1.9084                 1.9453                 1.8418
 Frc consts  --      2.1539                 2.2710                 2.2040
 IR Inten    --      6.1332                27.1577                63.8578

                     49                     50                     51
                      A                      A                      A
 Frequencies --   1441.3222              1514.3990              1525.2549
 Red. masses --      1.9090                 1.0774                 1.0578
 Frc consts  --      2.3366                 1.4558                 1.4499
 IR Inten    --     76.6359                 7.3051                 2.7140

                     52                     53                     54
                      A                      A                      A
 Frequencies --   1529.4216              1539.2660              1543.1767
 Red. masses --      1.0604                 1.1009                 1.0809
 Frc consts  --      1.4615                 1.5368                 1.5166
 IR Inten    --      2.9396                 5.4408                 3.6319

                     55                     56                     57
                      A                      A                      A
 Frequencies --   1553.0857              1702.6231              1718.1638
 Red. masses --      1.0959                 6.5249                 6.4406
 Frc consts  --      1.5574                11.1444                11.2022
 IR Inten    --     18.3741               108.5601                59.6437

                     58                     59                     60
                      A                      A                      A
 Frequencies --   2945.8735              2966.0958              2992.1039
 Red. masses --      1.0744                 1.0736                 1.0733
 Frc consts  --      5.4934                 5.5649                 5.6614
 IR Inten    --     59.4204                61.4292                76.7102

                     61                     62                     63
                      A                      A                      A
 Frequencies --   3010.6871              3017.3010              3033.5892
 Red. masses --      1.0850                 1.0879                 1.0818
 Frc consts  --      5.7944                 5.8352                 5.8657
 IR Inten    --     45.3226                48.7909                24.9608

                     64                     65                     66
                      A                      A                      A
 Frequencies --   3046.0406              3046.7852              3065.6070
 Red. masses --      1.0656                 1.0544                 1.0644
 Frc consts  --      5.8252                 5.7668                 5.8936
 IR Inten    --     14.5331                62.4384                62.5888

                     67                     68                     69
                      A                      A                      A
 Frequencies --   3102.6560              3115.2403              3119.6086
 Red. masses --      1.1059                 1.1027                 1.1021
 Frc consts  --      6.2726                 6.3052                 6.3196
 IR Inten    --     40.7291                40.2145                37.1945

                     70                     71                     72
                      A                      A                      A
 Frequencies --   3215.6681              3218.6445              3241.0792
 Red. masses --      1.0920                 1.0862                 1.1046
 Frc consts  --      6.6529                 6.6298                 6.8367
 IR Inten    --     21.7587                 4.2889                22.6573

 - Thermochemistry -
 -------------------
 Temperature   298.150 Kelvin.  Pressure   1.00000 Atm.
 Atom     1 has atomic number  6 and mass  12.00000

 Molecular mass:   149.12045 amu.
 Principal axes and moments of inertia in atomic units:
                           1         2         3
     Eigenvalues --   764.829022444.190952913.99199
           X            0.99998  -0.00549  -0.00178
           Y            0.00549   0.99998  -0.00157
           Z            0.00179   0.00156   1.00000
 This molecule is an asymmetric top.
 Rotational symmetry number  1.
 Warning -- assumption of classical behavior for rotation
           may cause significant error
 Rotational temperatures (Kelvin)      0.11325     0.03544     0.02972
 Rotational constants (GHZ):           2.35967     0.73838     0.61934
 Zero-point vibrational energy     609242.9 (Joules/Mol)
                                  145.61255 (Kcal/Mol)
 Warning -- explicit consideration of  12 degrees of freedom as
           vibrations may cause significant error
 Vibrational temperatures:    103.89   117.77   182.04   231.67   263.12
          (Kelvin)            336.20   368.32   383.31   488.43   590.22
                              600.61   676.95   917.97   974.91   986.00
                             1094.84  1115.00  1157.37  1173.05  1216.83
                             1305.24  1343.39  1376.02  1382.48  1395.41
                             1422.47  1444.93  1491.05  1499.57  1528.63
                             1536.70  1593.00  1623.04  1640.13  1721.39
                             1733.95  1739.82  1762.64  1774.97  1883.03
                             1897.33  1928.47  1930.93  1958.26  1972.06
                             1991.35  2025.24  2050.46  2073.74  2178.88
                             2194.50  2200.50  2214.66  2220.29  2234.54
                             2449.69  2472.05  4238.45  4267.55  4304.97
                             4331.71  4341.22  4364.66  4382.57  4383.64
                             4410.72  4464.03  4482.14  4488.42  4626.63
                             4630.91  4663.19

 Zero-point correction=                           0.232048 (Hartree/Particle)
 Thermal correction to Energy=                    0.242462
 Thermal correction to Enthalpy=                  0.243406
 Thermal correction to Gibbs Free Energy=         0.196128
 Sum of electronic and zero-point Energies=           -444.618202
 Sum of electronic and thermal Energies=              -444.607789
 Sum of electronic and thermal Enthalpies=            -444.606845
 Sum of electronic and thermal Free Energies=         -444.654123

                     E (Thermal)             CV                S
                      KCal/Mol        Cal/Mol-Kelvin    Cal/Mol-Kelvin
 Total                  152.147             40.257             99.505
 Electronic               0.000              0.000              0.000
 Translational            0.889              2.981             40.909
 Rotational               0.889              2.981             30.078
 Vibrational            150.370             34.295             28.518
 Vibration     1          0.598              1.967              4.092
 Vibration     2          0.600              1.962              3.846
 Vibration     3          0.611              1.927              2.998
 Vibration     4          0.622              1.890              2.538
 Vibration     5          0.630              1.863              2.299
 Vibration     6          0.654              1.789              1.851
 Vibration     7          0.666              1.753              1.689
 Vibration     8          0.672              1.735              1.619
 Vibration     9          0.719              1.597              1.215
 Vibration    10          0.774              1.448              0.926
 Vibration    11          0.780              1.432              0.901
 Vibration    12          0.828              1.315              0.736

                           ! Non-Optimized Parameters !
 Normal termination of Gaussian 16 at Tue Dec  8 21:26:11 2020.

 ----------------------------------------------------------------------
 # B3LYP/6-311++G(d,p) empiricaldispersion=gd3bj scf=xqc pop=npa geom=c
 heck
 ----------------------------------------------------------------------

 --------------------------------------
 CID_45088214_JID_1999_Energie_neutraal
 --------------------------------------
 Structure from the checkpoint file:  "JID_1999.chk"
 Charge =  0 Multiplicity = 1

 SCF Done:  E(RB3LYP) =  -444.969493292     A.U. after   15 cycles
 Normal termination of Gaussian 16 at Tue Dec  8 21:30:19 2020.

 ----------------------------------------------------------------------
 # B3LYP/6-311++G(d,p) empiricaldispersion=gd3bj scf=xqc pop=npa geom=c
 heck
 ----------------------------------------------------------------------

 ------------------------------------
 CID_45088214_JID_1999_Energie_kation
 ------------------------------------
 Structure from the checkpoint file:  "JID_1999.chk"
 Charge =  1 Multiplicity = 2

 SCF Done:  E(UB3LYP) =  -444.715647089     A.U. after   17 cycles
 Normal termination of Gaussian 16 at Tue Dec  8 21:35:39 2020.
 Gaussian 16:  ES64L-G16RevA.03 25-Dec-2016

 ----------------------------------------------------------------------
 # B3LYP/6-311++G(d,p) empiricaldispersion=gd3bj scf=xqc pop=npa geom=c
 heck
 ----------------------------------------------------------------------

 -----------------------------------
 CID_45088214_JID_1999_Energie_anion
 -----------------------------------
 Structure from the checkpoint file:  "JID_1999.chk"
 Charge = -1 Multiplicity = 2

                         Standard orientation:
 ---------------------------------------------------------------------
 Center     Atomic      Atomic             Coordinates (Angstroms)
 Number     Number       Type             X           Y           Z
 ---------------------------------------------------------------------
      1          6           0       -1.558029    1.727415    0.992196
      2          6           0       -1.395389    0.874290   -0.277424
      3          6           0       -2.698822    0.148226   -0.689382
      4          6           0       -2.605547   -1.258966   -0.049457
      5          6           0       -1.117106   -1.453928    0.106838
      6          6           0       -0.447009   -0.290539   -0.035506
      7          7           0        0.902111   -0.067832    0.132759
      8          6           0        1.806055   -1.187844    0.370643
      9          6           0        3.159809   -0.578404    0.130145
     10          6           0        3.048521    0.665700   -0.333447
     11          6           0        1.604401    1.067591   -0.469773
     12          1           0       -1.965489    1.120675    1.808691
     13          1           0       -2.240157    2.566765    0.813977
     14          1           0       -0.598139    2.133128    1.329570
     15          1           0       -1.038876    1.524329   -1.087539
     16          1           0       -3.594727    0.701503   -0.387450
     17          1           0       -2.725617    0.046199   -1.779936
     18          1           0       -3.129415   -1.295112    0.919464
     19          1           0       -3.078972   -2.023381   -0.679543
     20          1           0       -0.670214   -2.406230    0.370411
     21          1           0        1.680172   -1.585583    1.389543
     22          1           0        1.606344   -2.027298   -0.321529
     23          1           0        4.083893   -1.117975    0.306236
     24          1           0        3.863683    1.327851   -0.603894
     25          1           0        1.333472    1.219917   -1.529295
     26          1           0        1.377955    2.008796    0.052977
 ---------------------------------------------------------------------

 SCF Done:  E(UB3LYP) =  -444.953142344     A.U. after   33 cycles
 SCF Done:  E(UB3LYP) =  -444.953142344     a.u. after    1 cycles

 The electronic state is 2-A.
 Alpha  occ. eigenvalues --  -14.21804 -10.09904 -10.09822 -10.09104 -10.07325
 Alpha  occ. eigenvalues --  -10.06979 -10.06892 -10.06413 -10.06287 -10.05581
 Alpha  occ. eigenvalues --  -10.03842  -0.85025  -0.74309  -0.68485  -0.64314
 Alpha  occ. eigenvalues --   -0.62530  -0.58984  -0.55078  -0.50721  -0.47252
 Alpha  occ. eigenvalues --   -0.44144  -0.43909  -0.40408  -0.37217  -0.36058
 Alpha  occ. eigenvalues --   -0.34444  -0.32964  -0.30810  -0.30419  -0.29801
 Alpha  occ. eigenvalues --   -0.29210  -0.27943  -0.27449  -0.26053  -0.24209
 Alpha  occ. eigenvalues --   -0.23471  -0.22881  -0.22180  -0.18977  -0.14552
 Alpha  occ. eigenvalues --   -0.08359   0.04648
 Alpha virt. eigenvalues --    0.06797   0.07440   0.08170   0.08881   0.08977
 Alpha virt. eigenvalues --    0.10355   0.10495   0.10720   0.10915   0.11184
 Alpha virt. eigenvalues --    0.11689   0.12631   0.13586   0.14096   0.14429

  Beta  occ. eigenvalues --  -14.21805 -10.09873 -10.09802 -10.09104 -10.07315
  Beta  occ. eigenvalues --  -10.06960 -10.06874 -10.06405 -10.06274 -10.05555
  Beta  occ. eigenvalues --  -10.03837  -0.85009  -0.74291  -0.68458  -0.64280
  Beta  occ. eigenvalues --   -0.62485  -0.58957  -0.55032  -0.50675  -0.47209
  Beta  occ. eigenvalues --   -0.44086  -0.43852  -0.40381  -0.37186  -0.36031
  Beta  occ. eigenvalues --   -0.34397  -0.32932  -0.30780  -0.30385  -0.29775
  Beta  occ. eigenvalues --   -0.29165  -0.27915  -0.27422  -0.26008  -0.24186
  Beta  occ. eigenvalues --   -0.23448  -0.22858  -0.22153  -0.18959  -0.14526
  Beta  occ. eigenvalues --   -0.08342
  Beta virt. eigenvalues --    0.06809   0.07726   0.08187   0.08611   0.09539
  Beta virt. eigenvalues --    0.09570   0.10527   0.10842   0.10896   0.11320
  Beta virt. eigenvalues --    0.11637   0.12142   0.12919   0.13760   0.14297

 Mulliken charges and spin densities:
               1          2
     1  C    1.192958  -1.824685
     2  C   -1.386951   1.671432
     3  C   -0.494412   0.150527
     4  C    0.030263  -0.905291
     5  C   -1.222325   1.716261
     6  C    0.647127  -1.098899
     7  N    0.111347   0.121256
     8  C    1.425462  -1.621765
     9  C    0.354603  -0.632706
    10  C    0.742734  -0.834198
    11  C    1.100660  -1.514300
    12  H   -0.047433   0.196762
    13  H   -0.224507   0.365731
    14  H   -0.148011   0.286596
    15  H   -0.392715   0.588268
    16  H   -0.008942   0.147463
    17  H   -0.068157   0.214991
    18  H    0.028616   0.085939
    19  H    0.055303   0.075282
    20  H   -0.191914   0.345771
    21  H   -0.074409   0.237037
    22  H   -0.092677   0.214399
    23  H   -0.894722   1.080077
    24  H   -1.082281   1.284182
    25  H   -0.180560   0.329936
    26  H   -0.179058   0.319933
 Sum of Mulliken charges =  -1.00000   1.00000

 Dipole moment (field-independent basis, Debye):
    X=             -5.4543    Y=             -2.2794    Z=              0.6200  Tot=              5.9438
 Quadrupole moment (field-independent basis, Debye-Ang):
   XX=           -138.2746   YY=           -113.5102   ZZ=           -100.2396
   XY=              0.7641   XZ=              1.2020   YZ=              1.7235

 Summary of Natural Population Analysis:

                                       Natural Population
                Natural  -----------------------------------------------
    Atom  No    Charge         Core      Valence    Rydberg      Total
 -----------------------------------------------------------------------
      C    1   -0.28265      0.99965     2.27568    0.00732     3.28265
      C    2   -0.12493      0.99958     2.11430    0.01106     3.12493
      C    3   -0.18057      0.99963     2.17361    0.00733     3.18057
      C    4   -0.19635      0.99964     2.18937    0.00733     3.19635
      C    5   -0.15753      0.99948     2.14961    0.00844     3.15753
      C    6    0.11017      0.99945     1.87769    0.01269     2.88983
      N    7   -0.25702      0.99964     2.74527    0.01211     3.75702
      C    8   -0.09430      0.99962     2.08196    0.01272     3.09430
      C    9   -0.09535      0.99951     2.08613    0.00971     3.09535
      C   10   -0.09190      0.99951     2.08258    0.00981     3.09190
      C   11   -0.09237      0.99961     2.08115    0.01161     3.09237
      H   12    0.09663      0.00000     0.40225    0.00111     0.40337
      H   13    0.09732      0.00000     0.40160    0.00108     0.40268
      H   14    0.10219      0.00000     0.39661    0.00121     0.39781
      H   15    0.10146      0.00000     0.39627    0.00226     0.39854
      H   16    0.09511      0.00000     0.40373    0.00115     0.40489
      H   17    0.09744      0.00000     0.40118    0.00138     0.40256
      H   18    0.08873      0.00000     0.40949    0.00178     0.41127
      H   19    0.09305      0.00000     0.40524    0.00172     0.40695
      H   20    0.09930      0.00000     0.39968    0.00102     0.40070
      H   21    0.09706      0.00000     0.40121    0.00173     0.40294
      H   22    0.09261      0.00000     0.40543    0.00197     0.40739
      H   23    0.10360      0.00000     0.39417    0.00224     0.39640
      H   24    0.10482      0.00000     0.39239    0.00279     0.39518
      H   25    0.09405      0.00000     0.40391    0.00204     0.40595
      H   26    0.09943      0.00000     0.39830    0.00227     0.40057
 =======================================================================
   * Total *    0.00000     10.99533    29.86880    0.13587    41.00000

 Normal termination of Gaussian 16 at Tue Dec  8 21:49:03 2020.
