 Gaussian 16, Revision A.03,

 -----------------------------------------------------------
 # opt freq B3LYP/6-31G(d) empiricaldispersion=gd3bj scf=xqc
 -----------------------------------------------------------

 ------------------------------
 CID_19684307_JID_2556_neutraal
 ------------------------------
 Symbolic Z-matrix:
 Charge =  0 Multiplicity = 1

 SCF Done:  E(RB3LYP) =  -948.096363945     A.U. after   15 cycles
 SCF Done:  E(RB3LYP) =  -948.108250575     A.U. after   12 cycles
 SCF Done:  E(RB3LYP) =  -948.109490908     A.U. after   12 cycles
 SCF Done:  E(RB3LYP) =  -948.109859560     A.U. after   12 cycles
 SCF Done:  E(RB3LYP) =  -948.110125304     A.U. after   12 cycles
 SCF Done:  E(RB3LYP) =  -948.110282710     A.U. after   11 cycles
 SCF Done:  E(RB3LYP) =  -948.110436608     A.U. after   12 cycles
 SCF Done:  E(RB3LYP) =  -948.110631827     A.U. after   11 cycles
 SCF Done:  E(RB3LYP) =  -948.110676687     A.U. after   11 cycles
 SCF Done:  E(RB3LYP) =  -948.110745331     A.U. after   11 cycles
 SCF Done:  E(RB3LYP) =  -948.110811990     A.U. after    8 cycles
 SCF Done:  E(RB3LYP) =  -948.110812253     A.U. after    8 cycles
 SCF Done:  E(RB3LYP) =  -948.110812462     A.U. after    8 cycles
 SCF Done:  E(RB3LYP) =  -948.110812509     A.U. after    7 cycles
 Optimization completed.
    -- Stationary point found.
 Normal termination of Gaussian 16 at Wed Dec  9 17:46:47 2020.

 --------------------------------------------------------------------
 #N Geom=AllCheck Guess=TCheck SCRF=Check GenChk RB3LYP/6-31G(d) Freq
 --------------------------------------------------------------------

 Structure from the checkpoint file:  "JID_2556.chk"
 ------------------------------
 CID_19684307_JID_2556_neutraal
 ------------------------------
 Charge =  0 Multiplicity = 1

 SCF Done:  E(RB3LYP) =  -948.110812509     A.U. after    1 cycles

  Exact polarizability: 127.332  -5.529  99.462   3.765  -4.523  77.578
 Approx polarizability: 172.509  -2.561 162.260  11.551 -14.217 123.113

                      1                      2                      3
                      A                      A                      A
 Frequencies --     25.5614                60.0479                66.2306
 Red. masses --      4.1669                 1.1180                 3.1353
 Frc consts  --      0.0016                 0.0024                 0.0081
 IR Inten    --      3.8166                 0.0050                 1.8948

                      4                      5                      6
                      A                      A                      A
 Frequencies --    113.1107               116.8053               157.0714
 Red. masses --      1.2874                 1.9973                 1.9072
 Frc consts  --      0.0097                 0.0161                 0.0277
 IR Inten    --      0.0742                 0.2024                 1.8305

                      7                      8                      9
                      A                      A                      A
 Frequencies --    183.4481               208.2860               218.3485
 Red. masses --      1.7589                 3.0680                 4.9379
 Frc consts  --      0.0349                 0.0784                 0.1387
 IR Inten    --      1.3576                 5.9842                 1.0493

                     10                     11                     12
                      A                      A                      A
 Frequencies --    250.8005               285.0863               313.7541
 Red. masses --      3.1947                 2.7789                 4.0733
 Frc consts  --      0.1184                 0.1331                 0.2363
 IR Inten    --      3.4508                 4.1961                 2.1110

                     13                     14                     15
                      A                      A                      A
 Frequencies --    336.6797               362.1749               432.7590
 Red. masses --      6.8537                 6.7380                 6.1926
 Frc consts  --      0.4577                 0.5207                 0.6833
 IR Inten    --      1.5976                 1.3479                14.7874

                     16                     17                     18
                      A                      A                      A
 Frequencies --    511.9996               514.2041               569.5961
 Red. masses --      5.1423                 3.5423                 5.7385
 Frc consts  --      0.7942                 0.5518                 1.0969
 IR Inten    --      8.6017                16.9513               108.2892

                     19                     20                     21
                      A                      A                      A
 Frequencies --    626.7321               650.5481               676.2431
 Red. masses --      2.6011                 6.2986                 4.2866
 Frc consts  --      0.6020                 1.5706                 1.1550
 IR Inten    --    122.2098                 5.0348                29.0897

                     22                     23                     24
                      A                      A                      A
 Frequencies --    679.3705               767.3493               836.2656
 Red. masses --      4.7442                 4.3060                 2.0788
 Frc consts  --      1.2901                 1.4939                 0.8565
 IR Inten    --     17.8321                18.9062               156.2823

                     25                     26                     27
                      A                      A                      A
 Frequencies --    873.9180               963.5331              1041.0932
 Red. masses --      1.3150                 2.7119                 1.8487
 Frc consts  --      0.5917                 1.4834                 1.1806
 IR Inten    --     12.0377                22.6551                13.0985

                     28                     29                     30
                      A                      A                      A
 Frequencies --   1071.9433              1080.2373              1092.1390
 Red. masses --      3.1637                 1.4900                 3.5088
 Frc consts  --      2.1419                 1.0244                 2.4658
 IR Inten    --     50.7632                 1.7988                64.4934

                     31                     32                     33
                      A                      A                      A
 Frequencies --   1125.1709              1154.9671              1158.6528
 Red. masses --      5.0061                 1.3403                 1.3037
 Frc consts  --      3.7341                 1.0534                 1.0312
 IR Inten    --     89.0707                12.8203                 0.2810

                     34                     35                     36
                      A                      A                      A
 Frequencies --   1166.5515              1198.5700              1222.4967
 Red. masses --      1.5766                 1.4700                 3.6340
 Frc consts  --      1.2641                 1.2442                 3.1999
 IR Inten    --      9.4941                41.6870                 1.0228

                     37                     38                     39
                      A                      A                      A
 Frequencies --   1307.3963              1322.5417              1383.4094
 Red. masses --     11.4065                 4.6404                 5.8854
 Frc consts  --     11.4873                 4.7822                 6.6363
 IR Inten    --    163.2858                 7.0746                14.8079

                     40                     41                     42
                      A                      A                      A
 Frequencies --   1427.6384              1441.7085              1442.6946
 Red. masses --      1.3198                 2.3421                 1.3613
 Frc consts  --      1.5849                 2.8682                 1.6694
 IR Inten    --     43.7611                34.9048                14.8791

                     43                     44                     45
                      A                      A                      A
 Frequencies --   1475.6489              1477.1831              1498.4880
 Red. masses --      1.2105                 1.3566                 1.8989
 Frc consts  --      1.5530                 1.7442                 2.5123
 IR Inten    --      1.1909                 7.4982                33.4778

                     46                     47                     48
                      A                      A                      A
 Frequencies --   1512.0467              1518.4623              1520.4850
 Red. masses --      1.0446                 1.0635                 1.4164
 Frc consts  --      1.4071                 1.4448                 1.9292
 IR Inten    --      2.9589                 5.1735                 1.1690

                     49                     50                     51
                      A                      A                      A
 Frequencies --   1527.9235              1538.4427              1540.6037
 Red. masses --      1.0588                 1.4050                 1.0444
 Frc consts  --      1.4564                 1.9592                 1.4605
 IR Inten    --     18.7313                38.0865                 7.3746

                     52                     53                     54
                      A                      A                      A
 Frequencies --   1591.0923              3048.3700              3056.2483
 Red. masses --      4.7309                 1.0412                 1.0351
 Frc consts  --      7.0564                 5.7005                 5.6965
 IR Inten    --     46.1548                20.2678                36.8883

                     55                     56                     57
                      A                      A                      A
 Frequencies --   3065.9751              3098.0408              3127.0628
 Red. masses --      1.0358                 1.1011                 1.1058
 Frc consts  --      5.7367                 6.2266                 6.3710
 IR Inten    --     39.3306                12.9981                15.4147

                     58                     59                     60
                      A                      A                      A
 Frequencies --   3129.9720              3151.2577              3184.8926
 Red. masses --      1.1022                 1.1047                 1.0970
 Frc consts  --      6.3622                 6.4632                 6.5560
 IR Inten    --     16.0382                16.1188                 1.6041

                     61                     62                     63
                      A                      A                      A
 Frequencies --   3193.7544              3285.8210              3525.6529
 Red. masses --      1.1010                 1.0970                 1.0750
 Frc consts  --      6.6166                 6.9782                 7.8732
 IR Inten    --      1.0930                 0.6220                27.6276

 - Thermochemistry -
 -------------------
 Temperature   298.150 Kelvin.  Pressure   1.00000 Atm.
 Atom     1 has atomic number  6 and mass  12.00000

 Molecular mass:   189.05720 amu.
 Principal axes and moments of inertia in atomic units:
                           1         2         3
     Eigenvalues --  1212.039123127.649003448.61498
           X            0.99924  -0.03730  -0.01162
           Y            0.03737   0.99928   0.00611
           Z            0.01139  -0.00654   0.99991
 This molecule is an asymmetric top.
 Rotational symmetry number  1.
 Warning -- assumption of classical behavior for rotation
           may cause significant error
 Rotational temperatures (Kelvin)      0.07146     0.02769     0.02512
 Rotational constants (GHZ):           1.48901     0.57703     0.52332
 Zero-point vibrational energy     481524.2 (Joules/Mol)
                                  115.08704 (Kcal/Mol)
 Warning -- explicit consideration of  18 degrees of freedom as
           vibrations may cause significant error
 Vibrational temperatures:     36.78    86.40    95.29   162.74   168.06
          (Kelvin)            225.99   263.94   299.68   314.15   360.85
                              410.18   451.42   484.41   521.09   622.64
                              736.65   739.82   819.52   901.73   935.99
                              972.96   977.46  1104.04  1203.20  1257.37
                             1386.31  1497.90  1542.29  1554.22  1571.34
                             1618.87  1661.74  1667.04  1678.41  1724.47
                             1758.90  1881.05  1902.84  1990.42  2054.05
                             2074.30  2075.72  2123.13  2125.34  2155.99
                             2175.50  2184.73  2187.64  2198.34  2213.48
                             2216.59  2289.23  4385.92  4397.26  4411.25
                             4457.39  4499.15  4503.33  4533.96  4582.35
                             4595.10  4727.56  5072.63

 Zero-point correction=                           0.183403 (Hartree/Particle)
 Thermal correction to Energy=                    0.196489
 Thermal correction to Enthalpy=                  0.197433
 Thermal correction to Gibbs Free Energy=         0.142729
 Sum of electronic and zero-point Energies=           -947.927410
 Sum of electronic and thermal Energies=              -947.914324
 Sum of electronic and thermal Enthalpies=            -947.913379
 Sum of electronic and thermal Free Energies=         -947.968083

                     E (Thermal)             CV                S
                      KCal/Mol        Cal/Mol-Kelvin    Cal/Mol-Kelvin
 Total                  123.299             46.217            115.134
 Electronic               0.000              0.000              0.000
 Translational            0.889              2.981             41.616
 Rotational               0.889              2.981             30.948
 Vibrational            121.521             40.256             42.570
 Vibration     1          0.593              1.985              6.147
 Vibration     2          0.597              1.973              4.456
 Vibration     3          0.598              1.970              4.262
 Vibration     4          0.607              1.939              3.215
 Vibration     5          0.608              1.935              3.153
 Vibration     6          0.621              1.895              2.585
 Vibration     7          0.631              1.862              2.293
 Vibration     8          0.642              1.828              2.059
 Vibration     9          0.646              1.813              1.973
 Vibration    10          0.663              1.761              1.725
 Vibration    11          0.683              1.701              1.503
 Vibration    12          0.702              1.647              1.342
 Vibration    13          0.717              1.602              1.228
 Vibration    14          0.736              1.550              1.113
 Vibration    15          0.794              1.399              0.850
 Vibration    16          0.867              1.223              0.629
 Vibration    17          0.869              1.219              0.624
 Vibration    18          0.926              1.097              0.505

 Optimization completed.
    -- Stationary point found.
 Normal termination of Gaussian 16 at Wed Dec  9 17:52:01 2020.

 ----------------------------------------------------------------------
 # B3LYP/6-311++G(d,p) empiricaldispersion=gd3bj scf=xqc pop=npa geom=c
 heck
 ----------------------------------------------------------------------

 --------------------------------------
 CID_19684307_JID_2556_Energie_neutraal
 --------------------------------------
 Structure from the checkpoint file:  "JID_2556.chk"
 Charge =  0 Multiplicity = 1

 SCF Done:  E(RB3LYP) =  -948.294685259     A.U. after   16 cycles
 Normal termination of Gaussian 16 at Wed Dec  9 17:54:43 2020.

 ----------------------------------------------------------------------
 # B3LYP/6-311++G(d,p) empiricaldispersion=gd3bj scf=xqc pop=npa geom=c
 heck
 ----------------------------------------------------------------------

 ------------------------------------
 CID_19684307_JID_2556_Energie_kation
 ------------------------------------
 Structure from the checkpoint file:  "JID_2556.chk"
 Charge =  1 Multiplicity = 2

 SCF Done:  E(UB3LYP) =  -947.961734168     A.U. after   33 cycles
 SCF Done:  E(UB3LYP) =  -947.961734168     a.u. after    2 cycles
 Normal termination of Gaussian 16 at Wed Dec  9 18:08:13 2020.
 Gaussian 16:  ES64L-G16RevA.03 25-Dec-2016

 ----------------------------------------------------------------------
 # B3LYP/6-311++G(d,p) empiricaldispersion=gd3bj scf=xqc pop=npa geom=c
 heck
 ----------------------------------------------------------------------

 -----------------------------------
 CID_19684307_JID_2556_Energie_anion
 -----------------------------------
 Structure from the checkpoint file:  "JID_2556.chk"
 Charge = -1 Multiplicity = 2

                         Standard orientation:
 ---------------------------------------------------------------------
 Center     Atomic      Atomic             Coordinates (Angstroms)
 Number     Number       Type             X           Y           Z
 ---------------------------------------------------------------------
      1          6           0       -1.512992    1.949204   -0.492154
      2          6           0       -1.319730    0.522844   -0.099330
      3          6           0       -0.187970   -0.216069    0.244363
      4          6           0       -0.651602   -1.522599    0.531569
      5          7           0       -1.963413   -1.608551    0.367092
      6          7           0       -2.350249   -0.357109   -0.009166
      7          6           0       -3.751516   -0.095544   -0.278190
      8         16           0        1.454451    0.371941    0.416206
      9          8           0        1.585569    1.576936   -0.418944
     10          8           0        1.862149    0.417476    1.823045
     11          7           0        2.310502   -0.930648   -0.237386
     12          6           0        2.394699   -0.982375   -1.701237
     13          1           0       -0.544333    2.443381   -0.563514
     14          1           0       -2.018549    2.025881   -1.462339
     15          1           0       -2.127728    2.480884    0.244620
     16          1           0       -0.069357   -2.382260    0.829633
     17          1           0       -4.125665    0.703950    0.368651
     18          1           0       -3.900728    0.190566   -1.324409
     19          1           0       -4.292649   -1.017844   -0.070871
     20          1           0        3.214469   -0.954402    0.231692
     21          1           0        2.877505   -0.101825   -2.140286
     22          1           0        2.948424   -1.884366   -1.974019
     23          1           0        1.382446   -1.068938   -2.105151
 ---------------------------------------------------------------------

 SCF Done:  E(UB3LYP) =  -948.285483810     A.U. after   33 cycles
 SCF Done:  E(UB3LYP) =  -948.285483810     a.u. after    1 cycles

 The electronic state is 2-A.
 Alpha  occ. eigenvalues --  -88.97330 -19.02223 -19.02223 -14.30582 -14.25223
 Alpha  occ. eigenvalues --  -14.24626 -10.14095 -10.11437 -10.11214 -10.11203
 Alpha  occ. eigenvalues --  -10.10407 -10.08273  -8.03445  -5.99729  -5.99678
 Alpha  occ. eigenvalues --   -5.99569  -1.02557  -0.96713  -0.91348  -0.83443
 Alpha  occ. eigenvalues --   -0.76454  -0.72963  -0.64929  -0.61704  -0.60926
 Alpha  occ. eigenvalues --   -0.56601  -0.50758  -0.47045  -0.44380  -0.41995
 Alpha  occ. eigenvalues --   -0.40105  -0.39479  -0.38692  -0.36397  -0.35063
 Alpha  occ. eigenvalues --   -0.34136  -0.32877  -0.32706  -0.31438  -0.31164
 Alpha  occ. eigenvalues --   -0.30351  -0.30105  -0.25576  -0.23551  -0.23364
 Alpha  occ. eigenvalues --   -0.21935  -0.20527  -0.18806  -0.16933  -0.16421
 Alpha  occ. eigenvalues --    0.04041
 Alpha virt. eigenvalues --    0.05549   0.08099   0.08424   0.08682   0.09037
 Alpha virt. eigenvalues --    0.09535   0.09889   0.10244   0.11245   0.11840
 Alpha virt. eigenvalues --    0.12784   0.13478   0.13510   0.14519   0.15663

  Beta  occ. eigenvalues --  -88.97329 -19.02218 -19.02215 -14.30579 -14.25209
  Beta  occ. eigenvalues --  -14.24618 -10.14091 -10.11364 -10.11211 -10.11159
  Beta  occ. eigenvalues --  -10.10405 -10.08229  -8.03445  -5.99728  -5.99677
  Beta  occ. eigenvalues --   -5.99567  -1.02547  -0.96700  -0.91337  -0.83414
  Beta  occ. eigenvalues --   -0.76432  -0.72943  -0.64884  -0.61638  -0.60848
  Beta  occ. eigenvalues --   -0.56556  -0.50732  -0.46992  -0.44354  -0.41953
  Beta  occ. eigenvalues --   -0.40052  -0.39437  -0.38656  -0.36372  -0.35028
  Beta  occ. eigenvalues --   -0.34095  -0.32848  -0.32657  -0.31372  -0.31109
  Beta  occ. eigenvalues --   -0.30305  -0.30061  -0.25557  -0.23533  -0.23353
  Beta  occ. eigenvalues --   -0.21917  -0.20508  -0.18785  -0.16909  -0.16405
  Beta virt. eigenvalues --    0.06483   0.07151   0.08609   0.08766   0.08972
  Beta virt. eigenvalues --    0.09699   0.09919   0.10375   0.10743   0.11683
  Beta virt. eigenvalues --    0.12295   0.13349   0.13688   0.13774   0.14495

 Mulliken charges and spin densities:
               1          2
     1  C    0.023435  -0.728129
     2  C   -2.391993   2.225890
     3  C    1.308498  -1.783204
     4  C   -0.148206   0.095128
     5  N   -0.505483   0.204635
     6  N    0.173541   0.180543
     7  C    1.469672  -1.769170
     8  S    1.822316  -1.141466
     9  O   -0.216297  -0.001990
    10  O   -0.206765   0.014350
    11  N   -0.490940   0.161961
    12  C    0.628936  -1.022926
    13  H    0.055303   0.165359
    14  H   -0.226532   0.393048
    15  H   -0.178562   0.344145
    16  H    0.055539   0.140032
    17  H   -0.630753   0.810196
    18  H   -0.632784   0.825092
    19  H   -0.245547   0.413245
    20  H    0.061030   0.228605
    21  H   -0.047478   0.219275
    22  H   -0.585100   0.751201
    23  H   -0.091831   0.274179
 Sum of Mulliken charges =  -1.00000   1.00000

 Dipole moment (field-independent basis, Debye):
    X=              3.9514    Y=             -1.0980    Z=              2.0586  Tot=              4.5888
 Quadrupole moment (field-independent basis, Debye-Ang):
   XX=           -156.6921   YY=           -116.5518   ZZ=           -117.1681
   XY=              9.0405   XZ=             -2.8554   YZ=             -2.7828

 Summary of Natural Population Analysis:

                                       Natural Population
                Natural  -----------------------------------------------
    Atom  No    Charge         Core      Valence    Rydberg      Total
 -----------------------------------------------------------------------
      C    1   -0.31071      0.99962     2.30554    0.00555     3.31071
      C    2    0.11449      0.99948     1.87340    0.01264     2.88551
      C    3   -0.21585      0.99929     2.20171    0.01485     3.21585
      C    4    0.00589      0.99956     1.98057    0.01397     2.99411
      N    5   -0.14707      0.99973     2.63567    0.01166     3.64707
      N    6   -0.10492      0.99962     2.59149    0.01382     3.60492
      C    7   -0.17609      0.99963     2.16825    0.00821     3.17609
      S    8    1.10885      4.99917     1.79070    0.10128     6.89115
      O    9   -0.46666      0.99991     3.46142    0.00533     4.46666
      O   10   -0.46253      0.99991     3.45730    0.00532     4.46253
      N   11   -0.43326      0.99978     2.92022    0.01326     3.93326
      C   12   -0.18759      0.99965     2.17772    0.01022     3.18759
      H   13    0.12602      0.00000     0.37278    0.00120     0.37398
      H   14    0.11416      0.00000     0.38397    0.00187     0.38584
      H   15    0.11146      0.00000     0.38719    0.00136     0.38854
      H   16    0.10639      0.00000     0.39250    0.00111     0.39361
      H   17    0.10485      0.00000     0.39159    0.00356     0.39515
      H   18    0.10546      0.00000     0.39069    0.00385     0.39454
      H   19    0.11110      0.00000     0.38701    0.00189     0.38890
      H   20    0.19489      0.00000     0.30304    0.00207     0.30511
      H   21    0.09558      0.00000     0.40301    0.00142     0.40442
      H   22    0.10296      0.00000     0.39469    0.00234     0.39704
      H   23    0.10258      0.00000     0.39612    0.00130     0.39742
 =======================================================================
   * Total *   -0.00000     15.99534    33.76658    0.23808    50.00000

 Normal termination of Gaussian 16 at Wed Dec  9 18:16:19 2020.
