 Gaussian 16, Revision A.03,

 -----------------------------------------------------------
 # opt freq B3LYP/6-31G(d) empiricaldispersion=gd3bj scf=xqc
 -----------------------------------------------------------

 -------------------------------
 CID_142096235_JID_1166_neutraal
 -------------------------------
 Symbolic Z-matrix:
 Charge =  0 Multiplicity = 1

 SCF Done:  E(RB3LYP) =  -788.888760175     A.U. after   14 cycles
 SCF Done:  E(RB3LYP) =  -788.892275285     A.U. after   13 cycles
 SCF Done:  E(RB3LYP) =  -788.893055141     A.U. after   12 cycles
 SCF Done:  E(RB3LYP) =  -788.893263808     A.U. after   12 cycles
 SCF Done:  E(RB3LYP) =  -788.893341751     A.U. after   12 cycles
 SCF Done:  E(RB3LYP) =  -788.893425158     A.U. after   11 cycles
 SCF Done:  E(RB3LYP) =  -788.893481672     A.U. after   11 cycles
 SCF Done:  E(RB3LYP) =  -788.893490643     A.U. after   10 cycles
 SCF Done:  E(RB3LYP) =  -788.893495264     A.U. after   10 cycles
 SCF Done:  E(RB3LYP) =  -788.893497097     A.U. after   10 cycles
 SCF Done:  E(RB3LYP) =  -788.893497254     A.U. after    8 cycles
 SCF Done:  E(RB3LYP) =  -788.893497271     A.U. after    7 cycles
 Optimization completed.
    -- Stationary point found.
 Normal termination of Gaussian 16 at Tue Dec  8 19:15:42 2020.

 --------------------------------------------------------------------
 #N Geom=AllCheck Guess=TCheck SCRF=Check GenChk RB3LYP/6-31G(d) Freq
 --------------------------------------------------------------------

 Structure from the checkpoint file:  "JID_1166.chk"
 -------------------------------
 CID_142096235_JID_1166_neutraal
 -------------------------------
 Charge =  0 Multiplicity = 1

 SCF Done:  E(RB3LYP) =  -788.893497271     A.U. after    1 cycles

  Exact polarizability: 221.589  24.031 127.945  -5.226   4.864  85.108
 Approx polarizability: 338.022  60.396 193.576 -13.013   6.727 124.703

                      1                      2                      3
                      A                      A                      A
 Frequencies --     22.1848                43.7378                73.6725
 Red. masses --      3.4746                 2.6804                 3.2392
 Frc consts  --      0.0010                 0.0030                 0.0104
 IR Inten    --      0.1978                 0.0550                 0.7234

                      4                      5                      6
                      A                      A                      A
 Frequencies --     84.7441               107.5284               119.7289
 Red. masses --      2.0614                 3.1857                 1.1379
 Frc consts  --      0.0087                 0.0217                 0.0096
 IR Inten    --      0.1161                 0.1738                 0.3128

                      7                      8                      9
                      A                      A                      A
 Frequencies --    143.3573               166.4545               199.9049
 Red. masses --      1.9641                 1.7974                 1.3214
 Frc consts  --      0.0238                 0.0293                 0.0311
 IR Inten    --      0.1786                 0.5544                 0.0310

                     10                     11                     12
                      A                      A                      A
 Frequencies --    226.0953               266.0298               303.7735
 Red. masses --      3.6159                 1.3127                 3.5795
 Frc consts  --      0.1089                 0.0547                 0.1946
 IR Inten    --      0.6211                 0.6396                 0.5772

                     13                     14                     15
                      A                      A                      A
 Frequencies --    314.2787               326.8796               376.9053
 Red. masses --      3.2812                 3.2717                 2.5712
 Frc consts  --      0.1909                 0.2060                 0.2152
 IR Inten    --      0.5334                 1.2888                 1.6447

                     16                     17                     18
                      A                      A                      A
 Frequencies --    436.1737               448.9398               471.7103
 Red. masses --      2.3303                 2.0971                 2.3911
 Frc consts  --      0.2612                 0.2490                 0.3135
 IR Inten    --      0.5797                 0.3141                 6.9334

                     19                     20                     21
                      A                      A                      A
 Frequencies --    513.1800               538.7188               650.6377
 Red. masses --      3.6504                 3.2525                 4.5546
 Frc consts  --      0.5664                 0.5562                 1.1360
 IR Inten    --      1.2566                13.6660                 1.8016

                     22                     23                     24
                      A                      A                      A
 Frequencies --    728.1989               739.8320               786.4946
 Red. masses --      4.0224                 2.1633                 1.2767
 Frc consts  --      1.2567                 0.6977                 0.4653
 IR Inten    --      4.9304                 2.4092                 8.6039

                     25                     26                     27
                      A                      A                      A
 Frequencies --    854.4238               889.3804               917.2540
 Red. masses --      3.3135                 1.3725                 1.3746
 Frc consts  --      1.4252                 0.6396                 0.6814
 IR Inten    --      0.2582                 6.0035                 5.9873

                     28                     29                     30
                      A                      A                      A
 Frequencies --    935.8901               967.1198               978.3553
 Red. masses --      1.3763                 1.7988                 1.4730
 Frc consts  --      0.7102                 0.9913                 0.8307
 IR Inten    --     31.6345                 4.6473                 1.2607

                     31                     32                     33
                      A                      A                      A
 Frequencies --    990.7864              1014.2698              1025.1269
 Red. masses --      1.8669                 1.1223                 1.2207
 Frc consts  --      1.0798                 0.6802                 0.7558
 IR Inten    --      7.2348                 9.6246                 8.5843

                     34                     35                     36
                      A                      A                      A
 Frequencies --   1070.6335              1082.2358              1088.7969
 Red. masses --      1.3346                 1.6813                 1.8578
 Frc consts  --      0.9013                 1.1602                 1.2976
 IR Inten    --      6.8314                20.1716                 4.8316

                     37                     38                     39
                      A                      A                      A
 Frequencies --   1113.2940              1163.4028              1196.9518
 Red. masses --      1.6677                 2.2735                 2.5383
 Frc consts  --      1.2178                 1.8131                 2.1426
 IR Inten    --      1.1312                 1.4392                 5.3255

                     40                     41                     42
                      A                      A                      A
 Frequencies --   1251.9328              1292.9174              1320.5530
 Red. masses --      2.2840                 1.2044                 1.2856
 Frc consts  --      2.1092                 1.1862                 1.3209
 IR Inten    --      0.7348                 2.9631                37.3932

                     43                     44                     45
                      A                      A                      A
 Frequencies --   1338.9092              1376.4434              1415.4909
 Red. masses --      1.2848                 1.3729                 1.4393
 Frc consts  --      1.3570                 1.5326                 1.6991
 IR Inten    --      1.3968                 3.2213                13.7704

                     46                     47                     48
                      A                      A                      A
 Frequencies --   1438.5176              1441.4108              1450.5129
 Red. masses --      1.2285                 1.3696                 1.2541
 Frc consts  --      1.4978                 1.6766                 1.5546
 IR Inten    --      5.1428                10.5838                 3.2291

                     49                     50                     51
                      A                      A                      A
 Frequencies --   1466.0949              1498.2058              1498.5723
 Red. masses --      1.3125                 1.0705                 1.0654
 Frc consts  --      1.6621                 1.4157                 1.4097
 IR Inten    --      1.7229                 1.7881                 2.1350

                     52                     53                     54
                      A                      A                      A
 Frequencies --   1514.7548              1517.9357              1520.4114
 Red. masses --      1.0551                 1.0426                 1.0423
 Frc consts  --      1.4263                 1.4153                 1.4196
 IR Inten    --      7.0914                14.1746                 4.4452

                     55                     56                     57
                      A                      A                      A
 Frequencies --   1521.5624              1528.7126              1616.0617
 Red. masses --      1.1236                 1.0465                 5.3622
 Frc consts  --      1.5327                 1.4409                 8.2510
 IR Inten    --     12.7402                 2.4654                 0.1478

                     58                     59                     60
                      A                      A                      A
 Frequencies --   1691.5869              1709.4692              3023.7755
 Red. masses --      4.2698                 5.1975                 1.0393
 Frc consts  --      7.1986                 8.9489                 5.5986
 IR Inten    --     19.1443                40.0943                38.5456

                     61                     62                     63
                      A                      A                      A
 Frequencies --   3034.3317              3049.6650              3065.7983
 Red. masses --      1.0421                 1.0393                 1.0584
 Frc consts  --      5.6530                 5.6950                 5.8612
 IR Inten    --     75.3819                30.8153                20.8121

                     64                     65                     66
                      A                      A                      A
 Frequencies --   3066.7243              3074.6057              3110.1978
 Red. masses --      1.0994                 1.0992                 1.1059
 Frc consts  --      6.0921                 6.1221                 6.3031
 IR Inten    --     13.9811                31.4510                 4.9422

                     67                     68                     69
                      A                      A                      A
 Frequencies --   3118.5566              3127.0631              3143.8501
 Red. masses --      1.0975                 1.0990                 1.1041
 Frc consts  --      6.2885                 6.3315                 6.4294
 IR Inten    --     24.7288                20.2193                24.2336

                     70                     71                     72
                      A                      A                      A
 Frequencies --   3154.0861              3162.6865              3177.7596
 Red. masses --      1.0954                 1.0811                 1.0695
 Frc consts  --      6.4206                 6.3715                 6.3633
 IR Inten    --     15.9315                 1.9521                 3.3144

                     73                     74                     75
                      A                      A                      A
 Frequencies --   3185.3187              3197.7874              3265.0602
 Red. masses --      1.0829                 1.0866                 1.1160
 Frc consts  --      6.4734                 6.5469                 7.0096
 IR Inten    --     21.2728                17.4659                10.5055

 - Thermochemistry -
 -------------------
 Temperature   298.150 Kelvin.  Pressure   1.00000 Atm.
 Atom     1 has atomic number  6 and mass  12.00000

 Molecular mass:   168.09727 amu.
 Principal axes and moments of inertia in atomic units:
                           1         2         3
     Eigenvalues --  1262.297903964.571954500.55613
           X            0.99991   0.00408   0.01313
           Y           -0.00408   0.99999   0.00033
           Z           -0.01313  -0.00038   0.99991
 This molecule is an asymmetric top.
 Rotational symmetry number  1.
 Warning -- assumption of classical behavior for rotation
           may cause significant error
 Rotational temperatures (Kelvin)      0.06862     0.02185     0.01925
 Rotational constants (GHZ):           1.42973     0.45522     0.40100
 Zero-point vibrational energy     614548.0 (Joules/Mol)
                                  146.88050 (Kcal/Mol)
 Warning -- explicit consideration of  20 degrees of freedom as
           vibrations may cause significant error
 Vibrational temperatures:     31.92    62.93   106.00   121.93   154.71
          (Kelvin)            172.26   206.26   239.49   287.62   325.30
                              382.76   437.06   452.18   470.31   542.28
                              627.56   645.92   678.69   738.35   775.10
                              936.12  1047.72  1064.45  1131.59  1229.33
                             1279.62  1319.72  1346.54  1391.47  1407.64
                             1425.52  1459.31  1474.93  1540.40  1557.10
                             1566.54  1601.78  1673.88  1722.15  1801.25
                             1860.22  1899.98  1926.39  1980.39  2036.58
                             2069.71  2073.87  2086.96  2109.38  2155.58
                             2156.11  2179.39  2183.97  2187.53  2189.19
                             2199.48  2325.15  2433.82  2459.54  4350.54
                             4365.73  4387.79  4411.00  4412.33  4423.67
                             4474.88  4486.91  4499.15  4523.30  4538.03
                             4550.40  4572.09  4582.96  4600.90  4697.69

 Zero-point correction=                           0.234069 (Hartree/Particle)
 Thermal correction to Energy=                    0.248252
 Thermal correction to Enthalpy=                  0.249196
 Thermal correction to Gibbs Free Energy=         0.191772
 Sum of electronic and zero-point Energies=           -788.659428
 Sum of electronic and thermal Energies=              -788.645245
 Sum of electronic and thermal Enthalpies=            -788.644301
 Sum of electronic and thermal Free Energies=         -788.701725

                     E (Thermal)             CV                S
                      KCal/Mol        Cal/Mol-Kelvin    Cal/Mol-Kelvin
 Total                  155.781             50.249            120.860
 Electronic               0.000              0.000              0.000
 Translational            0.889              2.981             41.266
 Rotational               0.889              2.981             31.488
 Vibrational            154.003             44.288             48.105
 Vibration     1          0.593              1.985              6.428
 Vibration     2          0.595              1.980              5.082
 Vibration     3          0.599              1.966              4.053
 Vibration     4          0.601              1.960              3.778
 Vibration     5          0.606              1.943              3.313
 Vibration     6          0.609              1.933              3.105
 Vibration     7          0.616              1.910              2.759
 Vibration     8          0.624              1.884              2.475
 Vibration     9          0.638              1.840              2.134
 Vibration    10          0.650              1.801              1.910
 Vibration    11          0.672              1.735              1.622
 Vibration    12          0.695              1.667              1.396
 Vibration    13          0.702              1.646              1.340
 Vibration    14          0.711              1.622              1.275
 Vibration    15          0.747              1.519              1.052
 Vibration    16          0.797              1.391              0.839
 Vibration    17          0.808              1.363              0.799
 Vibration    18          0.829              1.313              0.733
 Vibration    19          0.868              1.221              0.626
 Vibration    20          0.894              1.164              0.568

 Optimization completed.
    -- Stationary point found.
 Normal termination of Gaussian 16 at Tue Dec  8 19:21:04 2020.

 ----------------------------------------------------------------------
 # B3LYP/6-311++G(d,p) empiricaldispersion=gd3bj scf=xqc pop=npa geom=c
 heck
 ----------------------------------------------------------------------

 ---------------------------------------
 CID_142096235_JID_1166_Energie_neutraal
 ---------------------------------------
 Structure from the checkpoint file:  "JID_1166.chk"
 Charge =  0 Multiplicity = 1

 SCF Done:  E(RB3LYP) =  -789.029415125     A.U. after   15 cycles
 Normal termination of Gaussian 16 at Tue Dec  8 19:23:54 2020.

 ----------------------------------------------------------------------
 # B3LYP/6-311++G(d,p) empiricaldispersion=gd3bj scf=xqc pop=npa geom=c
 heck
 ----------------------------------------------------------------------

 -------------------------------------
 CID_142096235_JID_1166_Energie_kation
 -------------------------------------
 Structure from the checkpoint file:  "JID_1166.chk"
 Charge =  1 Multiplicity = 2

 SCF Done:  E(UB3LYP) =  -788.759981277     A.U. after   21 cycles
 Normal termination of Gaussian 16 at Tue Dec  8 19:29:33 2020.
 Gaussian 16:  ES64L-G16RevA.03 25-Dec-2016

 ----------------------------------------------------------------------
 # B3LYP/6-311++G(d,p) empiricaldispersion=gd3bj scf=xqc pop=npa geom=c
 heck
 ----------------------------------------------------------------------

 ------------------------------------
 CID_142096235_JID_1166_Energie_anion
 ------------------------------------
 Structure from the checkpoint file:  "JID_1166.chk"
 Charge = -1 Multiplicity = 2

                         Standard orientation:
 ---------------------------------------------------------------------
 Center     Atomic      Atomic             Coordinates (Angstroms)
 Number     Number       Type             X           Y           Z
 ---------------------------------------------------------------------
      1          6           0        2.756981   -0.870342    1.680993
      2          6           0        2.291823   -1.632252    0.445490
      3         16           0        2.032647   -0.568295   -1.038363
      4          6           0        0.664522    0.453940   -0.460527
      5          6           0       -0.571912   -0.116147   -0.412737
      6          6           0       -1.788777    0.491500    0.077433
      7          6           0       -3.016111   -0.078450    0.099359
      8          6           0       -4.197002    0.675237    0.649939
      9          6           0       -3.333941   -1.462086   -0.399303
     10          6           0        0.940368    1.838756   -0.089881
     11          6           0        2.143418    2.431399   -0.048551
     12          1           0        3.705262   -0.357814    1.492047
     13          1           0        2.896332   -1.560197    2.522813
     14          1           0        2.019369   -0.117756    1.974953
     15          1           0        3.041226   -2.365213    0.127058
     16          1           0        1.361897   -2.174768    0.643516
     17          1           0       -0.642800   -1.139458   -0.769012
     18          1           0       -1.713787    1.500283    0.475706
     19          1           0       -4.983821    0.782790   -0.110011
     20          1           0       -4.652606    0.132981    1.490598
     21          1           0       -3.920098    1.674649    0.998321
     22          1           0       -4.087645   -1.415971   -1.197277
     23          1           0       -2.467302   -1.997849   -0.789962
     24          1           0       -3.772694   -2.067649    0.405583
     25          1           0        0.068440    2.439055    0.161779
     26          1           0        2.237788    3.475010    0.235474
     27          1           0        3.051869    1.895292   -0.301071
 ---------------------------------------------------------------------

 SCF Done:  E(UB3LYP) =  -789.033212769     A.U. after   29 cycles

 The electronic state is 2-A.
 Alpha  occ. eigenvalues --  -88.69213 -10.06682 -10.04282 -10.03911 -10.03648
 Alpha  occ. eigenvalues --  -10.02197 -10.01679 -10.01578 -10.00974  -9.99900
 Alpha  occ. eigenvalues --   -9.99441  -7.77779  -5.74168  -5.73802  -5.73182
 Alpha  occ. eigenvalues --   -0.68495  -0.66966  -0.63972  -0.59200  -0.56819
 Alpha  occ. eigenvalues --   -0.56509  -0.51983  -0.47071  -0.44411  -0.38929
 Alpha  occ. eigenvalues --   -0.35549  -0.33632  -0.33095  -0.31880  -0.30763
 Alpha  occ. eigenvalues --   -0.30532  -0.28274  -0.26808  -0.26202  -0.25390
 Alpha  occ. eigenvalues --   -0.24133  -0.23699  -0.23303  -0.21944  -0.21308
 Alpha  occ. eigenvalues --   -0.20008  -0.17445  -0.15648  -0.13031  -0.08799
 Alpha  occ. eigenvalues --   -0.06019   0.05056
 Alpha virt. eigenvalues --    0.08119   0.08694   0.09825   0.10426   0.10975
 Alpha virt. eigenvalues --    0.11100   0.11711   0.12727   0.13334   0.13488
 Alpha virt. eigenvalues --    0.13822   0.14277   0.14809   0.15034   0.15679

  Beta  occ. eigenvalues --  -88.69219 -10.06632 -10.04283 -10.03950 -10.03682
  Beta  occ. eigenvalues --  -10.01945 -10.01692 -10.01102 -10.01024  -9.99561
  Beta  occ. eigenvalues --   -9.99139  -7.77783  -5.74177  -5.73813  -5.73185
  Beta  occ. eigenvalues --   -0.68080  -0.66532  -0.63631  -0.58736  -0.56670
  Beta  occ. eigenvalues --   -0.56458  -0.51769  -0.46882  -0.43722  -0.38458
  Beta  occ. eigenvalues --   -0.35290  -0.33524  -0.32951  -0.31721  -0.30446
  Beta  occ. eigenvalues --   -0.30216  -0.28071  -0.26725  -0.26059  -0.25299
  Beta  occ. eigenvalues --   -0.24039  -0.23604  -0.23110  -0.21692  -0.21047
  Beta  occ. eigenvalues --   -0.19518  -0.16717  -0.15190  -0.11653  -0.08671
  Beta  occ. eigenvalues --   -0.03870
  Beta virt. eigenvalues --    0.08068   0.08620   0.09701   0.10101   0.10386
  Beta virt. eigenvalues --    0.11026   0.11515   0.12138   0.12645   0.13225
  Beta virt. eigenvalues --    0.13558   0.13818   0.14216   0.14751   0.15267

 Mulliken charges and spin densities:
               1          2
     1  C   -0.595261   0.008910
     2  C   -0.253578  -0.057914
     3  S   -0.278974   0.011938
     4  C    0.847049   0.181789
     5  C   -0.525498   0.301114
     6  C   -0.377047  -0.036244
     7  C    0.661796   0.255898
     8  C   -0.529746  -0.037705
     9  C   -0.741482  -0.037079
    10  C   -0.062102  -0.098783
    11  C   -0.591046   0.324943
    12  H    0.098682   0.007364
    13  H    0.088257  -0.000485
    14  H    0.181841   0.007133
    15  H    0.089849   0.049718
    16  H    0.152385  -0.007443
    17  H   -0.006415  -0.007605
    18  H   -0.019050   0.000997
    19  H    0.065657   0.050286
    20  H    0.082712   0.033932
    21  H    0.135102   0.001654
    22  H    0.064353   0.048648
    23  H    0.157247   0.002342
    24  H    0.086002   0.022874
    25  H    0.098904   0.000908
    26  H    0.088805  -0.014510
    27  H    0.081558  -0.012680
 Sum of Mulliken charges =  -1.00000   1.00000

 Dipole moment (field-independent basis, Debye):
    X=             -0.2838    Y=             -2.1798    Z=              1.9853  Tot=              2.9620
 Quadrupole moment (field-independent basis, Debye-Ang):
   XX=           -117.8762   YY=            -94.0883   ZZ=            -93.2775
   XY=             -6.4327   XZ=              2.7320   YZ=              0.0127

 Summary of Natural Population Analysis:

                                       Natural Population
                Natural  -----------------------------------------------
    Atom  No    Charge         Core      Valence    Rydberg      Total
 -----------------------------------------------------------------------
      C    1   -0.29216      0.99966     2.28736    0.00514     3.29216
      C    2   -0.24281      0.99961     2.23231    0.01089     3.24281
      S    3    0.07718      4.99956     2.90236    0.02089     7.92282
      C    4   -0.07349      0.99939     2.05963    0.01448     3.07349
      C    5   -0.03494      0.99946     2.02383    0.01165     3.03494
      C    6   -0.13847      0.99947     2.13167    0.00734     3.13847
      C    7    0.08287      0.99954     1.90841    0.00918     2.91713
      C    8   -0.29494      0.99964     2.29108    0.00421     3.29494
      C    9   -0.30140      0.99964     2.29643    0.00533     3.30140
      C   10   -0.11960      0.99952     2.11004    0.01004     3.11960
      C   11   -0.14829      0.99959     2.14053    0.00817     3.14829
      H   12    0.09641      0.00000     0.40251    0.00109     0.40359
      H   13    0.08811      0.00000     0.41083    0.00106     0.41189
      H   14    0.11016      0.00000     0.38889    0.00095     0.38984
      H   15    0.08854      0.00000     0.40832    0.00315     0.41146
      H   16    0.09607      0.00000     0.40273    0.00121     0.40393
      H   17    0.08608      0.00000     0.41249    0.00142     0.41392
      H   18    0.08704      0.00000     0.41174    0.00122     0.41296
      H   19    0.09466      0.00000     0.40378    0.00156     0.40534
      H   20    0.09424      0.00000     0.40424    0.00152     0.40576
      H   21    0.09611      0.00000     0.40314    0.00075     0.40389
      H   22    0.09650      0.00000     0.40204    0.00146     0.40350
      H   23    0.10183      0.00000     0.39750    0.00066     0.39817
      H   24    0.09541      0.00000     0.40356    0.00104     0.40459
      H   25    0.08812      0.00000     0.41007    0.00182     0.41188
      H   26    0.07844      0.00000     0.42048    0.00108     0.42156
      H   27    0.08835      0.00000     0.41036    0.00129     0.41165
 =======================================================================
   * Total *    0.00000     14.99508    30.87633    0.12859    46.00000

 Normal termination of Gaussian 16 at Tue Dec  8 19:37:20 2020.
