 Gaussian 16, Revision A.03,

 -----------------------------------------------------------
 # opt freq B3LYP/6-31G(d) empiricaldispersion=gd3bj scf=xqc
 -----------------------------------------------------------

 -------------------------------
 CID_129395510_JID_4230_neutraal
 -------------------------------
 Symbolic Z-matrix:
 Charge =  0 Multiplicity = 1

 SCF Done:  E(RB3LYP) =  -597.520400260     A.U. after   13 cycles
 SCF Done:  E(RB3LYP) =  -597.524619727     A.U. after   12 cycles
 SCF Done:  E(RB3LYP) =  -597.524662395     A.U. after   12 cycles
 SCF Done:  E(RB3LYP) =  -597.525050061     A.U. after   12 cycles
 SCF Done:  E(RB3LYP) =  -597.525616347     A.U. after   11 cycles
 SCF Done:  E(RB3LYP) =  -597.525588108     A.U. after   11 cycles
 SCF Done:  E(RB3LYP) =  -597.525696032     A.U. after   11 cycles
 SCF Done:  E(RB3LYP) =  -597.525706361     A.U. after    9 cycles
 SCF Done:  E(RB3LYP) =  -597.525722503     A.U. after   11 cycles
 SCF Done:  E(RB3LYP) =  -597.525744336     A.U. after   11 cycles
 SCF Done:  E(RB3LYP) =  -597.532853736     A.U. after    8 cycles
 SCF Done:  E(RB3LYP) =  -597.532855905     A.U. after    8 cycles
 SCF Done:  E(RB3LYP) =  -597.532857306     A.U. after    8 cycles
 SCF Done:  E(RB3LYP) =  -597.532857670     A.U. after    7 cycles
 Optimization completed.
    -- Stationary point found.
 Normal termination of Gaussian 16 at Thu Dec 10 09:44:21 2020.

 --------------------------------------------------------------------
 #N Geom=AllCheck Guess=TCheck SCRF=Check GenChk RB3LYP/6-31G(d) Freq
 --------------------------------------------------------------------

 Structure from the checkpoint file:  "JID_4230.chk"
 -------------------------------
 CID_129395510_JID_4230_neutraal
 -------------------------------
 Charge =  0 Multiplicity = 1

 SCF Done:  E(RB3LYP) =  -597.532857670     A.U. after    1 cycles

  Exact polarizability: 152.246   9.811 113.440   6.437 -16.427 115.390
 Approx polarizability: 216.299  21.505 170.319  16.039 -37.222 187.476

                      1                      2                      3
                      A                      A                      A
 Frequencies --     43.2616                81.0798               108.5485
 Red. masses --      3.6842                 4.3387                 3.4860
 Frc consts  --      0.0041                 0.0168                 0.0242
 IR Inten    --      0.1682                 0.3210                 1.6141

                      4                      5                      6
                      A                      A                      A
 Frequencies --    163.9851               171.6241               209.1393
 Red. masses --      3.2774                 2.7634                 3.8126
 Frc consts  --      0.0519                 0.0480                 0.0983
 IR Inten    --      3.5126                 1.2201                 0.3200

                      7                      8                      9
                      A                      A                      A
 Frequencies --    284.7238               291.1934               299.6335
 Red. masses --      2.8283                 2.7968                 2.3155
 Frc consts  --      0.1351                 0.1397                 0.1225
 IR Inten    --     13.7706                 0.7078                 4.3361

                     10                     11                     12
                      A                      A                      A
 Frequencies --    344.6452               363.4091               400.9187
 Red. masses --      1.1776                 3.1637                 2.6764
 Frc consts  --      0.0824                 0.2462                 0.2535
 IR Inten    --    113.9733                21.8845                 3.4830

                     13                     14                     15
                      A                      A                      A
 Frequencies --    417.9187               424.8106               478.6187
 Red. masses --      2.9457                 2.8951                 3.6144
 Frc consts  --      0.3031                 0.3078                 0.4878
 IR Inten    --      5.0498                 3.4774                 2.3726

                     16                     17                     18
                      A                      A                      A
 Frequencies --    511.3535               538.7637               555.3896
 Red. masses --      3.7509                 2.7378                 1.7941
 Frc consts  --      0.5779                 0.4682                 0.3261
 IR Inten    --      2.9855                 3.2117                11.3358

                     19                     20                     21
                      A                      A                      A
 Frequencies --    633.0465               638.3277               711.7611
 Red. masses --      2.9787                 6.3429                 3.5493
 Frc consts  --      0.7033                 1.5227                 1.0594
 IR Inten    --     52.1733                 0.0389                11.8501

                     22                     23                     24
                      A                      A                      A
 Frequencies --    713.7613               767.7003               781.8094
 Red. masses --      1.8291                 1.4392                 2.2053
 Frc consts  --      0.5490                 0.4998                 0.7942
 IR Inten    --     26.9265                84.0949                11.6492

                     25                     26                     27
                      A                      A                      A
 Frequencies --    834.2027               851.1613               863.1855
 Red. masses --      2.3087                 1.2745                 1.5892
 Frc consts  --      0.9466                 0.5440                 0.6976
 IR Inten    --      0.8585                 0.2928                 8.4860

                     28                     29                     30
                      A                      A                      A
 Frequencies --    879.1685               915.9109               934.7509
 Red. masses --      2.2914                 1.4125                 1.5087
 Frc consts  --      1.0435                 0.6981                 0.7767
 IR Inten    --      1.8685                 0.3122                 7.5878

                     31                     32                     33
                      A                      A                      A
 Frequencies --    945.4669               961.9851               990.0773
 Red. masses --      2.3658                 1.3585                 1.2509
 Frc consts  --      1.2460                 0.7407                 0.7225
 IR Inten    --      2.6872                 0.3693                 0.0714

                     34                     35                     36
                      A                      A                      A
 Frequencies --    996.9363              1023.0447              1029.6616
 Red. masses --      2.0669                 5.6630                 1.7641
 Frc consts  --      1.2103                 3.4921                 1.1019
 IR Inten    --      6.5290                 2.3959                29.9404

                     37                     38                     39
                      A                      A                      A
 Frequencies --   1066.4897              1075.9268              1081.8433
 Red. masses --      2.3081                 1.9655                 2.7343
 Frc consts  --      1.5468                 1.3406                 1.8855
 IR Inten    --      2.6077                 2.8079                39.7827

                     40                     41                     42
                      A                      A                      A
 Frequencies --   1103.9014              1126.9074              1133.5466
 Red. masses --      2.3346                 2.3064                 1.5758
 Frc consts  --      1.6762                 1.7257                 1.1930
 IR Inten    --     21.8384                12.6112                20.6911

                     43                     44                     45
                      A                      A                      A
 Frequencies --   1145.0867              1165.1329              1190.8549
 Red. masses --      2.9888                 2.4788                 1.7178
 Frc consts  --      2.3090                 1.9826                 1.4353
 IR Inten    --     29.9952                 4.3675                 6.4202

                     46                     47                     48
                      A                      A                      A
 Frequencies --   1195.2565              1211.4514              1227.3518
 Red. masses --      1.1082                 1.2799                 1.1446
 Frc consts  --      0.9328                 1.1067                 1.0159
 IR Inten    --      1.0988                 7.9906                 1.6629

                     49                     50                     51
                      A                      A                      A
 Frequencies --   1248.6161              1280.1253              1318.9091
 Red. masses --      1.8501                 1.6065                 1.3008
 Frc consts  --      1.6994                 1.5511                 1.3332
 IR Inten    --      4.6100                15.3295                 3.5062

                     52                     53                     54
                      A                      A                      A
 Frequencies --   1327.8095              1345.0785              1370.3262
 Red. masses --      1.2950                 3.0448                 1.7387
 Frc consts  --      1.3452                 3.2457                 1.9237
 IR Inten    --      8.2792                 5.1000                 0.5484

                     55                     56                     57
                      A                      A                      A
 Frequencies --   1376.6072              1390.0977              1397.9269
 Red. masses --      1.3416                 1.4422                 1.3363
 Frc consts  --      1.4979                 1.6419                 1.5386
 IR Inten    --      2.2017                 4.2693                21.3592

                     58                     59                     60
                      A                      A                      A
 Frequencies --   1406.0261              1416.3117              1433.6120
 Red. masses --      1.4210                 1.3860                 1.2683
 Frc consts  --      1.6552                 1.6381                 1.5358
 IR Inten    --      1.4655                 2.5200                41.7582

                     61                     62                     63
                      A                      A                      A
 Frequencies --   1494.1881              1504.1960              1513.9032
 Red. masses --      2.1917                 1.1879                 1.2050
 Frc consts  --      2.8830                 1.5836                 1.6272
 IR Inten    --      8.0330                 8.5418                 3.1985

                     64                     65                     66
                      A                      A                      A
 Frequencies --   1518.8807              1526.0847              1531.3062
 Red. masses --      1.1074                 1.1050                 1.0949
 Frc consts  --      1.5053                 1.5162                 1.5127
 IR Inten    --      4.1851                 3.7390                 4.8680

                     67                     68                     69
                      A                      A                      A
 Frequencies --   1540.5775              1549.1914              1643.7346
 Red. masses --      1.0982                 2.0414                 5.3864
 Frc consts  --      1.5356                 2.8867                 8.5746
 IR Inten    --      0.2860                 6.4303                 1.2164

                     70                     71                     72
                      A                      A                      A
 Frequencies --   1665.7616              2975.3910              3023.6089
 Red. masses --      5.5512                 1.0715                 1.0639
 Frc consts  --      9.0754                 5.5887                 5.7307
 IR Inten    --      2.9370                49.0970                47.8275

                     73                     74                     75
                      A                      A                      A
 Frequencies --   3040.2287              3043.6212              3044.8056
 Red. masses --      1.0676                 1.0612                 1.0621
 Frc consts  --      5.8137                 5.7921                 5.8014
 IR Inten    --     21.7666                28.2105                29.1276

                     76                     77                     78
                      A                      A                      A
 Frequencies --   3078.1549              3082.1745              3093.0896
 Red. masses --      1.0908                 1.0994                 1.1045
 Frc consts  --      6.0892                 6.1535                 6.2257
 IR Inten    --     61.3176                51.2387                51.9660

                     79                     80                     81
                      A                      A                      A
 Frequencies --   3095.8785              3104.1290              3179.7691
 Red. masses --      1.1011                 1.0960                 1.0846
 Frc consts  --      6.2182                 6.2223                 6.4609
 IR Inten    --     38.8115                41.9374                 1.8460

                     82                     83                     84
                      A                      A                      A
 Frequencies --   3188.3382              3200.6505              3209.2010
 Red. masses --      1.0883                 1.0913                 1.0962
 Frc consts  --      6.5185                 6.5866                 6.6516
 IR Inten    --      8.8089                38.1602                28.7764

                     85                     86                     87
                      A                      A                      A
 Frequencies --   3230.2487              3505.0645              3755.3213
 Red. masses --      1.0912                 1.0739                 1.0661
 Frc consts  --      6.7088                 7.7730                 8.8579
 IR Inten    --     13.5524                 1.8463                13.9473

 - Thermochemistry -
 -------------------
 Temperature   298.150 Kelvin.  Pressure   1.00000 Atm.
 Atom     1 has atomic number  6 and mass  12.00000

 Molecular mass:   191.13101 amu.
 Principal axes and moments of inertia in atomic units:
                           1         2         3
     Eigenvalues --  1875.434983105.266753722.71519
           X            0.99997  -0.00570  -0.00538
           Y            0.00556   0.99966  -0.02543
           Z            0.00553   0.02540   0.99966
 This molecule is an asymmetric top.
 Rotational symmetry number  1.
 Warning -- assumption of classical behavior for rotation
           may cause significant error
 Rotational temperatures (Kelvin)      0.04618     0.02789     0.02327
 Rotational constants (GHZ):           0.96231     0.58119     0.48479
 Zero-point vibrational energy     720951.4 (Joules/Mol)
                                  172.31153 (Kcal/Mol)
 Warning -- explicit consideration of  18 degrees of freedom as
           vibrations may cause significant error
 Vibrational temperatures:     62.24   116.66   156.18   235.94   246.93
          (Kelvin)            300.90   409.65   418.96   431.11   495.87
                              522.86   576.83   601.29   611.21   688.63
                              735.72   775.16   799.08   910.81   918.41
                             1024.07  1026.94  1104.55  1124.85  1200.23
                             1224.63  1241.93  1264.93  1317.79  1344.90
                             1360.32  1384.08  1424.50  1434.37  1471.93
                             1481.45  1534.44  1548.02  1556.53  1588.27
                             1621.37  1630.92  1647.52  1676.37  1713.37
                             1719.71  1743.01  1765.89  1796.48  1841.81
                             1897.62  1910.42  1935.27  1971.59  1980.63
                             2000.04  2011.31  2022.96  2037.76  2062.65
                             2149.80  2164.20  2178.17  2185.33  2195.70
                             2203.21  2216.55  2228.94  2364.97  2396.66
                             4280.92  4350.30  4374.21  4379.09  4380.80
                             4428.78  4434.56  4450.27  4454.28  4466.15
                             4574.98  4587.31  4605.02  4617.32  4647.61
                             5043.01  5403.07

 Zero-point correction=                           0.274596 (Hartree/Particle)
 Thermal correction to Energy=                    0.286931
 Thermal correction to Enthalpy=                  0.287875
 Thermal correction to Gibbs Free Energy=         0.236308
 Sum of electronic and zero-point Energies=           -597.258262
 Sum of electronic and thermal Energies=              -597.245927
 Sum of electronic and thermal Enthalpies=            -597.244983
 Sum of electronic and thermal Free Energies=         -597.296549

                     E (Thermal)             CV                S
                      KCal/Mol        Cal/Mol-Kelvin    Cal/Mol-Kelvin
 Total                  180.052             50.282            108.531
 Electronic               0.000              0.000              0.000
 Translational            0.889              2.981             41.649
 Rotational               0.889              2.981             31.450
 Vibrational            178.274             44.320             35.432
 Vibration     1          0.595              1.980              5.104
 Vibration     2          0.600              1.962              3.865
 Vibration     3          0.606              1.942              3.295
 Vibration     4          0.623              1.887              2.503
 Vibration     5          0.626              1.877              2.418
 Vibration     6          0.642              1.827              2.051
 Vibration     7          0.683              1.702              1.505
 Vibration     8          0.687              1.690              1.467
 Vibration     9          0.692              1.674              1.419
 Vibration    10          0.723              1.586              1.191
 Vibration    11          0.737              1.548              1.107
 Vibration    12          0.767              1.468              0.959
 Vibration    13          0.781              1.431              0.899
 Vibration    14          0.787              1.416              0.876
 Vibration    15          0.835              1.297              0.714
 Vibration    16          0.866              1.225              0.630
 Vibration    17          0.894              1.164              0.568
 Vibration    18          0.911              1.128              0.533

                           ! Non-Optimized Parameters !
 Normal termination of Gaussian 16 at Thu Dec 10 09:53:54 2020.

 ----------------------------------------------------------------------
 # B3LYP/6-311++G(d,p) empiricaldispersion=gd3bj scf=xqc pop=npa geom=c
 heck
 ----------------------------------------------------------------------

 ---------------------------------------
 CID_129395510_JID_4230_Energie_neutraal
 ---------------------------------------
 Structure from the checkpoint file:  "JID_4230.chk"
 Charge =  0 Multiplicity = 1

 SCF Done:  E(RB3LYP) =  -597.705600596     A.U. after   15 cycles
 Normal termination of Gaussian 16 at Thu Dec 10 09:58:20 2020.

 ----------------------------------------------------------------------
 # B3LYP/6-311++G(d,p) empiricaldispersion=gd3bj scf=xqc pop=npa geom=c
 heck
 ----------------------------------------------------------------------

 -------------------------------------
 CID_129395510_JID_4230_Energie_kation
 -------------------------------------
 Structure from the checkpoint file:  "JID_4230.chk"
 Charge =  1 Multiplicity = 2

 SCF Done:  E(UB3LYP) =  -597.398129740     A.U. after   33 cycles
 SCF Done:  E(UB3LYP) =  -597.402101018     a.u. after   15 cycles
 Normal termination of Gaussian 16 at Thu Dec 10 11:52:27 2020.
 Gaussian 16:  ES64L-G16RevA.03 25-Dec-2016

 ----------------------------------------------------------------------
 # B3LYP/6-311++G(d,p) empiricaldispersion=gd3bj scf=xqc pop=npa geom=c
 heck
 ----------------------------------------------------------------------

 ------------------------------------
 CID_129395510_JID_4230_Energie_anion
 ------------------------------------
 Structure from the checkpoint file:  "JID_4230.chk"
 Charge = -1 Multiplicity = 2

                         Standard orientation:
 ---------------------------------------------------------------------
 Center     Atomic      Atomic             Coordinates (Angstroms)
 Number     Number       Type             X           Y           Z
 ---------------------------------------------------------------------
      1          6           0        1.869114   -0.653235   -1.597275
      2          6           0        2.634533   -1.523510   -0.594677
      3          6           0        1.841719   -1.645135    0.706608
      4          7           0        1.538091   -0.308253    1.226483
      5          6           0        0.723772    0.542018    0.344958
      6          6           0        1.525010    0.699729   -0.966462
      7          6           0        0.644199    1.915094    1.061556
      8          8           0        0.023276    2.933995    0.295099
      9          6           0       -0.707159    0.029008    0.099254
     10          6           0       -1.488337    0.513466   -0.959720
     11          6           0       -2.804957    0.091358   -1.139780
     12          6           0       -3.378303   -0.826509   -0.260141
     13          6           0       -2.620832   -1.308885    0.805728
     14          6           0       -1.304278   -0.882207    0.979889
     15          1           0        2.459369   -0.503544   -2.509284
     16          1           0        0.941925   -1.160305   -1.894751
     17          1           0        2.822951   -2.521376   -1.008516
     18          1           0        3.607413   -1.063713   -0.378083
     19          1           0        0.937902   -2.249152    0.515935
     20          1           0        2.431406   -2.170517    1.466387
     21          1           0        1.111336   -0.373967    2.147348
     22          1           0        2.456126    1.226622   -0.717536
     23          1           0        0.978677    1.322575   -1.680775
     24          1           0        0.038149    1.812291    1.968382
     25          1           0        1.664878    2.193015    1.361570
     26          1           0        0.644252    3.187683   -0.403937
     27          1           0       -1.078164    1.246095   -1.643984
     28          1           0       -3.384875    0.486386   -1.969590
     29          1           0       -4.403005   -1.158308   -0.401773
     30          1           0       -3.051096   -2.021179    1.504643
     31          1           0       -0.736974   -1.273933    1.818140
 ---------------------------------------------------------------------

 SCF Done:  E(UB3LYP) =  -597.691740910     A.U. after   33 cycles
 SCF Done:  E(UB3LYP) =  -597.691740910     a.u. after    1 cycles

 The electronic state is 2-A.
 Alpha  occ. eigenvalues --  -19.02428 -14.19881 -10.11485 -10.11101 -10.08899
 Alpha  occ. eigenvalues --  -10.08026 -10.07585 -10.07547 -10.07506 -10.07302
 Alpha  occ. eigenvalues --  -10.07126 -10.06479 -10.06424 -10.06351  -0.92693
 Alpha  occ. eigenvalues --   -0.82069  -0.75551  -0.68865  -0.68271  -0.64663
 Alpha  occ. eigenvalues --   -0.63630  -0.58490  -0.53846  -0.51992  -0.50330
 Alpha  occ. eigenvalues --   -0.49088  -0.44901  -0.42699  -0.41627  -0.39044
 Alpha  occ. eigenvalues --   -0.36676  -0.36203  -0.34832  -0.34163  -0.33441
 Alpha  occ. eigenvalues --   -0.32640  -0.31691  -0.31446  -0.30648  -0.28621
 Alpha  occ. eigenvalues --   -0.27218  -0.26343  -0.25054  -0.24511  -0.23873
 Alpha  occ. eigenvalues --   -0.22964  -0.22208  -0.20987  -0.18021  -0.15519
 Alpha  occ. eigenvalues --   -0.14772  -0.13246   0.04352
 Alpha virt. eigenvalues --    0.06294   0.06740   0.07630   0.08176   0.08366
 Alpha virt. eigenvalues --    0.08432   0.08756   0.09513   0.09972   0.10659
 Alpha virt. eigenvalues --    0.11201   0.11667   0.12531   0.12720   0.13251

  Beta  occ. eigenvalues --  -19.02400 -14.19870 -10.11470 -10.11101 -10.08881
  Beta  occ. eigenvalues --  -10.08026 -10.07575 -10.07536 -10.07497 -10.07287
  Beta  occ. eigenvalues --  -10.07115 -10.06449 -10.06410 -10.06339  -0.92632
  Beta  occ. eigenvalues --   -0.82047  -0.75529  -0.68830  -0.68244  -0.64634
  Beta  occ. eigenvalues --   -0.63600  -0.58439  -0.53797  -0.51953  -0.50290
  Beta  occ. eigenvalues --   -0.49051  -0.44853  -0.42643  -0.41571  -0.38997
  Beta  occ. eigenvalues --   -0.36650  -0.36175  -0.34795  -0.34127  -0.33411
  Beta  occ. eigenvalues --   -0.32609  -0.31657  -0.31410  -0.30606  -0.28591
  Beta  occ. eigenvalues --   -0.27190  -0.26324  -0.25027  -0.24480  -0.23840
  Beta  occ. eigenvalues --   -0.22933  -0.22174  -0.20955  -0.17990  -0.15505
  Beta  occ. eigenvalues --   -0.14761  -0.13224
  Beta virt. eigenvalues --    0.06545   0.07282   0.07644   0.08174   0.08243
  Beta virt. eigenvalues --    0.08470   0.09019   0.09228   0.10015   0.10200
  Beta virt. eigenvalues --    0.11106   0.11447   0.12158   0.12754   0.13096

 Mulliken charges and spin densities:
               1          2
     1  C   -0.037592  -0.414857
     2  C   -0.115994  -0.355906
     3  C    0.359041  -0.530579
     4  N   -0.280579   0.249157
     5  C    0.894880  -1.187262
     6  C    0.450639  -0.504759
     7  C    0.947746  -1.510810
     8  O   -0.162226  -0.013011
     9  C   -0.224436   0.950791
    10  C   -1.991619   2.025724
    11  C    1.172748  -1.652585
    12  C    0.828535  -1.194149
    13  C   -0.404896   0.045270
    14  C   -0.124403  -0.079411
    15  H   -0.390461   0.564542
    16  H    0.242600  -0.117923
    17  H   -0.301078   0.459693
    18  H    0.234598  -0.107328
    19  H    0.335579  -0.231057
    20  H   -0.484305   0.654084
    21  H   -0.023427   0.286840
    22  H   -0.420398   0.605568
    23  H   -0.232453   0.357341
    24  H    0.074843   0.092474
    25  H    0.111873   0.064259
    26  H   -0.083019   0.330185
    27  H   -0.092855   0.286454
    28  H   -0.291398   0.459460
    29  H   -0.076144   0.218862
    30  H   -0.625652   0.810538
    31  H   -0.290147   0.438394
 Sum of Mulliken charges =  -1.00000   1.00000

 Dipole moment (field-independent basis, Debye):
    X=             -0.3895    Y=             -0.3285    Z=             -0.0001  Tot=              0.5095
 Quadrupole moment (field-independent basis, Debye-Ang):
   XX=           -142.0372   YY=           -134.5123   ZZ=           -126.9913
   XY=             -0.7660   XZ=              3.8308   YZ=              8.9519

 Summary of Natural Population Analysis:

                                       Natural Population
                Natural  -----------------------------------------------
    Atom  No    Charge         Core      Valence    Rydberg      Total
 -----------------------------------------------------------------------
      C    1   -0.19035      0.99962     2.18232    0.00841     3.19035
      C    2   -0.19075      0.99963     2.18364    0.00749     3.19075
      C    3   -0.08792      0.99961     2.07730    0.01100     3.08792
      N    4   -0.34667      0.99972     2.83523    0.01172     3.84667
      C    5    0.04581      0.99952     1.93891    0.01577     2.95419
      C    6   -0.19583      0.99959     2.18362    0.01262     3.19583
      C    7   -0.00212      0.99952     1.98810    0.01450     3.00212
      O    8   -0.36555      0.99990     3.35915    0.00650     4.36555
      C    9   -0.01732      0.99947     2.00524    0.01262     3.01732
      C   10   -0.09400      0.99951     2.08493    0.00956     3.09400
      C   11   -0.09998      0.99956     2.09059    0.00982     3.09998
      C   12   -0.10672      0.99956     2.09752    0.00964     3.10672
      C   13   -0.09968      0.99956     2.08964    0.01049     3.09968
      C   14   -0.10408      0.99950     2.09371    0.01087     3.10408
      H   15    0.09966      0.00000     0.39926    0.00109     0.40034
      H   16    0.09716      0.00000     0.40129    0.00155     0.40284
      H   17    0.09768      0.00000     0.40134    0.00097     0.40232
      H   18    0.09506      0.00000     0.40356    0.00139     0.40494
      H   19    0.08168      0.00000     0.41637    0.00195     0.41832
      H   20    0.09614      0.00000     0.40255    0.00131     0.40386
      H   21    0.17731      0.00000     0.31969    0.00300     0.32269
      H   22    0.10143      0.00000     0.39670    0.00187     0.39857
      H   23    0.10284      0.00000     0.39509    0.00207     0.39716
      H   24    0.08641      0.00000     0.41242    0.00117     0.41359
      H   25    0.08386      0.00000     0.41479    0.00135     0.41614
      H   26    0.23000      0.00000     0.26574    0.00426     0.27000
      H   27    0.10497      0.00000     0.39324    0.00179     0.39503
      H   28    0.09974      0.00000     0.39935    0.00091     0.40026
      H   29    0.09944      0.00000     0.39966    0.00090     0.40056
      H   30    0.10117      0.00000     0.39758    0.00125     0.39883
      H   31    0.10060      0.00000     0.39717    0.00223     0.39940
 =======================================================================
   * Total *   -0.00000     13.99426    37.82569    0.18005    52.00000

 Normal termination of Gaussian 16 at Thu Dec 10 12:05:53 2020.
