 Gaussian 16, Revision A.03,

 -----------------------------------------------------------
 # opt freq B3LYP/6-31G(d) empiricaldispersion=gd3bj scf=xqc
 -----------------------------------------------------------

 ------------------------------
 CID_82905612_JID_6164_neutraal
 ------------------------------
 Symbolic Z-matrix:
 Charge =  0 Multiplicity = 1

 SCF Done:  E(RB3LYP) =  -1138.92657629     A.U. after   15 cycles
 SCF Done:  E(RB3LYP) =  -1138.93173291     A.U. after   12 cycles
 SCF Done:  E(RB3LYP) =  -1138.93205588     A.U. after   13 cycles
 SCF Done:  E(RB3LYP) =  -1138.93244397     A.U. after   13 cycles
 SCF Done:  E(RB3LYP) =  -1138.93310480     A.U. after   11 cycles
 SCF Done:  E(RB3LYP) =  -1138.93316535     A.U. after   12 cycles
 SCF Done:  E(RB3LYP) =  -1138.93321618     A.U. after   12 cycles
 SCF Done:  E(RB3LYP) =  -1138.93325435     A.U. after   12 cycles
 SCF Done:  E(RB3LYP) =  -1138.93328398     A.U. after   12 cycles
 SCF Done:  E(RB3LYP) =  -1138.93330995     A.U. after   12 cycles
 SCF Done:  E(RB3LYP) =  -1138.93332688     A.U. after    8 cycles
 SCF Done:  E(RB3LYP) =  -1138.93332697     A.U. after    6 cycles
 SCF Done:  E(RB3LYP) =  -1138.93332708     A.U. after    8 cycles
 SCF Done:  E(RB3LYP) =  -1138.93332714     A.U. after    8 cycles
 SCF Done:  E(RB3LYP) =  -1138.93332715     A.U. after    7 cycles
 Optimization completed.
    -- Stationary point found.
 Normal termination of Gaussian 16 at Thu Dec 10 21:18:18 2020.

 --------------------------------------------------------------------
 #N Geom=AllCheck Guess=TCheck SCRF=Check GenChk RB3LYP/6-31G(d) Freq
 --------------------------------------------------------------------

 Structure from the checkpoint file:  "JID_6164.chk"
 ------------------------------
 CID_82905612_JID_6164_neutraal
 ------------------------------
 Charge =  0 Multiplicity = 1

 SCF Done:  E(RB3LYP) =  -1138.93332715     A.U. after    1 cycles

  Exact polarizability: 137.620  -1.016 140.748  -5.982  -2.106 113.774
 Approx polarizability: 178.841   0.677 219.032 -15.825 -12.190 191.761

                      1                      2                      3
                      A                      A                      A
 Frequencies --     13.9002                43.0911                49.0204
 Red. masses --      6.0102                 5.7319                 7.1725
 Frc consts  --      0.0007                 0.0063                 0.0102
 IR Inten    --      2.6034                 1.9192                 3.4978

                      4                      5                      6
                      A                      A                      A
 Frequencies --     63.6029                92.0368               132.9718
 Red. masses --     11.6268                 3.3758                 1.2179
 Frc consts  --      0.0277                 0.0168                 0.0127
 IR Inten    --      0.1473                 0.0924                 0.0139

                      7                      8                      9
                      A                      A                      A
 Frequencies --    142.1835               165.6444               208.6816
 Red. masses --      3.1685                 5.6726                 4.0126
 Frc consts  --      0.0377                 0.0917                 0.1030
 IR Inten    --      0.1837                 0.3370                 5.7504

                     10                     11                     12
                      A                      A                      A
 Frequencies --    217.8556               262.4264               279.3326
 Red. masses --      4.9743                 3.5888                 2.5589
 Frc consts  --      0.1391                 0.1456                 0.1176
 IR Inten    --      1.5735                 3.1651                 1.2680

                     13                     14                     15
                      A                      A                      A
 Frequencies --    313.7611               317.7450               363.9061
 Red. masses --      5.4206                 3.6103                 3.6654
 Frc consts  --      0.3144                 0.2148                 0.2860
 IR Inten    --      2.2010                 3.9253                 4.4083

                     16                     17                     18
                      A                      A                      A
 Frequencies --    382.4975               425.6114               458.3874
 Red. masses --      3.8701                 3.0116                 2.2647
 Frc consts  --      0.3336                 0.3214                 0.2804
 IR Inten    --      0.4876                 0.9624                 0.5649

                     19                     20                     21
                      A                      A                      A
 Frequencies --    503.4793               589.2836               614.4211
 Red. masses --      4.1410                 2.8509                 1.6382
 Frc consts  --      0.6185                 0.5833                 0.3644
 IR Inten    --      2.1319                10.1083                42.6242

                     22                     23                     24
                      A                      A                      A
 Frequencies --    637.9479               643.1427               677.6114
 Red. masses --      3.7976                 4.7365                 6.2559
 Frc consts  --      0.9106                 1.1543                 1.6924
 IR Inten    --     57.9828                 8.9963                 1.4161

                     25                     26                     27
                      A                      A                      A
 Frequencies --    687.1492               718.2513               722.2980
 Red. masses --      4.0948                 5.2655                 2.9576
 Frc consts  --      1.1391                 1.6004                 0.9091
 IR Inten    --     11.5601                 7.3293                56.7115

                     28                     29                     30
                      A                      A                      A
 Frequencies --    794.1316               807.3756               810.8337
 Red. masses --      2.8317                 4.7979                 5.9438
 Frc consts  --      1.0522                 1.8427                 2.3024
 IR Inten    --      7.3479                16.9459                17.2073

                     31                     32                     33
                      A                      A                      A
 Frequencies --    836.7967               913.9914               936.9050
 Red. masses --      1.9069                 3.0552                 2.2429
 Frc consts  --      0.7867                 1.5037                 1.1600
 IR Inten    --     10.3170                11.6260                 3.2386

                     34                     35                     36
                      A                      A                      A
 Frequencies --    975.6587               992.1405              1003.9483
 Red. masses --      3.1778                 6.1834                 2.9976
 Frc consts  --      1.7822                 3.5861                 1.7801
 IR Inten    --     14.8161                17.7041                15.4811

                     37                     38                     39
                      A                      A                      A
 Frequencies --   1023.0814              1033.5149              1046.5604
 Red. masses --      2.5702                 2.4182                 2.5933
 Frc consts  --      1.5850                 1.5219                 1.6735
 IR Inten    --      2.6539                 8.9259                 8.7975

                     40                     41                     42
                      A                      A                      A
 Frequencies --   1059.3212              1083.1070              1084.0896
 Red. masses --      2.0385                 2.8132                 1.8308
 Frc consts  --      1.3478                 1.9445                 1.2677
 IR Inten    --     12.8406                13.4051                 5.6851

                     43                     44                     45
                      A                      A                      A
 Frequencies --   1138.9443              1163.9797              1198.3102
 Red. masses --      2.5597                 3.1136                 2.0136
 Frc consts  --      1.9563                 2.4854                 1.7036
 IR Inten    --     37.8691                70.7761               184.5390

                     46                     47                     48
                      A                      A                      A
 Frequencies --   1207.3369              1232.0047              1249.8910
 Red. masses --      1.6134                 2.7748                 1.2421
 Frc consts  --      1.3857                 2.4814                 1.1433
 IR Inten    --      5.0025                35.0600                13.2050

                     49                     50                     51
                      A                      A                      A
 Frequencies --   1279.5452              1286.8890              1333.6001
 Red. masses --      1.4244                 1.2044                 1.7511
 Frc consts  --      1.3740                 1.1752                 1.8349
 IR Inten    --      1.1264                 9.7137                 4.9864

                     52                     53                     54
                      A                      A                      A
 Frequencies --   1354.4953              1360.8117              1373.4852
 Red. masses --      1.2733                 1.4055                 1.7774
 Frc consts  --      1.3763                 1.5334                 1.9756
 IR Inten    --     28.3219                 4.5253                29.7702

                     55                     56                     57
                      A                      A                      A
 Frequencies --   1389.3046              1401.4597              1403.6344
 Red. masses --      1.3596                 1.5006                 2.0422
 Frc consts  --      1.5462                 1.7365                 2.3706
 IR Inten    --     28.4058                 9.9942                22.7804

                     58                     59                     60
                      A                      A                      A
 Frequencies --   1438.9754              1445.1960              1483.1050
 Red. masses --      1.3582                 1.4613                 1.0952
 Frc consts  --      1.6570                 1.7982                 1.4193
 IR Inten    --      5.4656                 9.1049                 2.0653

                     61                     62                     63
                      A                      A                      A
 Frequencies --   1492.6617              1504.0828              1505.2748
 Red. masses --      1.0882                 1.0428                 1.0821
 Frc consts  --      1.4285                 1.3900                 1.4447
 IR Inten    --     11.4124                 9.3499                16.1273

                     64                     65                     66
                      A                      A                      A
 Frequencies --   1508.9768              1522.7717              1612.4455
 Red. masses --      1.1216                 1.0936                 9.7767
 Frc consts  --      1.5048                 1.4941                14.9766
 IR Inten    --      5.9687                 9.5602                19.6055

                     67                     68                     69
                      A                      A                      A
 Frequencies --   1638.2201              1852.1112              2994.7187
 Red. masses --      7.7011                 9.8850                 1.0679
 Frc consts  --     12.1771                19.9785                 5.6425
 IR Inten    --     44.8848               237.6944                33.0019

                     70                     71                     72
                      A                      A                      A
 Frequencies --   3011.6512              3064.6955              3067.2262
 Red. masses --      1.0824                 1.0379                 1.0787
 Frc consts  --      5.7843                 5.7436                 5.9790
 IR Inten    --     19.3887                 9.8902                 6.2306

                     73                     74                     75
                      A                      A                      A
 Frequencies --   3078.9759              3080.6703              3086.7511
 Red. masses --      1.0703                 1.0637                 1.0689
 Frc consts  --      5.9782                 5.9477                 6.0008
 IR Inten    --     25.2313                16.4176                33.9472

                     76                     77                     78
                      A                      A                      A
 Frequencies --   3121.4772              3133.8386              3147.4964
 Red. masses --      1.1018                 1.1061                 1.1051
 Frc consts  --      6.3250                 6.4005                 6.4502
 IR Inten    --      7.2681                 9.7763                 2.7782

                     79                     80                     81
                      A                      A                      A
 Frequencies --   3163.6404              3173.6323              3676.0945
 Red. masses --      1.0966                 1.1006                 1.0639
 Frc consts  --      6.4668                 6.5313                 8.4711
 IR Inten    --      2.4308                 2.0452                61.5027

 - Thermochemistry -
 -------------------
 Temperature   298.150 Kelvin.  Pressure   1.00000 Atm.
 Atom     1 has atomic number  6 and mass  12.00000

 Molecular mass:   243.06776 amu.
 Principal axes and moments of inertia in atomic units:
                           1         2         3
     Eigenvalues --  2755.367155115.934806505.20242
           X            0.99951  -0.02872  -0.01249
           Y            0.02872   0.99959  -0.00021
           Z            0.01249  -0.00015   0.99992
 This molecule is an asymmetric top.
 Rotational symmetry number  1.
 Warning -- assumption of classical behavior for rotation
           may cause significant error
 Rotational temperatures (Kelvin)      0.03143     0.01693     0.01331
 Rotational constants (GHZ):           0.65499     0.35277     0.27743
 Zero-point vibrational energy     605944.9 (Joules/Mol)
                                  144.82431 (Kcal/Mol)
 Warning -- explicit consideration of  21 degrees of freedom as
           vibrations may cause significant error
 Vibrational temperatures:     20.00    62.00    70.53    91.51   132.42
          (Kelvin)            191.32   204.57   238.33   300.25   313.45
                              377.57   401.90   451.43   457.16   523.58
                              550.33   612.36   659.52   724.39   847.85
                              884.01   917.86   925.34   974.93   988.65
                             1033.40  1039.23  1142.58  1161.63  1166.61
                             1203.96  1315.03  1348.00  1403.76  1427.47
                             1444.46  1471.99  1487.00  1505.77  1524.13
                             1558.35  1559.76  1638.69  1674.71  1724.10
                             1737.09  1772.58  1798.31  1840.98  1851.55
                             1918.75  1948.82  1957.90  1976.14  1998.90
                             2016.39  2019.52  2070.36  2079.31  2133.86
                             2147.61  2164.04  2165.75  2171.08  2190.93
                             2319.95  2357.03  2664.77  4308.73  4333.09
                             4409.41  4413.05  4429.96  4432.40  4441.15
                             4491.11  4508.89  4528.55  4551.77  4566.15
                             5289.08

 Zero-point correction=                           0.230792 (Hartree/Particle)
 Thermal correction to Energy=                    0.245933
 Thermal correction to Enthalpy=                  0.246877
 Thermal correction to Gibbs Free Energy=         0.185946
 Sum of electronic and zero-point Energies=          -1138.702535
 Sum of electronic and thermal Energies=             -1138.687394
 Sum of electronic and thermal Enthalpies=           -1138.686450
 Sum of electronic and thermal Free Energies=        -1138.747382

                     E (Thermal)             CV                S
                      KCal/Mol        Cal/Mol-Kelvin    Cal/Mol-Kelvin
 Total                  154.325             55.908            128.242
 Electronic               0.000              0.000              0.000
 Translational            0.889              2.981             42.365
 Rotational               0.889              2.981             32.883
 Vibrational            152.548             49.946             52.993
 Vibration     1          0.593              1.986              7.357
 Vibration     2          0.595              1.980              5.112
 Vibration     3          0.595              1.978              4.857
 Vibration     4          0.597              1.972              4.342
 Vibration     5          0.602              1.955              3.616
 Vibration     6          0.613              1.920              2.903
 Vibration     7          0.616              1.911              2.774
 Vibration     8          0.624              1.885              2.484
 Vibration     9          0.642              1.827              2.055
 Vibration    10          0.646              1.814              1.977
 Vibration    11          0.670              1.742              1.646
 Vibration    12          0.680              1.712              1.538
 Vibration    13          0.702              1.647              1.342
 Vibration    14          0.704              1.640              1.322
 Vibration    15          0.737              1.547              1.105
 Vibration    16          0.752              1.508              1.029
 Vibration    17          0.787              1.415              0.873
 Vibration    18          0.816              1.342              0.771
 Vibration    19          0.859              1.242              0.649
 Vibration    20          0.947              1.055              0.468
 Vibration    21          0.974              1.001              0.426

 Optimization completed.
    -- Stationary point found.
 Normal termination of Gaussian 16 at Thu Dec 10 21:27:57 2020.

 ----------------------------------------------------------------------
 # B3LYP/6-311++G(d,p) empiricaldispersion=gd3bj scf=xqc pop=npa geom=c
 heck
 ----------------------------------------------------------------------

 --------------------------------------
 CID_82905612_JID_6164_Energie_neutraal
 --------------------------------------
 Structure from the checkpoint file:  "JID_6164.chk"
 Charge =  0 Multiplicity = 1

 SCF Done:  E(RB3LYP) =  -1139.17409724     A.U. after   15 cycles
 Normal termination of Gaussian 16 at Thu Dec 10 21:32:16 2020.

 ----------------------------------------------------------------------
 # B3LYP/6-311++G(d,p) empiricaldispersion=gd3bj scf=xqc pop=npa geom=c
 heck
 ----------------------------------------------------------------------

 ------------------------------------
 CID_82905612_JID_6164_Energie_kation
 ------------------------------------
 Structure from the checkpoint file:  "JID_6164.chk"
 Charge =  1 Multiplicity = 2

 SCF Done:  E(UB3LYP) =  -1138.86639136     A.U. after   24 cycles
 Normal termination of Gaussian 16 at Thu Dec 10 21:42:05 2020.
 Gaussian 16:  ES64L-G16RevA.03 25-Dec-2016

 ----------------------------------------------------------------------
 # B3LYP/6-311++G(d,p) empiricaldispersion=gd3bj scf=xqc pop=npa geom=c
 heck
 ----------------------------------------------------------------------

 -----------------------------------
 CID_82905612_JID_6164_Energie_anion
 -----------------------------------
 Structure from the checkpoint file:  "JID_6164.chk"
 Charge = -1 Multiplicity = 2

                         Standard orientation:
 ---------------------------------------------------------------------
 Center     Atomic      Atomic             Coordinates (Angstroms)
 Number     Number       Type             X           Y           Z
 ---------------------------------------------------------------------
      1          6           0        4.169982   -1.582505   -0.873309
      2          6           0        3.275729   -0.505292   -0.383587
      3          7           0        3.290678    0.757882   -0.668657
      4          7           0        2.235566    1.339430    0.049079
      5          6           0        1.670119    0.384914    0.716434
      6          8           0        2.273587   -0.825986    0.493664
      7          6           0        0.453739    0.468409    1.585714
      8          7           0       -0.776375   -0.083092    1.004324
      9          6           0       -0.754845   -1.552582    0.984196
     10          6           0       -2.131641   -2.149538    0.724283
     11         16           0       -2.739437   -1.711391   -0.943589
     12          6           0       -2.548882    0.088691   -0.725944
     13          6           0       -1.124565    0.499108   -0.296009
     14          6           0       -1.136628    2.024820   -0.320212
     15          8           0       -0.925552    2.670809   -1.318994
     16          8           0       -1.522772    2.586442    0.851528
     17          1           0        4.694586   -2.065157   -0.041584
     18          1           0        3.599218   -2.352659   -1.403582
     19          1           0        4.902661   -1.147492   -1.554976
     20          1           0        0.636881   -0.055538    2.529183
     21          1           0        0.298642    1.523313    1.813308
     22          1           0       -0.411944   -1.879523    1.973089
     23          1           0       -0.043650   -1.949772    0.241240
     24          1           0       -2.081852   -3.241242    0.765509
     25          1           0       -2.845876   -1.801768    1.477839
     26          1           0       -3.265653    0.446884    0.019771
     27          1           0       -2.777266    0.550939   -1.689164
     28          1           0       -0.424333    0.199878   -1.091160
     29          1           0       -1.539660    3.548592    0.685747
 ---------------------------------------------------------------------

 SCF Done:  E(UB3LYP) =  -1139.16601150     A.U. after   33 cycles
 SCF Done:  E(UB3LYP) =  -1139.16601150     a.u. after    1 cycles

 The electronic state is 2-A.
 Alpha  occ. eigenvalues --  -88.75356 -19.11179 -19.08544 -19.02989 -14.23935
 Alpha  occ. eigenvalues --  -14.23879 -14.23232 -10.22045 -10.17385 -10.16559
 Alpha  occ. eigenvalues --  -10.13620 -10.12131 -10.12019 -10.10913 -10.10864
 Alpha  occ. eigenvalues --  -10.09690  -7.83989  -5.80366  -5.80045  -5.79348
 Alpha  occ. eigenvalues --   -1.06021  -1.02645  -0.93712  -0.88146  -0.85642
 Alpha  occ. eigenvalues --   -0.75960  -0.72595  -0.69925  -0.65729  -0.62985
 Alpha  occ. eigenvalues --   -0.58848  -0.56301  -0.53675  -0.52130  -0.49778
 Alpha  occ. eigenvalues --   -0.48062  -0.43352  -0.41761  -0.40861  -0.39784
 Alpha  occ. eigenvalues --   -0.39137  -0.38306  -0.37852  -0.35867  -0.34727
 Alpha  occ. eigenvalues --   -0.34206  -0.33552  -0.33343  -0.32302  -0.31633
 Alpha  occ. eigenvalues --   -0.31429  -0.30142  -0.29445  -0.28354  -0.25785
 Alpha  occ. eigenvalues --   -0.24895  -0.24026  -0.22698  -0.22468  -0.19669
 Alpha  occ. eigenvalues --   -0.18787  -0.18021  -0.14786  -0.13999   0.03979
 Alpha virt. eigenvalues --    0.05750   0.06349   0.06926   0.07291   0.08272
 Alpha virt. eigenvalues --    0.08656   0.09038   0.09614   0.10484   0.10536
 Alpha virt. eigenvalues --    0.11567   0.11847   0.12249   0.12550   0.12820

  Beta  occ. eigenvalues --  -88.75353 -19.11131 -19.08505 -19.02978 -14.23945
  Beta  occ. eigenvalues --  -14.23853 -14.23223 -10.22020 -10.17333 -10.16501
  Beta  occ. eigenvalues --  -10.13610 -10.12115 -10.12010 -10.10884 -10.10834
  Beta  occ. eigenvalues --  -10.09652  -7.83986  -5.80361  -5.80044  -5.79343
  Beta  occ. eigenvalues --   -1.05945  -1.02583  -0.93666  -0.88099  -0.85611
  Beta  occ. eigenvalues --   -0.75874  -0.72562  -0.69881  -0.65649  -0.62939
  Beta  occ. eigenvalues --   -0.58774  -0.56247  -0.53619  -0.52049  -0.49697
  Beta  occ. eigenvalues --   -0.48007  -0.43296  -0.41596  -0.40825  -0.39732
  Beta  occ. eigenvalues --   -0.39039  -0.38264  -0.37798  -0.35794  -0.34670
  Beta  occ. eigenvalues --   -0.34143  -0.33489  -0.33260  -0.32242  -0.31587
  Beta  occ. eigenvalues --   -0.31381  -0.30076  -0.29406  -0.28317  -0.25741
  Beta  occ. eigenvalues --   -0.24749  -0.23969  -0.22664  -0.22441  -0.19639
  Beta  occ. eigenvalues --   -0.18749  -0.17793  -0.14758  -0.13975
  Beta virt. eigenvalues --    0.06380   0.06706   0.06808   0.07653   0.07927
  Beta virt. eigenvalues --    0.08404   0.09170   0.09285   0.10288   0.10638
  Beta virt. eigenvalues --    0.10960   0.11639   0.12003   0.12516   0.12689

 Mulliken charges and spin densities:
               1          2
     1  C    1.321555  -1.945685
     2  C   -0.227646   0.723755
     3  N   -0.082358   0.051095
     4  N    0.062901  -0.066628
     5  C    0.030933   0.068767
     6  O    0.058260   0.024650
     7  C   -1.335111   0.151262
     8  N    0.359910   0.078179
     9  C    0.146994  -0.381055
    10  C    0.298887  -0.903335
    11  S    0.079066   0.116283
    12  C   -0.175966  -0.453188
    13  C    0.178096  -0.107767
    14  C   -0.317787  -0.052217
    15  O   -0.217625   0.012376
    16  O   -0.112999   0.016086
    17  H   -0.474826   0.660509
    18  H   -0.137693   0.300559
    19  H   -0.018711   0.186852
    20  H   -0.548355   0.738308
    21  H    0.324750  -0.068722
    22  H   -0.531995   0.730866
    23  H    0.286766  -0.175485
    24  H   -0.407561   0.630814
    25  H    0.116522   0.083569
    26  H    0.065857   0.160639
    27  H    0.255434  -0.049651
    28  H    0.196571  -0.000203
    29  H   -0.193872   0.469369
 Sum of Mulliken charges =  -1.00000   1.00000

 Dipole moment (field-independent basis, Debye):
    X=             -3.3366    Y=              1.2580    Z=             -1.9789  Tot=              4.0781
 Quadrupole moment (field-independent basis, Debye-Ang):
   XX=           -162.9428   YY=           -158.5956   ZZ=           -137.8031
   XY=              2.0013   XZ=              2.2664   YZ=             10.4850

 Summary of Natural Population Analysis:

                                       Natural Population
                Natural  -----------------------------------------------
    Atom  No    Charge         Core      Valence    Rydberg      Total
 -----------------------------------------------------------------------
      C    1   -0.31407      0.99962     2.30907    0.00538     3.31407
      C    2    0.26520      0.99961     1.71624    0.01895     2.73480
      N    3   -0.17126      0.99966     2.65954    0.01206     3.67126
      N    4   -0.15836      0.99966     2.64731    0.01140     3.65836
      C    5    0.25092      0.99958     1.72971    0.01978     2.74908
      O    6   -0.24089      0.99985     3.23283    0.00820     4.24089
      C    7   -0.11666      0.99956     2.10464    0.01246     3.11666
      N    8   -0.27436      0.99971     2.75995    0.01470     3.77436
      C    9   -0.09363      0.99958     2.08002    0.01402     3.09363
      C   10   -0.25214      0.99959     2.24080    0.01175     3.25214
      S   11    0.09332      4.99963     2.88821    0.01884     7.90668
      C   12   -0.24994      0.99956     2.24156    0.00882     3.24994
      C   13   -0.05560      0.99951     2.04153    0.01455     3.05560
      C   14    0.41005      0.99968     1.56271    0.02756     2.58995
      O   15   -0.29846      0.99987     3.29242    0.00618     4.29846
      O   16   -0.34308      0.99987     3.33593    0.00727     4.34308
      H   17    0.11667      0.00000     0.38026    0.00307     0.38333
      H   18    0.11185      0.00000     0.38704    0.00110     0.38815
      H   19    0.11450      0.00000     0.38440    0.00110     0.38550
      H   20    0.11265      0.00000     0.38545    0.00191     0.38735
      H   21    0.11780      0.00000     0.38015    0.00206     0.38220
      H   22    0.10592      0.00000     0.39090    0.00319     0.39408
      H   23    0.08986      0.00000     0.40763    0.00251     0.41014
      H   24    0.11188      0.00000     0.38667    0.00146     0.38812
      H   25    0.10309      0.00000     0.39514    0.00177     0.39691
      H   26    0.10613      0.00000     0.39213    0.00174     0.39387
      H   27    0.11278      0.00000     0.38636    0.00086     0.38722
      H   28    0.10356      0.00000     0.39434    0.00209     0.39644
      H   29    0.24228      0.00000     0.25118    0.00654     0.25772
 =======================================================================
   * Total *   -0.00000     19.99454    43.76413    0.24133    64.00000

 Normal termination of Gaussian 16 at Thu Dec 10 21:55:36 2020.
