 Gaussian 16, Revision A.03,

 -----------------------------------------------------------
 # opt freq B3LYP/6-31G(d) empiricaldispersion=gd3bj scf=xqc
 -----------------------------------------------------------

 -----------------------------
 CID_20843752_JID_541_neutraal
 -----------------------------
 Symbolic Z-matrix:
 Charge =  0 Multiplicity = 1

 SCF Done:  E(RB3LYP) =  -814.940582613     A.U. after   15 cycles
 SCF Done:  E(RB3LYP) =  -814.945726993     A.U. after   13 cycles
 SCF Done:  E(RB3LYP) =  -814.946844059     A.U. after   13 cycles
 SCF Done:  E(RB3LYP) =  -814.947765680     A.U. after   13 cycles
 SCF Done:  E(RB3LYP) =  -814.949003544     A.U. after   14 cycles
 SCF Done:  E(RB3LYP) =  -814.950150422     A.U. after   14 cycles
 SCF Done:  E(RB3LYP) =  -814.950606092     A.U. after   13 cycles
 SCF Done:  E(RB3LYP) =  -814.950883750     A.U. after   13 cycles
 SCF Done:  E(RB3LYP) =  -814.951160869     A.U. after   12 cycles
 SCF Done:  E(RB3LYP) =  -814.951241587     A.U. after   12 cycles
 SCF Done:  E(RB3LYP) =  -814.951279024     A.U. after    9 cycles
 SCF Done:  E(RB3LYP) =  -814.951280386     A.U. after    9 cycles
 SCF Done:  E(RB3LYP) =  -814.951283202     A.U. after    9 cycles
 SCF Done:  E(RB3LYP) =  -814.951285119     A.U. after    9 cycles
 SCF Done:  E(RB3LYP) =  -814.951285696     A.U. after    8 cycles
 SCF Done:  E(RB3LYP) =  -814.951285742     A.U. after    7 cycles
 Optimization completed.
    -- Stationary point found.
 Normal termination of Gaussian 16 at Tue Dec  8 14:18:34 2020.

 --------------------------------------------------------------------
 #N Geom=AllCheck Guess=TCheck SCRF=Check GenChk RB3LYP/6-31G(d) Freq
 --------------------------------------------------------------------

 Structure from the checkpoint file:  "JID_541.chk"
 -----------------------------
 CID_20843752_JID_541_neutraal
 -----------------------------
 Charge =  0 Multiplicity = 1

 SCF Done:  E(RB3LYP) =  -814.951285742     A.U. after    1 cycles

  Exact polarizability: 149.301   2.219 105.701   0.002  -0.001  65.015
 Approx polarizability: 198.231  13.241 177.896   0.002  -0.004  90.123

                      1                      2                      3
                      A                      A                      A
 Frequencies --     31.6659                50.7839                79.5374
 Red. masses --      3.4683                 3.9472                 1.1588
 Frc consts  --      0.0020                 0.0060                 0.0043
 IR Inten    --      2.1770                 1.5660                 0.2368

                      4                      5                      6
                      A                      A                      A
 Frequencies --    107.7635               126.6879               145.1660
 Red. masses --      3.3867                 3.8965                 2.6497
 Frc consts  --      0.0232                 0.0368                 0.0329
 IR Inten    --      1.2490                 2.3728                 1.2569

                      7                      8                      9
                      A                      A                      A
 Frequencies --    212.9677               232.2722               244.6408
 Red. masses --      3.4028                 1.8672                 1.0826
 Frc consts  --      0.0909                 0.0594                 0.0382
 IR Inten    --      2.1533                 0.4414                 0.3967

                     10                     11                     12
                      A                      A                      A
 Frequencies --    263.0367               350.7538               384.1384
 Red. masses --      1.6579                 6.5194                 2.2221
 Frc consts  --      0.0676                 0.4726                 0.1932
 IR Inten    --      1.8379                 5.0323                 0.3364

                     13                     14                     15
                      A                      A                      A
 Frequencies --    387.9668               476.9403               477.0214
 Red. masses --      2.3368                 3.8168                 5.3113
 Frc consts  --      0.2072                 0.5115                 0.7121
 IR Inten    --      4.6766                 1.2392                23.8840

                     16                     17                     18
                      A                      A                      A
 Frequencies --    514.6067               545.8915               683.8781
 Red. masses --      3.6991                 1.1294                 2.9309
 Frc consts  --      0.5772                 0.1983                 0.8076
 IR Inten    --      4.9282                79.8597                 4.6170

                     19                     20                     21
                      A                      A                      A
 Frequencies --    688.2941               712.7668               778.5695
 Red. masses --      8.5531                 1.8799                 4.2256
 Frc consts  --      2.3874                 0.5627                 1.5092
 IR Inten    --      1.8506                78.2292                 0.2174

                     22                     23                     24
                      A                      A                      A
 Frequencies --    878.3843              1014.0058              1049.9238
 Red. masses --      3.7647                 1.3564                 1.6632
 Frc consts  --      1.7114                 0.8217                 1.0802
 IR Inten    --     15.1341                 3.3398                12.4690

                     25                     26                     27
                      A                      A                      A
 Frequencies --   1059.6212              1095.9742              1117.1247
 Red. masses --      3.9547                 2.4442                 2.3100
 Frc consts  --      2.6162                 1.7297                 1.6985
 IR Inten    --      2.5481                17.0331               140.7659

                     28                     29                     30
                      A                      A                      A
 Frequencies --   1128.3830              1157.6931              1197.3891
 Red. masses --      1.2255                 1.2675                 1.4604
 Frc consts  --      0.9193                 1.0009                 1.2337
 IR Inten    --      5.6982                 0.0254                 9.2685

                     31                     32                     33
                      A                      A                      A
 Frequencies --   1230.6626              1267.2421              1292.7754
 Red. masses --      2.2361                 3.3799                 2.3633
 Frc consts  --      1.9954                 3.1980                 2.3271
 IR Inten    --     76.5631                 7.0724                 4.1215

                     34                     35                     36
                      A                      A                      A
 Frequencies --   1344.7996              1384.2719              1405.0867
 Red. masses --      2.9298                 1.8866                 1.3552
 Frc consts  --      3.1218                 2.1300                 1.5764
 IR Inten    --    214.3733                61.9516                27.8381

                     37                     38                     39
                      A                      A                      A
 Frequencies --   1462.0426              1479.1450              1487.3364
 Red. masses --      1.1513                 1.4584                 1.1647
 Frc consts  --      1.4500                 1.8800                 1.5180
 IR Inten    --      0.1091                91.7335                 2.2300

                     40                     41                     42
                      A                      A                      A
 Frequencies --   1502.6195              1504.6405              1509.4481
 Red. masses --      1.6187                 1.0435                 1.0530
 Frc consts  --      2.1533                 1.3919                 1.4135
 IR Inten    --    107.4967                 5.8912                11.2172

                     43                     44                     45
                      A                      A                      A
 Frequencies --   1526.2898              1528.1749              1533.6182
 Red. masses --      1.0474                 1.0896                 1.1378
 Frc consts  --      1.4376                 1.4992                 1.5767
 IR Inten    --      3.3302                56.0716                14.6886

                     46                     47                     48
                      A                      A                      A
 Frequencies --   1540.2060              1570.3734              1699.8971
 Red. masses --      1.0515                 1.8663                 3.6557
 Frc consts  --      1.4697                 2.7116                 6.2239
 IR Inten    --      1.5115               336.8336               760.6404

                     49                     50                     51
                      A                      A                      A
 Frequencies --   2976.1826              2981.5336              3063.9248
 Red. masses --      1.0569                 1.0583                 1.0321
 Frc consts  --      5.5160                 5.5427                 5.7083
 IR Inten    --     30.9184                82.5758                57.1123

                     52                     53                     54
                      A                      A                      A
 Frequencies --   3099.5946              3103.1242              3125.0928
 Red. masses --      1.0772                 1.0752                 1.1053
 Frc consts  --      6.0978                 6.1003                 6.3602
 IR Inten    --      9.3800                56.3638                22.4846

                     55                     56                     57
                      A                      A                      A
 Frequencies --   3151.7388              3152.5717              3154.0546
 Red. masses --      1.1042                 1.1034                 1.0940
 Frc consts  --      6.4626                 6.4611                 6.4119
 IR Inten    --     30.8703                10.9053                 3.7890

                     58                     59                     60
                      A                      A                      A
 Frequencies --   3155.5371              3362.6516              3639.5067
 Red. masses --      1.0994                 1.0818                 1.0777
 Frc consts  --      6.4498                 7.2069                 8.4104
 IR Inten    --     43.3884               150.7706                61.1704

 - Thermochemistry -
 -------------------
 Temperature   298.150 Kelvin.  Pressure   1.00000 Atm.
 Atom     1 has atomic number  6 and mass  12.00000

 Molecular mass:   160.07827 amu.
 Principal axes and moments of inertia in atomic units:
                           1         2         3
     Eigenvalues --   847.861013263.441613733.76631
           X            0.99994   0.01059   0.00000
           Y           -0.01059   0.99994   0.00001
           Z           -0.00000  -0.00001   1.00000
 This molecule is an asymmetric top.
 Rotational symmetry number  1.
 Warning -- assumption of classical behavior for rotation
           may cause significant error
 Rotational temperatures (Kelvin)      0.10216     0.02654     0.02320
 Rotational constants (GHZ):           2.12858     0.55302     0.48336
 Zero-point vibrational energy     487047.5 (Joules/Mol)
                                  116.40716 (Kcal/Mol)
 Warning -- explicit consideration of  17 degrees of freedom as
           vibrations may cause significant error
 Vibrational temperatures:     45.56    73.07   114.44   155.05   182.28
          (Kelvin)            208.86   306.41   334.19   351.98   378.45
                              504.66   552.69   558.20   686.21   686.33
                              740.40   785.42   983.95   990.30  1025.51
                             1120.19  1263.80  1458.93  1510.61  1524.56
                             1576.86  1607.29  1623.49  1665.66  1722.78
                             1770.65  1823.28  1860.02  1934.87  1991.66
                             2021.61  2103.55  2128.16  2139.95  2161.93
                             2164.84  2171.76  2195.99  2198.70  2206.53
                             2216.01  2259.42  2445.77  4282.06  4289.76
                             4408.30  4459.63  4464.70  4496.31  4534.65
                             4535.85  4537.98  4540.11  4838.11  5236.44

 Zero-point correction=                           0.185507 (Hartree/Particle)
 Thermal correction to Energy=                    0.197596
 Thermal correction to Enthalpy=                  0.198540
 Thermal correction to Gibbs Free Energy=         0.146045
 Sum of electronic and zero-point Energies=           -814.765779
 Sum of electronic and thermal Energies=              -814.753690
 Sum of electronic and thermal Enthalpies=            -814.752746
 Sum of electronic and thermal Free Energies=         -814.805241

                     E (Thermal)             CV                S
                      KCal/Mol        Cal/Mol-Kelvin    Cal/Mol-Kelvin
 Total                  123.993             41.989            110.485
 Electronic               0.000              0.000              0.000
 Translational            0.889              2.981             41.120
 Rotational               0.889              2.981             30.714
 Vibrational            122.216             36.027             38.651
 Vibration     1          0.594              1.983              5.722
 Vibration     2          0.595              1.977              4.787
 Vibration     3          0.600              1.963              3.902
 Vibration     4          0.606              1.943              3.309
 Vibration     5          0.611              1.926              2.996
 Vibration     6          0.617              1.908              2.735
 Vibration     7          0.644              1.821              2.018
 Vibration     8          0.653              1.792              1.861
 Vibration     9          0.660              1.772              1.769
 Vibration    10          0.670              1.741              1.642
 Vibration    11          0.728              1.574              1.163
 Vibration    12          0.753              1.504              1.023
 Vibration    13          0.756              1.496              1.008
 Vibration    14          0.834              1.301              0.718
 Vibration    15          0.834              1.301              0.718
 Vibration    16          0.870              1.218              0.623
 Vibration    17          0.901              1.149              0.553

 Optimization completed.
    -- Stationary point found.
 Normal termination of Gaussian 16 at Tue Dec  8 14:24:32 2020.

 ----------------------------------------------------------------------
 # B3LYP/6-311++G(d,p) empiricaldispersion=gd3bj scf=xqc pop=npa geom=c
 heck
 ----------------------------------------------------------------------

 -------------------------------------
 CID_20843752_JID_541_Energie_neutraal
 -------------------------------------
 Structure from the checkpoint file:  "JID_541.chk"
 Charge =  0 Multiplicity = 1

 SCF Done:  E(RB3LYP) =  -815.101002558     A.U. after   15 cycles
 Normal termination of Gaussian 16 at Tue Dec  8 14:28:13 2020.

 ----------------------------------------------------------------------
 # B3LYP/6-311++G(d,p) empiricaldispersion=gd3bj scf=xqc pop=npa geom=c
 heck
 ----------------------------------------------------------------------

 -----------------------------------
 CID_20843752_JID_541_Energie_kation
 -----------------------------------
 Structure from the checkpoint file:  "JID_541.chk"
 Charge =  1 Multiplicity = 2

 SCF Done:  E(UB3LYP) =  -814.819554472     A.U. after   23 cycles
 Normal termination of Gaussian 16 at Tue Dec  8 14:34:00 2020.
 Gaussian 16:  ES64L-G16RevA.03 25-Dec-2016

 ----------------------------------------------------------------------
 # B3LYP/6-311++G(d,p) empiricaldispersion=gd3bj scf=xqc pop=npa geom=c
 heck
 ----------------------------------------------------------------------

 ----------------------------------
 CID_20843752_JID_541_Energie_anion
 ----------------------------------
 Structure from the checkpoint file:  "JID_541.chk"
 Charge = -1 Multiplicity = 2

                         Standard orientation:
 ---------------------------------------------------------------------
 Center     Atomic      Atomic             Coordinates (Angstroms)
 Number     Number       Type             X           Y           Z
 ---------------------------------------------------------------------
      1          6           0       -3.415733   -1.574192   -0.000049
      2          7           0       -2.949158   -0.197304   -0.000121
      3          6           0       -1.652730    0.184074    0.000053
      4         16           0       -1.301445    1.857546   -0.000017
      5          7           0       -0.799298   -0.891433    0.000277
      6          6           0        0.502571   -0.787986    0.000230
      7          7           0        1.283833    0.297677   -0.000042
      8          7           0        2.694058    0.245796   -0.000103
      9          6           0        3.226363   -0.347653    1.223810
     10          6           0        3.226232   -0.347918   -1.223922
     11          1           0       -3.061568   -2.110892   -0.885410
     12          1           0       -4.508203   -1.561065    0.000233
     13          1           0       -3.061071   -2.110915    0.885079
     14          1           0       -3.622420    0.555253   -0.000279
     15          1           0        1.052436   -1.730215    0.000405
     16          1           0        0.836473    1.219945   -0.000234
     17          1           0        3.022183   -1.428382    1.320658
     18          1           0        4.311070   -0.203335    1.231012
     19          1           0        2.797598    0.170269    2.084859
     20          1           0        3.021983   -1.428661   -1.320548
     21          1           0        2.797432    0.169838   -2.085058
     22          1           0        4.310951   -0.203671   -1.231265
 ---------------------------------------------------------------------

 SCF Done:  E(UB3LYP) =  -815.092584661     A.U. after   32 cycles

 The electronic state is 2-A.
 Alpha  occ. eigenvalues --  -88.60464 -14.21905 -14.18083 -14.16128 -14.11676
 Alpha  occ. eigenvalues --  -10.07911 -10.07910 -10.06107 -10.06073 -10.04588
 Alpha  occ. eigenvalues --   -7.69238  -5.65621  -5.65027  -5.64887  -0.86334
 Alpha  occ. eigenvalues --   -0.79467  -0.73827  -0.67409  -0.60104  -0.58398
 Alpha  occ. eigenvalues --   -0.52731  -0.50692  -0.46677  -0.42704  -0.38835
 Alpha  occ. eigenvalues --   -0.35139  -0.35002  -0.32807  -0.32415  -0.30011
 Alpha  occ. eigenvalues --   -0.29012  -0.28845  -0.26414  -0.26379  -0.24276
 Alpha  occ. eigenvalues --   -0.22761  -0.20748  -0.17144  -0.12125  -0.09361
 Alpha  occ. eigenvalues --   -0.08278  -0.04834  -0.03480   0.07050
 Alpha virt. eigenvalues --    0.07742   0.09239   0.09653   0.10918   0.12174
 Alpha virt. eigenvalues --    0.12410   0.13353   0.13745   0.14462   0.14694
 Alpha virt. eigenvalues --    0.14758   0.15954   0.17122   0.18087   0.18556

  Beta  occ. eigenvalues --  -88.60427 -14.21924 -14.17786 -14.15949 -14.11893
  Beta  occ. eigenvalues --  -10.07891 -10.07890 -10.06087 -10.05491 -10.03917
  Beta  occ. eigenvalues --   -7.69204  -5.65622  -5.64886  -5.64868  -0.85975
  Beta  occ. eigenvalues --   -0.78931  -0.73405  -0.67140  -0.60050  -0.57965
  Beta  occ. eigenvalues --   -0.52359  -0.50425  -0.46133  -0.42315  -0.38719
  Beta  occ. eigenvalues --   -0.34909  -0.34694  -0.32627  -0.32291  -0.29582
  Beta  occ. eigenvalues --   -0.28936  -0.28730  -0.26372  -0.26195  -0.24026
  Beta  occ. eigenvalues --   -0.20948  -0.20240  -0.14993  -0.12078  -0.09421
  Beta  occ. eigenvalues --   -0.07306  -0.03834  -0.03405
  Beta virt. eigenvalues --    0.07663   0.09214   0.09617   0.10844   0.12117
  Beta virt. eigenvalues --    0.12325   0.13224   0.13707   0.14305   0.14435
  Beta virt. eigenvalues --    0.14738   0.15008   0.15923   0.17087   0.18088

 Mulliken charges and spin densities:
               1          2
     1  C   -0.308684  -0.002881
     2  N   -0.119594   0.092343
     3  C   -0.013426   0.287078
     4  S   -0.829010   0.144106
     5  N   -0.135313  -0.133984
     6  C   -0.364826   0.555084
     7  N   -0.077926   0.072691
     8  N   -0.069788   0.001613
     9  C   -0.330652   0.004788
    10  C   -0.330706   0.004853
    11  H    0.139933   0.011954
    12  H    0.087444  -0.000589
    13  H    0.140293   0.011642
    14  H    0.233064  -0.005419
    15  H    0.103125  -0.042315
    16  H    0.157701  -0.010431
    17  H    0.098731   0.001212
    18  H    0.108022   0.003077
    19  H    0.152392   0.000488
    20  H    0.098735   0.001214
    21  H    0.152392   0.000479
    22  H    0.108095   0.002998
 Sum of Mulliken charges =  -1.00000   1.00000

 Dipole moment (field-independent basis, Debye):
    X=              3.9203    Y=             -4.0782    Z=             -0.0011  Tot=              5.6569
 Quadrupole moment (field-independent basis, Debye-Ang):
   XX=            -85.2377   YY=            -92.2093   ZZ=            -78.6350
   XY=              4.9147   XZ=             -0.0003   YZ=             -0.0013

 Summary of Natural Population Analysis:

                                       Natural Population
                Natural  -----------------------------------------------
    Atom  No    Charge         Core      Valence    Rydberg      Total
 -----------------------------------------------------------------------
      C    1   -0.17633      0.99966     2.16881    0.00786     3.17633
      N    2   -0.29122      0.99964     2.77836    0.01323     3.79122
      C    3    0.25265      0.99964     1.72929    0.01843     2.74735
      S    4   -0.22456      4.99962     3.21080    0.01415     8.22456
      N    5   -0.36020      0.99966     2.84800    0.01253     3.86020
      C    6    0.28478      0.99965     1.69950    0.01607     2.71522
      N    7   -0.19620      0.99965     2.68192    0.01463     3.69620
      N    8   -0.18728      0.99974     2.67277    0.01477     3.68728
      C    9   -0.17426      0.99965     2.16756    0.00705     3.17426
      C   10   -0.17426      0.99965     2.16756    0.00705     3.17426
      H   11    0.09229      0.00000     0.40594    0.00177     0.40771
      H   12    0.08157      0.00000     0.41750    0.00093     0.41843
      H   13    0.09231      0.00000     0.40592    0.00177     0.40769
      H   14    0.18710      0.00000     0.31104    0.00186     0.31290
      H   15    0.05910      0.00000     0.43931    0.00160     0.44090
      H   16    0.20743      0.00000     0.29030    0.00227     0.29257
      H   17    0.07875      0.00000     0.41929    0.00195     0.42125
      H   18    0.08430      0.00000     0.41461    0.00109     0.41570
      H   19    0.10050      0.00000     0.39856    0.00094     0.39950
      H   20    0.07875      0.00000     0.41930    0.00195     0.42125
      H   21    0.10050      0.00000     0.39856    0.00094     0.39950
      H   22    0.08429      0.00000     0.41461    0.00109     0.41571
 =======================================================================
   * Total *    0.00000     13.99657    28.85951    0.14392    43.00000

 Normal termination of Gaussian 16 at Tue Dec  8 14:40:24 2020.
