 Gaussian 16, Revision A.03,

 -----------------------------------------------------------
 # opt freq B3LYP/6-31G(d) empiricaldispersion=gd3bj scf=xqc
 -----------------------------------------------------------

 ------------------------------
 CID_58151881_JID_6069_neutraal
 ------------------------------
 Symbolic Z-matrix:
 Charge =  0 Multiplicity = 1

 SCF Done:  E(RB3LYP) =  -678.600144618     A.U. after   14 cycles
 SCF Done:  E(RB3LYP) =  -678.600411287     A.U. after   12 cycles
 SCF Done:  E(RB3LYP) =  -678.604505448     A.U. after   13 cycles
 SCF Done:  E(RB3LYP) =  -678.601636558     A.U. after   12 cycles
 SCF Done:  E(RB3LYP) =  -678.605603949     A.U. after   12 cycles
 SCF Done:  E(RB3LYP) =  -678.606248937     A.U. after   12 cycles
 SCF Done:  E(RB3LYP) =  -678.606602130     A.U. after   13 cycles
 SCF Done:  E(RB3LYP) =  -678.606806447     A.U. after   11 cycles
 SCF Done:  E(RB3LYP) =  -678.606931027     A.U. after   11 cycles
 SCF Done:  E(RB3LYP) =  -678.606964020     A.U. after   11 cycles
 SCF Done:  E(RB3LYP) =  -678.609793808     A.U. after    8 cycles
 SCF Done:  E(RB3LYP) =  -678.609795097     A.U. after    8 cycles
 SCF Done:  E(RB3LYP) =  -678.609795711     A.U. after    7 cycles
 SCF Done:  E(RB3LYP) =  -678.609796256     A.U. after    7 cycles
 SCF Done:  E(RB3LYP) =  -678.609796479     A.U. after    7 cycles
 Optimization completed.
    -- Stationary point found.
 Normal termination of Gaussian 16 at Thu Dec 10 21:36:59 2020.

 --------------------------------------------------------------------
 #N Geom=AllCheck Guess=TCheck SCRF=Check GenChk RB3LYP/6-31G(d) Freq
 --------------------------------------------------------------------

 Structure from the checkpoint file:  "JID_6069.chk"
 ------------------------------
 CID_58151881_JID_6069_neutraal
 ------------------------------
 Charge =  0 Multiplicity = 1

 SCF Done:  E(RB3LYP) =  -678.609796479     A.U. after    1 cycles

  Exact polarizability: 165.285  -1.808 145.200   1.465   0.452 138.262
 Approx polarizability: 211.192  -0.032 200.278   0.221  -3.637 220.374

                      1                      2                      3
                      A                      A                      A
 Frequencies --     26.1551                37.9357                54.1878
 Red. masses --      3.3952                 3.4593                 3.1813
 Frc consts  --      0.0014                 0.0029                 0.0055
 IR Inten    --      0.0470                 0.4261                 0.3605

                      4                      5                      6
                      A                      A                      A
 Frequencies --     84.9610               106.2806               158.1538
 Red. masses --      3.9320                 4.5825                 2.8783
 Frc consts  --      0.0167                 0.0305                 0.0424
 IR Inten    --      1.0569                 3.5182                 0.3932

                      7                      8                      9
                      A                      A                      A
 Frequencies --    176.7610               213.8332               239.6195
 Red. masses --      2.7562                 3.1683                 1.1092
 Frc consts  --      0.0507                 0.0854                 0.0375
 IR Inten    --      1.6182                 1.0138                 0.0464

                     10                     11                     12
                      A                      A                      A
 Frequencies --    249.4890               282.6575               304.8440
 Red. masses --      1.8933                 2.4825                 2.1461
 Frc consts  --      0.0694                 0.1169                 0.1175
 IR Inten    --      0.6844                 0.0689                 0.0090

                     13                     14                     15
                      A                      A                      A
 Frequencies --    317.7665               328.9753               357.2137
 Red. masses --      2.9171                 2.3150                 2.1508
 Frc consts  --      0.1735                 0.1476                 0.1617
 IR Inten    --      0.2065                 7.6081                 0.1294

                     16                     17                     18
                      A                      A                      A
 Frequencies --    367.9427               416.0441               429.1693
 Red. masses --      2.7779                 1.9877                 2.6002
 Frc consts  --      0.2216                 0.2027                 0.2822
 IR Inten    --      1.0848                 3.9933                 0.2191

                     19                     20                     21
                      A                      A                      A
 Frequencies --    431.5578               451.4593               462.3258
 Red. masses --      2.1367                 3.1846                 3.0206
 Frc consts  --      0.2345                 0.3824                 0.3804
 IR Inten    --      0.8166                 1.1440                 1.6969

                     22                     23                     24
                      A                      A                      A
 Frequencies --    473.5084               537.9640               568.6059
 Red. masses --      2.7130                 2.0596                 1.9970
 Frc consts  --      0.3584                 0.3512                 0.3804
 IR Inten    --      0.5419                 4.3335                 0.3950

                     25                     26                     27
                      A                      A                      A
 Frequencies --    651.8095               679.0531               779.2475
 Red. masses --      3.7556                 2.8916                 3.0971
 Frc consts  --      0.9401                 0.7856                 1.1080
 IR Inten    --      0.8359                19.9431                 5.8621

                     28                     29                     30
                      A                      A                      A
 Frequencies --    785.3580               799.8518               829.2686
 Red. masses --      2.5192                 1.5035                 1.4834
 Frc consts  --      0.9155                 0.5667                 0.6010
 IR Inten    --     10.0159                 0.0770                 0.5006

                     31                     32                     33
                      A                      A                      A
 Frequencies --    847.1032               874.6620               882.8118
 Red. masses --      3.0292                 2.0405                 1.9178
 Frc consts  --      1.2807                 0.9197                 0.8806
 IR Inten    --      4.5594                 5.9708                 6.2351

                     34                     35                     36
                      A                      A                      A
 Frequencies --    888.2064               894.7144               915.6244
 Red. masses --      2.1633                 2.1711                 2.2129
 Frc consts  --      1.0055                 1.0240                 1.0931
 IR Inten    --      2.5013                 0.9171                11.5562

                     37                     38                     39
                      A                      A                      A
 Frequencies --    956.1130               976.1158               987.0721
 Red. masses --      1.4053                 1.9395                 1.4756
 Frc consts  --      0.7569                 1.0888                 0.8471
 IR Inten    --      5.0814                 4.5956                12.8883

                     40                     41                     42
                      A                      A                      A
 Frequencies --    988.3158               993.1277              1000.4431
 Red. masses --      1.6199                 1.5817                 1.7096
 Frc consts  --      0.9322                 0.9191                 1.0082
 IR Inten    --      1.9217                 4.1142                 3.3418

                     43                     44                     45
                      A                      A                      A
 Frequencies --   1019.7188              1053.7327              1062.3684
 Red. masses --      2.2339                 2.0114                 2.1427
 Frc consts  --      1.3686                 1.3159                 1.4248
 IR Inten    --      3.4061                 6.3121                14.8927

                     46                     47                     48
                      A                      A                      A
 Frequencies --   1086.9475              1106.4318              1110.2136
 Red. masses --      1.5130                 2.1587                 1.3740
 Frc consts  --      1.0532                 1.5570                 0.9978
 IR Inten    --      3.6666                 3.9598                 0.2989

                     49                     50                     51
                      A                      A                      A
 Frequencies --   1122.1949              1134.1790              1141.1860
 Red. masses --      2.5247                 1.4777                 2.6523
 Frc consts  --      1.8733                 1.1199                 2.0351
 IR Inten    --     12.8718                 1.6611                17.0024

                     52                     53                     54
                      A                      A                      A
 Frequencies --   1156.0292              1167.0057              1186.8675
 Red. masses --      2.0325                 1.8682                 1.6925
 Frc consts  --      1.6004                 1.4991                 1.4047
 IR Inten    --     12.5239                21.6268                12.4573

                     55                     56                     57
                      A                      A                      A
 Frequencies --   1193.1074              1195.4603              1238.0574
 Red. masses --      1.4441                 1.7579                 1.5156
 Frc consts  --      1.2112                 1.4802                 1.3687
 IR Inten    --      5.0353                 3.5515                 0.9593

                     58                     59                     60
                      A                      A                      A
 Frequencies --   1241.1553              1261.9623              1297.1510
 Red. masses --      1.4585                 1.4233                 1.3681
 Frc consts  --      1.3237                 1.3355                 1.3563
 IR Inten    --     40.7819                 1.1943                 5.4119

                     61                     62                     63
                      A                      A                      A
 Frequencies --   1307.0017              1309.8072              1320.4250
 Red. masses --      1.2003                 1.2395                 1.3223
 Frc consts  --      1.2081                 1.2529                 1.3584
 IR Inten    --      0.8394                 3.5631                 6.3914

                     64                     65                     66
                      A                      A                      A
 Frequencies --   1328.9996              1345.7340              1348.8906
 Red. masses --      1.4266                 1.3480                 1.3339
 Frc consts  --      1.4845                 1.4383                 1.4300
 IR Inten    --     16.2627                 6.5254                 7.8851

                     67                     68                     69
                      A                      A                      A
 Frequencies --   1355.0875              1373.2325              1383.5450
 Red. masses --      1.3517                 1.3037                 1.5253
 Frc consts  --      1.4624                 1.4485                 1.7203
 IR Inten    --      0.4503                 2.7601                10.5738

                     70                     71                     72
                      A                      A                      A
 Frequencies --   1387.2457              1390.0424              1398.8404
 Red. masses --      1.4024                 1.6781                 1.4716
 Frc consts  --      1.5901                 1.9104                 1.6966
 IR Inten    --      0.4155                 8.4844                 2.3776

                     73                     74                     75
                      A                      A                      A
 Frequencies --   1402.3262              1407.7634              1410.9732
 Red. masses --      1.4114                 1.4690                 1.4169
 Frc consts  --      1.6353                 1.7153                 1.6620
 IR Inten    --      0.8765                 0.6667                 2.8209

                     76                     77                     78
                      A                      A                      A
 Frequencies --   1422.1251              1424.0809              1438.7758
 Red. masses --      1.5808                 1.5019                 1.2424
 Frc consts  --      1.8836                 1.7946                 1.5153
 IR Inten    --      2.6897                 1.0220                 2.3459

                     79                     80                     81
                      A                      A                      A
 Frequencies --   1446.0665              1504.9407              1505.9716
 Red. masses --      1.4757                 1.0923                 1.0897
 Frc consts  --      1.8181                 1.4575                 1.4561
 IR Inten    --     13.9144                 0.6211                 2.6785

                     82                     83                     84
                      A                      A                      A
 Frequencies --   1512.3055              1513.3128              1518.6040
 Red. masses --      1.0893                 1.0860                 1.0889
 Frc consts  --      1.4678                 1.4654                 1.4796
 IR Inten    --      9.9743                 2.9843                 8.1300

                     85                     86                     87
                      A                      A                      A
 Frequencies --   1519.3628              1525.1576              1526.9724
 Red. masses --      1.0902                 1.1069                 1.0495
 Frc consts  --      1.4828                 1.5170                 1.4418
 IR Inten    --      3.0991                 8.8987                 6.4559

                     88                     89                     90
                      A                      A                      A
 Frequencies --   1527.6503              1530.9977              1534.3220
 Red. masses --      1.0814                 1.0574                 1.0884
 Frc consts  --      1.4869                 1.4603                 1.5096
 IR Inten    --      2.8674                 3.0364                 5.6331

                     91                     92                     93
                      A                      A                      A
 Frequencies --   1543.7593              1794.4236              2909.7289
 Red. masses --      1.0991                11.1663                 1.0740
 Frc consts  --      1.5433                21.1840                 5.3575
 IR Inten    --      4.8207               104.4325                21.9784

                     94                     95                     96
                      A                      A                      A
 Frequencies --   2917.6075              2975.7906              2985.1570
 Red. masses --      1.0727                 1.0697                 1.0810
 Frc consts  --      5.3800                 5.5809                 5.6756
 IR Inten    --    133.4889                62.7492                32.1812

                     97                     98                     99
                      A                      A                      A
 Frequencies --   2990.1411              3027.7586              3034.1444
 Red. masses --      1.0825                 1.0671                 1.0511
 Frc consts  --      5.7027                 5.7637                 5.7013
 IR Inten    --     23.7949                29.8800                 4.1659

                    100                    101                    102
                      A                      A                      A
 Frequencies --   3034.9383              3038.0187              3041.1055
 Red. masses --      1.0620                 1.0553                 1.0687
 Frc consts  --      5.7634                 5.7386                 5.8230
 IR Inten    --      7.4478                52.3954                68.4628

                    103                    104                    105
                      A                      A                      A
 Frequencies --   3044.3615              3045.3581              3045.9923
 Red. masses --      1.0612                 1.0618                 1.0619
 Frc consts  --      5.7950                 5.8019                 5.8051
 IR Inten    --     23.8807                12.4967                36.6028

                    106                    107                    108
                      A                      A                      A
 Frequencies --   3072.7137              3078.5501              3080.5824
 Red. masses --      1.0878                 1.1003                 1.0936
 Frc consts  --      6.0512                 6.1442                 6.1144
 IR Inten    --     36.1121                27.1744                55.1997

                    109                    110                    111
                      A                      A                      A
 Frequencies --   3086.5491              3087.5729              3092.9460
 Red. masses --      1.0997                 1.1041                 1.1052
 Frc consts  --      6.1724                 6.2015                 6.2295
 IR Inten    --     32.0084                27.4462                74.3110

                    112                    113                    114
                      A                      A                      A
 Frequencies --   3094.0674              3101.6384              3106.0110
 Red. masses --      1.0917                 1.1009                 1.0936
 Frc consts  --      6.1575                 6.2400                 6.2159
 IR Inten    --     40.2358                55.7079                26.6928

                    115                    116                    117
                      A                      A                      A
 Frequencies --   3106.4046              3107.1643              3128.6050
 Red. masses --      1.1018                 1.0965                 1.0877
 Frc consts  --      6.2642                 6.2370                 6.2725
 IR Inten    --     54.4804                35.7007                 9.3894

 - Thermochemistry -
 -------------------
 Temperature   298.150 Kelvin.  Pressure   1.00000 Atm.
 Atom     1 has atomic number  6 and mass  12.00000

 Molecular mass:   223.19361 amu.
 Principal axes and moments of inertia in atomic units:
                           1         2         3
     Eigenvalues --  2317.216355049.573855857.09937
           X            0.99996   0.00945  -0.00012
           Y           -0.00943   0.99913   0.04057
           Z            0.00051  -0.04057   0.99918
 This molecule is an asymmetric top.
 Rotational symmetry number  1.
 Warning -- assumption of classical behavior for rotation
           may cause significant error
 Rotational temperatures (Kelvin)      0.03738     0.01715     0.01479
 Rotational constants (GHZ):           0.77884     0.35740     0.30813
 Zero-point vibrational energy     993329.5 (Joules/Mol)
                                  237.41145 (Kcal/Mol)
 Warning -- explicit consideration of  24 degrees of freedom as
           vibrations may cause significant error
 Vibrational temperatures:     37.63    54.58    77.96   122.24   152.91
          (Kelvin)            227.55   254.32   307.66   344.76   358.96
                              406.68   438.60   457.20   473.32   513.95
                              529.39   598.59   617.48   620.92   649.55
                              665.18   681.27   774.01   818.10   937.81
                              977.01  1121.16  1129.96  1150.81  1193.13
                             1218.79  1258.44  1270.17  1277.93  1287.29
                             1317.38  1375.63  1404.41  1420.18  1421.97
                             1428.89  1439.41  1467.15  1516.09  1528.51
                             1563.88  1591.91  1597.35  1614.59  1631.83
                             1641.91  1663.27  1679.06  1707.64  1716.62
                             1720.00  1781.29  1785.75  1815.68  1866.31
                             1880.48  1884.52  1899.80  1912.13  1936.21
                             1940.75  1949.67  1975.78  1990.61  1995.94
                             1999.96  2012.62  2017.63  2025.46  2030.08
                             2046.12  2048.93  2070.08  2080.57  2165.27
                             2166.76  2175.87  2177.32  2184.93  2186.02
                             2194.36  2196.97  2197.95  2202.76  2207.55
                             2221.13  2581.78  4186.45  4197.79  4281.50
                             4294.98  4302.15  4356.27  4365.46  4366.60
                             4371.03  4375.47  4380.16  4381.59  4382.50
                             4420.95  4429.35  4432.27  4440.86  4442.33
                             4450.06  4451.67  4462.57  4468.86  4469.42
                             4470.52  4501.36

 Zero-point correction=                           0.378339 (Hartree/Particle)
 Thermal correction to Energy=                    0.394054
 Thermal correction to Enthalpy=                  0.394999
 Thermal correction to Gibbs Free Energy=         0.334847
 Sum of electronic and zero-point Energies=           -678.231457
 Sum of electronic and thermal Energies=              -678.215742
 Sum of electronic and thermal Enthalpies=            -678.214798
 Sum of electronic and thermal Free Energies=         -678.274949

                     E (Thermal)             CV                S
                      KCal/Mol        Cal/Mol-Kelvin    Cal/Mol-Kelvin
 Total                  247.273             62.497            126.600
 Electronic               0.000              0.000              0.000
 Translational            0.889              2.981             42.111
 Rotational               0.889              2.981             32.594
 Vibrational            245.495             56.535             51.894
 Vibration     1          0.593              1.985              6.102
 Vibration     2          0.594              1.982              5.364
 Vibration     3          0.596              1.976              4.658
 Vibration     4          0.601              1.960              3.773
 Vibration     5          0.605              1.944              3.336
 Vibration     6          0.621              1.893              2.572
 Vibration     7          0.628              1.871              2.362
 Vibration     8          0.644              1.820              2.011
 Vibration     9          0.657              1.780              1.806
 Vibration    10          0.662              1.764              1.734
 Vibration    11          0.682              1.706              1.518
 Vibration    12          0.696              1.665              1.390
 Vibration    13          0.704              1.640              1.322
 Vibration    14          0.712              1.618              1.265
 Vibration    15          0.732              1.560              1.134
 Vibration    16          0.741              1.538              1.088
 Vibration    17          0.779              1.435              0.906
 Vibration    18          0.791              1.407              0.861
 Vibration    19          0.793              1.401              0.854
 Vibration    20          0.810              1.358              0.791
 Vibration    21          0.820              1.334              0.759
 Vibration    22          0.830              1.309              0.728
 Vibration    23          0.893              1.166              0.570
 Vibration    24          0.925              1.099              0.507

 Optimization completed.
    -- Stationary point found.
 Normal termination of Gaussian 16 at Thu Dec 10 21:53:32 2020.

 ----------------------------------------------------------------------
 # B3LYP/6-311++G(d,p) empiricaldispersion=gd3bj scf=xqc pop=npa geom=c
 heck
 ----------------------------------------------------------------------

 --------------------------------------
 CID_58151881_JID_6069_Energie_neutraal
 --------------------------------------
 Structure from the checkpoint file:  "JID_6069.chk"
 Charge =  0 Multiplicity = 1

 SCF Done:  E(RB3LYP) =  -678.793569029     A.U. after   13 cycles
 Normal termination of Gaussian 16 at Thu Dec 10 22:01:53 2020.

 ----------------------------------------------------------------------
 # B3LYP/6-311++G(d,p) empiricaldispersion=gd3bj scf=xqc pop=npa geom=c
 heck
 ----------------------------------------------------------------------

 ------------------------------------
 CID_58151881_JID_6069_Energie_kation
 ------------------------------------
 Structure from the checkpoint file:  "JID_6069.chk"
 Charge =  1 Multiplicity = 2

 SCF Done:  E(UB3LYP) =  -678.502867879     A.U. after   20 cycles
 Normal termination of Gaussian 16 at Thu Dec 10 22:18:11 2020.
 Gaussian 16:  ES64L-G16RevA.03 25-Dec-2016

 ----------------------------------------------------------------------
 # B3LYP/6-311++G(d,p) empiricaldispersion=gd3bj scf=xqc pop=npa geom=c
 heck
 ----------------------------------------------------------------------

 -----------------------------------
 CID_58151881_JID_6069_Energie_anion
 -----------------------------------
 Structure from the checkpoint file:  "JID_6069.chk"
 Charge = -1 Multiplicity = 2

                         Standard orientation:
 ---------------------------------------------------------------------
 Center     Atomic      Atomic             Coordinates (Angstroms)
 Number     Number       Type             X           Y           Z
 ---------------------------------------------------------------------
      1          6           0        2.641159    2.761541    0.447901
      2          6           0        2.640845    1.409900   -0.269768
      3          6           0        3.026061    0.268018    0.683438
      4          6           0        2.993547   -1.105234   -0.001333
      5          6           0        1.635814   -1.390524   -0.660868
      6          6           0        1.245045   -0.240533   -1.617494
      7          6           0        1.278564    1.121831   -0.918277
      8          6           0        0.556309   -1.717278    0.370578
      9          8           0        0.800448   -1.824508    1.560118
     10          6           0       -0.874279   -1.921198   -0.137352
     11          7           0       -1.568949   -0.634470   -0.104555
     12          6           0       -2.689721   -0.570439   -1.042452
     13          6           0       -3.257719    0.848582   -1.103308
     14          6           0       -3.681652    1.327361    0.289732
     15          6           0       -2.522371    1.166867    1.279250
     16          6           0       -1.979148   -0.261872    1.252585
     17          1           0        1.901101    2.768692    1.258389
     18          1           0        3.620775    2.978824    0.889823
     19          1           0        2.391412    3.578948   -0.239177
     20          1           0        3.393394    1.446048   -1.074446
     21          1           0        4.026798    0.450422    1.096154
     22          1           0        2.332492    0.257818    1.533233
     23          1           0        3.223596   -1.889951    0.725641
     24          1           0        3.767137   -1.142891   -0.780392
     25          1           0        1.714912   -2.308900   -1.267136
     26          1           0        0.256568   -0.412473   -2.053470
     27          1           0        1.964031   -0.241403   -2.448170
     28          1           0        0.492570    1.144411   -0.152247
     29          1           0        1.032990    1.911999   -1.640316
     30          1           0       -0.858074   -2.279757   -1.171644
     31          1           0       -1.365317   -2.687419    0.487710
     32          1           0       -3.492887   -1.280593   -0.756723
     33          1           0       -2.327571   -0.872902   -2.031761
     34          1           0       -4.104793    0.873584   -1.799541
     35          1           0       -2.482813    1.515665   -1.502230
     36          1           0       -4.021290    2.369250    0.253074
     37          1           0       -4.535675    0.726081    0.633815
     38          1           0       -1.711567    1.857894    1.014472
     39          1           0       -2.843006    1.414713    2.298199
     40          1           0       -1.116447   -0.360237    1.915158
     41          1           0       -2.754010   -0.962594    1.626737
 ---------------------------------------------------------------------

 SCF Done:  E(UB3LYP) =  -678.782596214     A.U. after   33 cycles
 SCF Done:  E(UB3LYP) =  -678.782596214     a.u. after    1 cycles

 The electronic state is 2-A.
 Alpha  occ. eigenvalues --  -18.99150 -14.20588 -10.13094 -10.09017 -10.08914
 Alpha  occ. eigenvalues --  -10.08887 -10.07016 -10.06994 -10.06820 -10.06747
 Alpha  occ. eigenvalues --  -10.06585 -10.06387 -10.05635 -10.05608 -10.05595
 Alpha  occ. eigenvalues --  -10.05310  -0.92688  -0.82924  -0.73303  -0.70299
 Alpha  occ. eigenvalues --   -0.67126  -0.65538  -0.63575  -0.61385  -0.57981
 Alpha  occ. eigenvalues --   -0.52865  -0.52554  -0.50438  -0.49611  -0.46040
 Alpha  occ. eigenvalues --   -0.45467  -0.40806  -0.39562  -0.38065  -0.36691
 Alpha  occ. eigenvalues --   -0.35898  -0.35198  -0.34545  -0.33816  -0.33237
 Alpha  occ. eigenvalues --   -0.32323  -0.31731  -0.31329  -0.30365  -0.29790
 Alpha  occ. eigenvalues --   -0.28593  -0.27610  -0.27280  -0.26665  -0.25281
 Alpha  occ. eigenvalues --   -0.25219  -0.24696  -0.24401  -0.23341  -0.23205
 Alpha  occ. eigenvalues --   -0.22242  -0.21839  -0.21401  -0.19790  -0.19271
 Alpha  occ. eigenvalues --   -0.14015  -0.11458   0.04415
 Alpha virt. eigenvalues --    0.06286   0.06880   0.07797   0.08090   0.08445
 Alpha virt. eigenvalues --    0.08676   0.08996   0.09780   0.10128   0.10624
 Alpha virt. eigenvalues --    0.11091   0.11312   0.11643   0.11957   0.12608

  Beta  occ. eigenvalues --  -18.99000 -14.20555 -10.12926 -10.08991 -10.08912
  Beta  occ. eigenvalues --  -10.08884 -10.07009 -10.06985 -10.06814 -10.06759
  Beta  occ. eigenvalues --  -10.06571 -10.06382 -10.05632 -10.05597 -10.05557
  Beta  occ. eigenvalues --  -10.05302  -0.92389  -0.82879  -0.73268  -0.70261
  Beta  occ. eigenvalues --   -0.67064  -0.65506  -0.63547  -0.61275  -0.57949
  Beta  occ. eigenvalues --   -0.52830  -0.52459  -0.50380  -0.49531  -0.45967
  Beta  occ. eigenvalues --   -0.45409  -0.40671  -0.39397  -0.37996  -0.36614
  Beta  occ. eigenvalues --   -0.35856  -0.35136  -0.34477  -0.33780  -0.33210
  Beta  occ. eigenvalues --   -0.32230  -0.31708  -0.31236  -0.30291  -0.29719
  Beta  occ. eigenvalues --   -0.28557  -0.27394  -0.27254  -0.26629  -0.25197
  Beta  occ. eigenvalues --   -0.25134  -0.24521  -0.24195  -0.23318  -0.23114
  Beta  occ. eigenvalues --   -0.22188  -0.21791  -0.21310  -0.19707  -0.19243
  Beta  occ. eigenvalues --   -0.13903  -0.11341
  Beta virt. eigenvalues --    0.06476   0.07046   0.07488   0.08133   0.08623
  Beta virt. eigenvalues --    0.08829   0.09199   0.09632   0.10103   0.10426
  Beta virt. eigenvalues --    0.10920   0.11272   0.11447   0.11878   0.12088

 Mulliken charges and spin densities:
               1          2
     1  C   -0.623931  -0.050816
     2  C    0.451742  -0.293107
     3  C   -0.349584  -0.010426
     4  C    0.099834  -0.731034
     5  C    0.141327   0.501764
     6  C    0.696588  -1.074972
     7  C   -0.508162   0.142637
     8  C   -0.499902   0.391858
     9  O   -0.253055   0.056446
    10  C    0.046888  -0.678516
    11  N    0.249657   0.078437
    12  C    0.245572  -0.541774
    13  C   -0.055984  -0.206080
    14  C    0.647054  -1.058767
    15  C   -0.687927   0.419310
    16  C   -0.084631  -0.268152
    17  H    0.103460   0.019188
    18  H    0.042116   0.081484
    19  H    0.055866   0.072377
    20  H   -0.052744   0.206052
    21  H    0.150778  -0.009765
    22  H    0.124455   0.076682
    23  H    0.123137   0.053060
    24  H   -0.105394   0.259796
    25  H   -0.400273   0.650447
    26  H    0.129998   0.025497
    27  H   -0.480590   0.669438
    28  H    0.465389  -0.310037
    29  H   -0.047799   0.210708
    30  H   -0.210262   0.396794
    31  H    0.137320  -0.005650
    32  H    0.044211   0.070760
    33  H   -0.379117   0.526238
    34  H   -0.470619   0.651184
    35  H    0.149230  -0.033774
    36  H   -0.298363   0.461255
    37  H    0.131295  -0.026170
    38  H    0.045330   0.066004
    39  H    0.059342   0.089008
    40  H    0.207881  -0.033429
    41  H   -0.040132   0.156044
 Sum of Mulliken charges =  -1.00000   1.00000

 Dipole moment (field-independent basis, Debye):
    X=              0.5958    Y=              2.0322    Z=              4.6257  Tot=              5.0874
 Quadrupole moment (field-independent basis, Debye-Ang):
   XX=           -165.4600   YY=           -142.5570   ZZ=           -147.7764
   XY=              9.6034   XZ=             -1.8581   YZ=             -1.1597

 Summary of Natural Population Analysis:

                                       Natural Population
                Natural  -----------------------------------------------
    Atom  No    Charge         Core      Valence    Rydberg      Total
 -----------------------------------------------------------------------
      C    1   -0.28040      0.99965     2.27615    0.00460     3.28040
      C    2   -0.11157      0.99960     2.10334    0.00864     3.11157
      C    3   -0.18977      0.99961     2.18141    0.00875     3.18977
      C    4   -0.18866      0.99962     2.17840    0.01064     3.18866
      C    5   -0.15511      0.99954     2.14367    0.01190     3.15511
      C    6   -0.18488      0.99961     2.17455    0.01072     3.18488
      C    7   -0.19185      0.99960     2.18219    0.01006     3.19185
      C    8    0.31911      0.99964     1.65946    0.02179     2.68089
      O    9   -0.28666      0.99987     3.28073    0.00605     4.28666
      C   10   -0.12507      0.99957     2.11413    0.01136     3.12507
      N   11   -0.28477      0.99970     2.77272    0.01234     3.78477
      C   12   -0.07840      0.99961     2.06715    0.01165     3.07840
      C   13   -0.19451      0.99962     2.18581    0.00907     3.19451
      C   14   -0.19002      0.99963     2.18186    0.00853     3.19002
      C   15   -0.19407      0.99962     2.18602    0.00843     3.19407
      C   16   -0.08365      0.99961     2.07541    0.00863     3.08365
      H   17    0.09561      0.00000     0.40348    0.00091     0.40439
      H   18    0.09467      0.00000     0.40452    0.00081     0.40533
      H   19    0.09692      0.00000     0.40226    0.00082     0.40308
      H   20    0.08919      0.00000     0.40901    0.00179     0.41081
      H   21    0.09341      0.00000     0.40577    0.00082     0.40659
      H   22    0.10186      0.00000     0.39686    0.00128     0.39814
      H   23    0.10523      0.00000     0.39388    0.00089     0.39477
      H   24    0.09516      0.00000     0.40373    0.00111     0.40484
      H   25    0.11589      0.00000     0.38124    0.00287     0.38411
      H   26    0.10481      0.00000     0.39349    0.00170     0.39519
      H   27    0.09725      0.00000     0.40053    0.00222     0.40275
      H   28    0.09935      0.00000     0.39814    0.00251     0.40065
      H   29    0.09659      0.00000     0.40235    0.00106     0.40341
      H   30    0.10316      0.00000     0.39508    0.00176     0.39684
      H   31    0.09002      0.00000     0.40865    0.00133     0.40998
      H   32    0.07650      0.00000     0.42195    0.00155     0.42350
      H   33    0.10009      0.00000     0.39830    0.00161     0.39991
      H   34    0.09970      0.00000     0.39894    0.00136     0.40030
      H   35    0.09758      0.00000     0.40069    0.00173     0.40242
      H   36    0.09838      0.00000     0.40059    0.00104     0.40162
      H   37    0.09145      0.00000     0.40732    0.00123     0.40855
      H   38    0.09727      0.00000     0.40122    0.00151     0.40273
      H   39    0.09584      0.00000     0.40338    0.00077     0.40416
      H   40    0.10798      0.00000     0.39077    0.00125     0.39202
      H   41    0.07636      0.00000     0.42220    0.00144     0.42364
 =======================================================================
   * Total *    0.00000     15.99411    45.80734    0.19855    62.00000

 Normal termination of Gaussian 16 at Thu Dec 10 22:44:39 2020.
