 Gaussian 16, Revision A.03,

 -----------------------------------------------------------
 # opt freq B3LYP/6-31G(d) empiricaldispersion=gd3bj scf=xqc
 -----------------------------------------------------------

 ------------------------------
 CID_11971964_JID_6450_neutraal
 ------------------------------
 Symbolic Z-matrix:
 Charge =  0 Multiplicity = 1

 SCF Done:  E(RB3LYP) =  -741.713457626     A.U. after   15 cycles
 SCF Done:  E(RB3LYP) =  -741.716750227     A.U. after   12 cycles
 SCF Done:  E(RB3LYP) =  -741.717200165     A.U. after   11 cycles
 SCF Done:  E(RB3LYP) =  -741.717338479     A.U. after   11 cycles
 SCF Done:  E(RB3LYP) =  -741.717421835     A.U. after   10 cycles
 SCF Done:  E(RB3LYP) =  -741.717465049     A.U. after   10 cycles
 SCF Done:  E(RB3LYP) =  -741.717490141     A.U. after   10 cycles
 SCF Done:  E(RB3LYP) =  -741.717497415     A.U. after    9 cycles
 SCF Done:  E(RB3LYP) =  -741.717499089     A.U. after    8 cycles
 SCF Done:  E(RB3LYP) =  -741.717499299     A.U. after    7 cycles
 SCF Done:  E(RB3LYP) =  -741.717499343     A.U. after    7 cycles
 SCF Done:  E(RB3LYP) =  -741.717499364     A.U. after    7 cycles
 Optimization completed.
    -- Stationary point found.
 Normal termination of Gaussian 16 at Thu Dec 10 22:54:16 2020.

 --------------------------------------------------------------------
 #N Geom=AllCheck Guess=TCheck SCRF=Check GenChk RB3LYP/6-31G(d) Freq
 --------------------------------------------------------------------

 Structure from the checkpoint file:  "JID_6450.chk"
 ------------------------------
 CID_11971964_JID_6450_neutraal
 ------------------------------
 Charge =  0 Multiplicity = 1

 SCF Done:  E(RB3LYP) =  -741.717499364     A.U. after    1 cycles

  Exact polarizability: 253.292  -3.870 137.607   0.595  -1.643  67.909
 Approx polarizability: 331.404 -12.647 240.872  -1.841  -5.755 103.013

                      1                      2                      3
                      A                      A                      A
 Frequencies --     40.0502                46.0122                70.8787
 Red. masses --      3.2594                 3.7450                 4.1389
 Frc consts  --      0.0031                 0.0047                 0.0123
 IR Inten    --      0.4110                 0.5643                 0.6381

                      4                      5                      6
                      A                      A                      A
 Frequencies --     79.0582               108.3278               127.7082
 Red. masses --      3.8367                 4.2203                 2.1862
 Frc consts  --      0.0141                 0.0292                 0.0210
 IR Inten    --      0.6455                 4.7820                 5.6313

                      7                      8                      9
                      A                      A                      A
 Frequencies --    167.6862               173.0076               205.6379
 Red. masses --      1.3422                 1.6337                 2.3485
 Frc consts  --      0.0222                 0.0288                 0.0585
 IR Inten    --      0.5367                 2.0162                 1.2931

                     10                     11                     12
                      A                      A                      A
 Frequencies --    213.0213               250.5214               260.7670
 Red. masses --      2.4649                 4.3597                 1.3540
 Frc consts  --      0.0659                 0.1612                 0.0542
 IR Inten    --      4.7984                 0.9804                 2.5598

                     13                     14                     15
                      A                      A                      A
 Frequencies --    276.0127               325.6366               382.1634
 Red. masses --      3.4595                 5.3172                 2.8858
 Frc consts  --      0.1553                 0.3322                 0.2483
 IR Inten    --      5.1519                 7.7368                 0.2081

                     16                     17                     18
                      A                      A                      A
 Frequencies --    395.9642               424.8395               431.8710
 Red. masses --      6.4506                 3.3644                 5.1689
 Frc consts  --      0.5959                 0.3578                 0.5680
 IR Inten    --      1.5777                 0.1658                 4.9618

                     19                     20                     21
                      A                      A                      A
 Frequencies --    490.0236               535.0951               579.0952
 Red. masses --      4.0304                 2.6202                 6.3621
 Frc consts  --      0.5702                 0.4420                 1.2570
 IR Inten    --      1.5199                 4.8447                 2.6869

                     22                     23                     24
                      A                      A                      A
 Frequencies --    608.3226               652.6179               661.2785
 Red. masses --      4.9317                 6.9434                 5.6267
 Frc consts  --      1.0753                 1.7424                 1.4497
 IR Inten    --     30.5154                 0.9961                16.8294

                     25                     26                     27
                      A                      A                      A
 Frequencies --    683.4777               721.5439               743.9558
 Red. masses --      8.5987                 5.5473                 7.6657
 Frc consts  --      2.3666                 1.7016                 2.4997
 IR Inten    --      1.7499                 4.6848                21.2000

                     28                     29                     30
                      A                      A                      A
 Frequencies --    822.1286               824.4360               855.6363
 Red. masses --      5.7715                 1.3163                 1.5893
 Frc consts  --      2.2984                 0.5271                 0.6855
 IR Inten    --      2.6374                 9.2093                38.9721

                     31                     32                     33
                      A                      A                      A
 Frequencies --    944.2907               951.7743               970.2634
 Red. masses --      1.3087                 5.1271                12.6635
 Frc consts  --      0.6875                 2.7365                 7.0240
 IR Inten    --      0.0761                53.8982                 8.8963

                     34                     35                     36
                      A                      A                      A
 Frequencies --    980.1796              1007.2193              1030.1277
 Red. masses --      1.2875                 6.2415                 3.2699
 Frc consts  --      0.7288                 3.7307                 2.0444
 IR Inten    --      0.1237                38.7733                 4.5109

                     37                     38                     39
                      A                      A                      A
 Frequencies --   1067.9425              1082.5935              1092.0221
 Red. masses --      5.7852                 5.5184                 2.6059
 Frc consts  --      3.8874                 3.8106                 1.8309
 IR Inten    --     73.1344                14.7784                 8.2864

                     40                     41                     42
                      A                      A                      A
 Frequencies --   1100.5868              1139.7024              1148.6184
 Red. masses --      1.8127                 1.2375                 1.3179
 Frc consts  --      1.2936                 0.9470                 1.0245
 IR Inten    --     29.4547                 6.9963                 4.6200

                     43                     44                     45
                      A                      A                      A
 Frequencies --   1186.2474              1186.6068              1209.9690
 Red. masses --      1.2714                 1.3818                 1.1855
 Frc consts  --      1.0541                 1.1463                 1.0226
 IR Inten    --      0.7557                46.8522                72.3900

                     46                     47                     48
                      A                      A                      A
 Frequencies --   1220.0585              1240.2379              1286.9077
 Red. masses --      1.3759                 3.0878                 3.7080
 Frc consts  --      1.2067                 2.7984                 3.6181
 IR Inten    --     12.6569                23.9033                85.3819

                     49                     50                     51
                      A                      A                      A
 Frequencies --   1305.5389              1335.3806              1348.7429
 Red. masses --      4.1561                 3.0543                 1.5574
 Frc consts  --      4.1737                 3.2090                 1.6692
 IR Inten    --    263.2180                28.9926                26.9743

                     52                     53                     54
                      A                      A                      A
 Frequencies --   1366.5897              1440.3753              1470.1268
 Red. masses --      7.7448                 4.5439                 1.2036
 Frc consts  --      8.5219                 5.5543                 1.5326
 IR Inten    --     52.6277                20.4116                 2.3204

                     55                     56                     57
                      A                      A                      A
 Frequencies --   1477.7835              1490.2658              1499.8384
 Red. masses --      2.7574                 1.3329                 1.2083
 Frc consts  --      3.5480                 1.7441                 1.6015
 IR Inten    --      4.0723                85.4950                25.6078

                     58                     59                     60
                      A                      A                      A
 Frequencies --   1512.9306              1521.5554              1522.6814
 Red. masses --      1.0628                 1.0476                 1.0669
 Frc consts  --      1.4333                 1.4289                 1.4574
 IR Inten    --     23.5116                 6.0025                76.6267

                     61                     62                     63
                      A                      A                      A
 Frequencies --   1529.3660              1535.1203              1540.0129
 Red. masses --      1.0501                 1.0701                 1.1225
 Frc consts  --      1.4472                 1.4858                 1.5686
 IR Inten    --     16.7578                52.9431                 6.9179

                     64                     65                     66
                      A                      A                      A
 Frequencies --   1558.1963              1611.6085              1639.1428
 Red. masses --      2.5725                 7.3503                 6.9445
 Frc consts  --      3.6801                11.2479                10.9933
 IR Inten    --    170.0847                22.7715                 8.8838

                     67                     68                     69
                      A                      A                      A
 Frequencies --   1673.0742              1680.3148              3009.4169
 Red. masses --      5.7571                 6.0428                 1.0545
 Frc consts  --      9.4948                10.0525                 5.6269
 IR Inten    --    668.6185                89.0723                60.5905

                     70                     71                     72
                      A                      A                      A
 Frequencies --   3023.4198              3028.1821              3087.9211
 Red. masses --      1.0516                 1.0347                 1.1068
 Frc consts  --      5.6637                 5.5905                 6.2178
 IR Inten    --    102.1361                59.5037                42.0631

                     73                     74                     75
                      A                      A                      A
 Frequencies --   3110.6978              3111.2705              3162.8455
 Red. masses --      1.0853                 1.0856                 1.0999
 Frc consts  --      6.1873                 6.1913                 6.4828
 IR Inten    --      6.7005                56.1898                27.7788

                     76                     77                     78
                      A                      A                      A
 Frequencies --   3172.0378              3177.7068              3212.8898
 Red. masses --      1.1008                 1.1012                 1.0881
 Frc consts  --      6.5259                 6.5517                 6.6180
 IR Inten    --      9.5636                 3.8326                11.9747

                     79                     80                     81
                      A                      A                      A
 Frequencies --   3214.8990              3229.7778              3233.6690
 Red. masses --      1.0884                 1.0948                 1.0927
 Frc consts  --      6.6279                 6.7285                 6.7320
 IR Inten    --      0.5003                 3.9233                10.6801

 - Thermochemistry -
 -------------------
 Temperature   298.150 Kelvin.  Pressure   1.00000 Atm.
 Atom     1 has atomic number  6 and mass  12.00000

 Molecular mass:   219.10078 amu.
 Principal axes and moments of inertia in atomic units:
                           1         2         3
     Eigenvalues --  1017.265788465.086849435.38772
           X            1.00000   0.00134   0.00183
           Y           -0.00134   0.99999   0.00292
           Z           -0.00182  -0.00293   0.99999
 This molecule is an asymmetric top.
 Rotational symmetry number  1.
 Warning -- assumption of classical behavior for rotation
           may cause significant error
 Rotational temperatures (Kelvin)      0.08514     0.01023     0.00918
 Rotational constants (GHZ):           1.77411     0.21320     0.19127
 Zero-point vibrational energy     615092.9 (Joules/Mol)
                                  147.01073 (Kcal/Mol)
 Warning -- explicit consideration of  22 degrees of freedom as
           vibrations may cause significant error
 Vibrational temperatures:     57.62    66.20   101.98   113.75   155.86
          (Kelvin)            183.74   241.26   248.92   295.87   306.49
                              360.44   375.19   397.12   468.52   549.85
                              569.70   611.25   621.37   705.03   769.88
                              833.19   875.24   938.97   951.43   983.37
                             1038.14  1070.39  1182.86  1186.18  1231.07
                             1358.62  1369.39  1395.99  1410.26  1449.16
                             1482.12  1536.53  1557.61  1571.18  1583.50
                             1639.78  1652.61  1706.75  1707.26  1740.88
                             1755.39  1784.43  1851.57  1878.38  1921.31
                             1940.54  1966.22  2072.38  2115.18  2126.20
                             2144.16  2157.93  2176.77  2189.18  2190.80
                             2200.42  2208.70  2215.74  2241.90  2318.75
                             2358.36  2407.18  2417.60  4329.88  4350.03
                             4356.88  4442.83  4475.60  4476.42  4550.63
                             4563.85  4572.01  4622.63  4625.52  4646.93
                             4652.53

 Zero-point correction=                           0.234277 (Hartree/Particle)
 Thermal correction to Energy=                    0.249226
 Thermal correction to Enthalpy=                  0.250170
 Thermal correction to Gibbs Free Energy=         0.191214
 Sum of electronic and zero-point Energies=           -741.483223
 Sum of electronic and thermal Energies=              -741.468274
 Sum of electronic and thermal Enthalpies=            -741.467330
 Sum of electronic and thermal Free Energies=         -741.526285

                     E (Thermal)             CV                S
                      KCal/Mol        Cal/Mol-Kelvin    Cal/Mol-Kelvin
 Total                  156.391             55.124            124.083
 Electronic               0.000              0.000              0.000
 Translational            0.889              2.981             42.056
 Rotational               0.889              2.981             32.763
 Vibrational            154.614             49.162             49.264
 Vibration     1          0.594              1.981              5.257
 Vibration     2          0.595              1.979              4.982
 Vibration     3          0.598              1.968              4.129
 Vibration     4          0.600              1.963              3.914
 Vibration     5          0.606              1.943              3.299
 Vibration     6          0.611              1.925              2.980
 Vibration     7          0.624              1.882              2.461
 Vibration     8          0.627              1.876              2.403
 Vibration     9          0.640              1.832              2.082
 Vibration    10          0.644              1.821              2.018
 Vibration    11          0.663              1.762              1.727
 Vibration    12          0.669              1.744              1.657
 Vibration    13          0.678              1.718              1.558
 Vibration    14          0.710              1.624              1.282
 Vibration    15          0.752              1.508              1.031
 Vibration    16          0.763              1.479              0.978
 Vibration    17          0.787              1.416              0.876
 Vibration    18          0.793              1.401              0.853
 Vibration    19          0.846              1.272              0.684
 Vibration    20          0.890              1.172              0.576
 Vibration    21          0.936              1.076              0.487
 Vibration    22          0.967              1.014              0.436

                           ! Non-Optimized Parameters !
 Normal termination of Gaussian 16 at Thu Dec 10 23:01:51 2020.

 ----------------------------------------------------------------------
 # B3LYP/6-311++G(d,p) empiricaldispersion=gd3bj scf=xqc pop=npa geom=c
 heck
 ----------------------------------------------------------------------

 --------------------------------------
 CID_11971964_JID_6450_Energie_neutraal
 --------------------------------------
 Structure from the checkpoint file:  "JID_6450.chk"
 Charge =  0 Multiplicity = 1

 SCF Done:  E(RB3LYP) =  -741.915611528     A.U. after   14 cycles
 Normal termination of Gaussian 16 at Thu Dec 10 23:05:05 2020.

 ----------------------------------------------------------------------
 # B3LYP/6-311++G(d,p) empiricaldispersion=gd3bj scf=xqc pop=npa geom=c
 heck
 ----------------------------------------------------------------------

 ------------------------------------
 CID_11971964_JID_6450_Energie_kation
 ------------------------------------
 Structure from the checkpoint file:  "JID_6450.chk"
 Charge =  1 Multiplicity = 2

 SCF Done:  E(UB3LYP) =  -741.649164044     A.U. after   20 cycles
 Normal termination of Gaussian 16 at Thu Dec 10 23:10:32 2020.
 Gaussian 16:  ES64L-G16RevA.03 25-Dec-2016

 ----------------------------------------------------------------------
 # B3LYP/6-311++G(d,p) empiricaldispersion=gd3bj scf=xqc pop=npa geom=c
 heck
 ----------------------------------------------------------------------

 -----------------------------------
 CID_11971964_JID_6450_Energie_anion
 -----------------------------------
 Structure from the checkpoint file:  "JID_6450.chk"
 Charge = -1 Multiplicity = 2

                         Standard orientation:
 ---------------------------------------------------------------------
 Center     Atomic      Atomic             Coordinates (Angstroms)
 Number     Number       Type             X           Y           Z
 ---------------------------------------------------------------------
      1          6           0        3.814645    2.031227    0.215064
      2          7           0        3.905080    0.636271   -0.193405
      3          6           0        5.193818   -0.019478   -0.008734
      4          6           0        2.807972   -0.160876   -0.072878
      5          7           0        2.756511   -1.464175    0.002875
      6          7           0        1.394264   -1.786567    0.020168
      7          6           0        0.730401   -0.674820   -0.023939
      8          8           0        1.575825    0.422287   -0.083875
      9          6           0       -0.704255   -0.457055   -0.010557
     10          6           0       -1.570683   -1.564673    0.064581
     11          6           0       -2.941381   -1.382633    0.077896
     12          6           0       -3.485497   -0.088696    0.017173
     13          6           0       -2.633913    1.019179   -0.057541
     14          6           0       -1.252645    0.828240   -0.071278
     15          8           0       -4.845008   -0.019502    0.036928
     16          6           0       -5.448372    1.262979   -0.022520
     17          1           0        4.632075    2.585074   -0.255225
     18          1           0        3.891407    2.153105    1.306969
     19          1           0        2.867419    2.454800   -0.120424
     20          1           0        5.439106   -0.154099    1.055291
     21          1           0        5.165135   -1.000832   -0.483093
     22          1           0        5.968356    0.593426   -0.478595
     23          1           0       -1.144856   -2.561141    0.111583
     24          1           0       -3.620793   -2.226547    0.135410
     25          1           0       -3.029999    2.026259   -0.105720
     26          1           0       -0.595784    1.689587   -0.130365
     27          1           0       -5.157011    1.883769    0.834714
     28          1           0       -5.188081    1.786330   -0.951738
     29          1           0       -6.525048    1.088920    0.005702
 ---------------------------------------------------------------------

 SCF Done:  E(UB3LYP) =  -741.910142913     A.U. after   33 cycles
 SCF Done:  E(UB3LYP) =  -741.910142914     a.u. after    1 cycles

 The electronic state is 2-A.
 Alpha  occ. eigenvalues --  -19.08877 -19.05861 -14.25063 -14.20992 -14.20917
 Alpha  occ. eigenvalues --  -10.18101 -10.14118 -10.13342 -10.12784 -10.10792
 Alpha  occ. eigenvalues --  -10.10756 -10.07575 -10.07264 -10.07258 -10.07148
 Alpha  occ. eigenvalues --  -10.07012  -1.04086  -0.97565  -0.86694  -0.85801
 Alpha  occ. eigenvalues --   -0.76045  -0.71428  -0.66279  -0.64884  -0.63558
 Alpha  occ. eigenvalues --   -0.60944  -0.59227  -0.53646  -0.51720  -0.48798
 Alpha  occ. eigenvalues --   -0.47018  -0.44312  -0.43087  -0.39982  -0.39852
 Alpha  occ. eigenvalues --   -0.38677  -0.37972  -0.36611  -0.35869  -0.35127
 Alpha  occ. eigenvalues --   -0.33750  -0.32230  -0.31751  -0.31396  -0.31227
 Alpha  occ. eigenvalues --   -0.29509  -0.28656  -0.28381  -0.26640  -0.24348
 Alpha  occ. eigenvalues --   -0.23348  -0.22926  -0.20825  -0.20341  -0.16334
 Alpha  occ. eigenvalues --   -0.15911  -0.14431  -0.09900   0.03909
 Alpha virt. eigenvalues --    0.05347   0.05861   0.07582   0.08232   0.08542
 Alpha virt. eigenvalues --    0.08679   0.08937   0.09615   0.10214   0.11331
 Alpha virt. eigenvalues --    0.11570   0.11941   0.12044   0.12974   0.13379

  Beta  occ. eigenvalues --  -19.08805 -19.05819 -14.25062 -14.21027 -14.20780
  Beta  occ. eigenvalues --  -10.18044 -10.14041 -10.13312 -10.12619 -10.10743
  Beta  occ. eigenvalues --  -10.10731 -10.07508 -10.07294 -10.07214 -10.07044
  Beta  occ. eigenvalues --  -10.07040  -1.03969  -0.97453  -0.86653  -0.85672
  Beta  occ. eigenvalues --   -0.75886  -0.71282  -0.66121  -0.64766  -0.63501
  Beta  occ. eigenvalues --   -0.60839  -0.59158  -0.53472  -0.51600  -0.48687
  Beta  occ. eigenvalues --   -0.46908  -0.44243  -0.43017  -0.39863  -0.39664
  Beta  occ. eigenvalues --   -0.38613  -0.37816  -0.36547  -0.35669  -0.35039
  Beta  occ. eigenvalues --   -0.33689  -0.32177  -0.31693  -0.31338  -0.31180
  Beta  occ. eigenvalues --   -0.29469  -0.28301  -0.28277  -0.26573  -0.23914
  Beta  occ. eigenvalues --   -0.23290  -0.22551  -0.20647  -0.20149  -0.16218
  Beta  occ. eigenvalues --   -0.15617  -0.14087  -0.09492
  Beta virt. eigenvalues --    0.06006   0.06354   0.07427   0.07989   0.08577
  Beta virt. eigenvalues --    0.08682   0.08910   0.09368   0.09946   0.10536
  Beta virt. eigenvalues --    0.11290   0.11694   0.12151   0.12200   0.12953

 Mulliken charges and spin densities:
               1          2
     1  C    0.875118  -1.223949
     2  N   -0.238484   0.199721
     3  C    0.197259  -0.537491
     4  C    0.380852   0.045032
     5  N   -0.154523   0.037746
     6  N   -0.114587   0.022471
     7  C   -0.094792   0.009392
     8  O   -0.098925   0.024725
     9  C    1.062970  -0.254851
    10  C   -0.441858   0.160557
    11  C   -0.609577   0.104242
    12  C   -0.894925   0.370006
    13  C   -0.020351  -0.145395
    14  C   -0.020276  -0.190468
    15  O   -0.196838   0.036542
    16  C    0.370405  -0.713190
    17  H   -0.363268   0.506453
    18  H   -0.245203   0.405075
    19  H   -0.164161   0.328925
    20  H   -0.039914   0.198026
    21  H    0.104802   0.065682
    22  H   -0.094368   0.237053
    23  H    0.165849   0.013426
    24  H    0.152143   0.010119
    25  H   -0.080099   0.272525
    26  H   -0.020166   0.143165
    27  H   -0.126520   0.278850
    28  H   -0.003146   0.148192
    29  H   -0.287417   0.447420
 Sum of Mulliken charges =  -1.00000   1.00000

 Dipole moment (field-independent basis, Debye):
    X=             -1.4923    Y=             -1.0748    Z=             -0.4956  Tot=              1.9047
 Quadrupole moment (field-independent basis, Debye-Ang):
   XX=           -191.4038   YY=           -132.3858   ZZ=           -115.2183
   XY=             -0.0528   XZ=             -1.4225   YZ=             -0.7854

 Summary of Natural Population Analysis:

                                       Natural Population
                Natural  -----------------------------------------------
    Atom  No    Charge         Core      Valence    Rydberg      Total
 -----------------------------------------------------------------------
      C    1   -0.17421      0.99964     2.16644    0.00813     3.17421
      N    2   -0.25605      0.99965     2.74597    0.01043     3.75605
      C    3   -0.17342      0.99964     2.16547    0.00831     3.17342
      C    4    0.35322      0.99956     1.62726    0.01996     2.64678
      N    5   -0.21035      0.99967     2.69875    0.01193     3.71035
      N    6   -0.14713      0.99966     2.63460    0.01287     3.64713
      C    7    0.25506      0.99954     1.72750    0.01790     2.74494
      O    8   -0.24650      0.99985     3.24059    0.00605     4.24650
      C    9   -0.06729      0.99947     2.05785    0.00996     3.06729
      C   10   -0.06442      0.99955     2.05723    0.00764     3.06442
      C   11   -0.13122      0.99953     2.12269    0.00900     3.13122
      C   12    0.18550      0.99939     1.80128    0.01383     2.81450
      C   13   -0.15884      0.99953     2.15089    0.00841     3.15884
      C   14   -0.05942      0.99955     2.05064    0.00923     3.05942
      O   15   -0.27121      0.99985     3.26175    0.00960     4.27121
      C   16   -0.10140      0.99960     2.09258    0.00922     3.10140
      H   17    0.09729      0.00000     0.40114    0.00157     0.40271
      H   18    0.08993      0.00000     0.40802    0.00205     0.41007
      H   19    0.10662      0.00000     0.39187    0.00151     0.39338
      H   20    0.08971      0.00000     0.40887    0.00142     0.41029
      H   21    0.10927      0.00000     0.38907    0.00166     0.39073
      H   22    0.09432      0.00000     0.40469    0.00099     0.40568
      H   23    0.10853      0.00000     0.39031    0.00116     0.39147
      H   24    0.10314      0.00000     0.39591    0.00095     0.39686
      H   25    0.10376      0.00000     0.39497    0.00127     0.39624
      H   26    0.10412      0.00000     0.39469    0.00118     0.39588
      H   27    0.08570      0.00000     0.41266    0.00164     0.41430
      H   28    0.08320      0.00000     0.41552    0.00128     0.41680
      H   29    0.09208      0.00000     0.40683    0.00108     0.40792
 =======================================================================
   * Total *    0.00000     15.99371    41.81608    0.19021    58.00000

 Normal termination of Gaussian 16 at Thu Dec 10 23:20:10 2020.
