 Gaussian 16, Revision A.03,

 -----------------------------------------------------------
 # opt freq B3LYP/6-31G(d) empiricaldispersion=gd3bj scf=xqc
 -----------------------------------------------------------

 ------------------------------
 CID_56924603_JID_6480_neutraal
 ------------------------------
 Symbolic Z-matrix:
 Charge =  0 Multiplicity = 1

 SCF Done:  E(RB3LYP) =  -767.663082427     A.U. after   14 cycles
 SCF Done:  E(RB3LYP) =  -767.667880551     A.U. after   12 cycles
 SCF Done:  E(RB3LYP) =  -767.668251258     A.U. after   12 cycles
 SCF Done:  E(RB3LYP) =  -767.668723739     A.U. after   12 cycles
 SCF Done:  E(RB3LYP) =  -767.668999191     A.U. after   10 cycles
 SCF Done:  E(RB3LYP) =  -767.669019574     A.U. after   10 cycles
 SCF Done:  E(RB3LYP) =  -767.669046423     A.U. after    9 cycles
 SCF Done:  E(RB3LYP) =  -767.669053471     A.U. after    9 cycles
 SCF Done:  E(RB3LYP) =  -767.669057095     A.U. after    8 cycles
 SCF Done:  E(RB3LYP) =  -767.669059167     A.U. after    9 cycles
 SCF Done:  E(RB3LYP) =  -767.669059607     A.U. after    7 cycles
 SCF Done:  E(RB3LYP) =  -767.669059721     A.U. after    6 cycles
 Optimization completed.
    -- Stationary point found.
 Normal termination of Gaussian 16 at Thu Dec 10 23:12:17 2020.

 --------------------------------------------------------------------
 #N Geom=AllCheck Guess=TCheck SCRF=Check GenChk RB3LYP/6-31G(d) Freq
 --------------------------------------------------------------------

 Structure from the checkpoint file:  "JID_6480.chk"
 ------------------------------
 CID_56924603_JID_6480_neutraal
 ------------------------------
 Charge =  0 Multiplicity = 1

 SCF Done:  E(RB3LYP) =  -767.669059721     A.U. after    1 cycles

  Exact polarizability: 153.734  -1.661 138.755   2.638   0.136 115.582
 Approx polarizability: 194.046  -5.619 201.459   6.353  -0.625 166.884

                      1                      2                      3
                      A                      A                      A
 Frequencies --     27.7108                38.4748                49.1280
 Red. masses --      3.3335                 4.1867                 3.2826
 Frc consts  --      0.0015                 0.0037                 0.0047
 IR Inten    --      0.2045                 0.3565                 0.7562

                      4                      5                      6
                      A                      A                      A
 Frequencies --     89.9129               109.5920               134.5193
 Red. masses --      4.8072                 3.4488                 3.0841
 Frc consts  --      0.0229                 0.0244                 0.0329
 IR Inten    --      2.2115                 1.8484                 3.9531

                      7                      8                      9
                      A                      A                      A
 Frequencies --    145.9720               179.9000               210.8400
 Red. masses --      3.7520                 2.7669                 1.1547
 Frc consts  --      0.0471                 0.0528                 0.0302
 IR Inten    --      2.4406                 3.3995                 0.4537

                     10                     11                     12
                      A                      A                      A
 Frequencies --    216.9544               249.3420               251.7676
 Red. masses --      3.3534                 2.1849                 1.2191
 Frc consts  --      0.0930                 0.0800                 0.0455
 IR Inten    --      2.3954                16.2513                 3.2271

                     13                     14                     15
                      A                      A                      A
 Frequencies --    266.1498               274.3181               280.7618
 Red. masses --      1.2619                 1.1141                 2.4690
 Frc consts  --      0.0527                 0.0494                 0.1147
 IR Inten    --     83.1056                 2.4397                12.8643

                     16                     17                     18
                      A                      A                      A
 Frequencies --    310.1755               339.9477               351.9677
 Red. masses --      2.7365                 3.5966                 2.6074
 Frc consts  --      0.1551                 0.2449                 0.1903
 IR Inten    --      1.4624                 4.5624                 1.7695

                     19                     20                     21
                      A                      A                      A
 Frequencies --    363.5190               381.7975               414.3990
 Red. masses --      3.3949                 2.6188                 2.6853
 Frc consts  --      0.2643                 0.2249                 0.2717
 IR Inten    --     15.9598                 0.9200                 6.9599

                     22                     23                     24
                      A                      A                      A
 Frequencies --    426.6250               461.0096               461.5895
 Red. masses --      2.6619                 2.6616                 2.7668
 Frc consts  --      0.2854                 0.3333                 0.3473
 IR Inten    --      3.1153                 8.5815                 1.5960

                     25                     26                     27
                      A                      A                      A
 Frequencies --    475.1985               528.4829               541.8161
 Red. masses --      2.1269                 2.0245                 3.0218
 Frc consts  --      0.2830                 0.3331                 0.5227
 IR Inten    --      1.3066                27.3711                16.2656

                     28                     29                     30
                      A                      A                      A
 Frequencies --    626.9336               668.1670               754.5312
 Red. masses --      3.5082                 3.1653                 1.7913
 Frc consts  --      0.8124                 0.8326                 0.6009
 IR Inten    --      2.3131                13.2736                51.7019

                     31                     32                     33
                      A                      A                      A
 Frequencies --    765.2129               780.3088               808.7590
 Red. masses --      7.3431                 3.6636                 2.2749
 Frc consts  --      2.5333                 1.3143                 0.8767
 IR Inten    --     26.1319                 1.5892                21.2614

                     34                     35                     36
                      A                      A                      A
 Frequencies --    835.7912               879.3077               887.8558
 Red. masses --      3.9148                 3.0792                 2.5307
 Frc consts  --      1.6112                 1.4027                 1.1754
 IR Inten    --      0.3639                 3.1689                19.5237

                     37                     38                     39
                      A                      A                      A
 Frequencies --    913.5502               936.9453               938.2264
 Red. masses --      2.0274                 1.6368                 1.6480
 Frc consts  --      0.9969                 0.8466                 0.8547
 IR Inten    --     23.8951                 0.0998                 1.5147

                     40                     41                     42
                      A                      A                      A
 Frequencies --    950.9138               982.0208               984.3530
 Red. masses --      1.8928                 1.1978                 2.2485
 Frc consts  --      1.0084                 0.6806                 1.2836
 IR Inten    --     11.9298                 0.3141                29.6054

                     43                     44                     45
                      A                      A                      A
 Frequencies --   1021.7773              1059.4324              1066.5515
 Red. masses --      2.3083                 2.0178                 1.4048
 Frc consts  --      1.4199                 1.3344                 0.9415
 IR Inten    --     35.5127                 8.8200                 0.1040

                     46                     47                     48
                      A                      A                      A
 Frequencies --   1069.7821              1074.9673              1087.6312
 Red. masses --      1.8988                 2.8134                 2.1001
 Frc consts  --      1.2803                 1.9155                 1.4637
 IR Inten    --     15.0674                69.4505                17.3987

                     49                     50                     51
                      A                      A                      A
 Frequencies --   1112.5897              1151.8905              1162.5376
 Red. masses --      1.9000                 2.4127                 2.8336
 Frc consts  --      1.3857                 1.8862                 2.2563
 IR Inten    --      2.4089                25.7463                60.7369

                     52                     53                     54
                      A                      A                      A
 Frequencies --   1185.1342              1222.2122              1229.7150
 Red. masses --      3.5347                 2.1995                 1.6172
 Frc consts  --      2.9251                 1.9358                 1.4409
 IR Inten    --    108.3348               324.0794                16.4780

                     55                     56                     57
                      A                      A                      A
 Frequencies --   1258.3013              1274.5774              1278.5934
 Red. masses --      1.3857                 1.4781                 1.1685
 Frc consts  --      1.2927                 1.4148                 1.1255
 IR Inten    --      2.4308                10.8240                47.2248

                     58                     59                     60
                      A                      A                      A
 Frequencies --   1285.6019              1287.0282              1303.4849
 Red. masses --      2.2878                 2.0421                 2.1842
 Frc consts  --      2.2278                 1.9930                 2.1865
 IR Inten    --     53.2353                75.1100                15.2037

                     61                     62                     63
                      A                      A                      A
 Frequencies --   1342.0186              1344.9600              1366.5756
 Red. masses --      1.3269                 1.3555                 1.2923
 Frc consts  --      1.4080                 1.4447                 1.4220
 IR Inten    --     38.8192                53.9200                29.7427

                     64                     65                     66
                      A                      A                      A
 Frequencies --   1378.5160              1392.5190              1405.8945
 Red. masses --      1.3160                 1.3701                 1.2766
 Frc consts  --      1.4734                 1.5653                 1.4867
 IR Inten    --      5.8655                45.5601                23.3124

                     67                     68                     69
                      A                      A                      A
 Frequencies --   1421.7907              1423.8979              1427.4275
 Red. masses --      1.2880                 1.3095                 1.3369
 Frc consts  --      1.5341                 1.5643                 1.6050
 IR Inten    --     16.0766                27.6652                 7.8162

                     70                     71                     72
                      A                      A                      A
 Frequencies --   1450.6048              1452.5444              1467.3396
 Red. masses --      1.2552                 1.4262                 1.9161
 Frc consts  --      1.5561                 1.7729                 2.4307
 IR Inten    --     17.4809                 0.5097               188.4422

                     73                     74                     75
                      A                      A                      A
 Frequencies --   1474.0777              1497.9350              1499.2607
 Red. masses --      1.4295                 1.1114                 1.0470
 Frc consts  --      1.8301                 1.4693                 1.3866
 IR Inten    --      1.6702                 5.2274                 0.5442

                     76                     77                     78
                      A                      A                      A
 Frequencies --   1503.3319              1519.2902              1520.1512
 Red. masses --      1.1146                 1.1565                 1.0502
 Frc consts  --      1.4842                 1.5728                 1.4299
 IR Inten    --      0.9278                 9.0353                 1.0731

                     79                     80                     81
                      A                      A                      A
 Frequencies --   1520.4056              1523.0251              1525.8305
 Red. masses --      1.0728                 1.0882                 1.1164
 Frc consts  --      1.4611                 1.4871                 1.5313
 IR Inten    --      3.0481                13.7299                17.1672

                     82                     83                     84
                      A                      A                      A
 Frequencies --   1530.7921              1535.6173              1549.9384
 Red. masses --      1.2277                 1.0526                 1.0883
 Frc consts  --      1.6950                 1.4625                 1.5404
 IR Inten    --     79.7657                 1.3427                 2.5369

                     85                     86                     87
                      A                      A                      A
 Frequencies --   1558.2459              1768.0647              2947.5378
 Red. masses --      1.0611                10.0723                 1.0726
 Frc consts  --      1.5180                18.5513                 5.4906
 IR Inten    --     25.0808               316.3820                33.6066

                     88                     89                     90
                      A                      A                      A
 Frequencies --   2954.3825              3000.3574              3040.5689
 Red. masses --      1.0719                 1.0677                 1.0831
 Frc consts  --      5.5124                 5.6632                 5.8996
 IR Inten    --     74.8193                56.1777                 9.8602

                     91                     92                     93
                      A                      A                      A
 Frequencies --   3056.8295              3058.0790              3065.4429
 Red. masses --      1.0357                 1.0385                 1.0385
 Frc consts  --      5.7020                 5.7220                 5.7497
 IR Inten    --      9.0573                25.7005                23.1501

                     94                     95                     96
                      A                      A                      A
 Frequencies --   3067.0701              3070.9663              3080.0667
 Red. masses --      1.0759                 1.0952                 1.0819
 Frc consts  --      5.9630                 6.0857                 6.0473
 IR Inten    --     11.3285                44.3213                64.5908

                     97                     98                     99
                      A                      A                      A
 Frequencies --   3091.3862              3119.6147              3121.8787
 Red. masses --      1.0610                 1.1026                 1.1019
 Frc consts  --      5.9741                 6.3220                 6.3274
 IR Inten    --     56.8888                 8.3050                24.7322

                    100                    101                    102
                      A                      A                      A
 Frequencies --   3122.5039              3133.0013              3136.5901
 Red. masses --      1.0902                 1.1032                 1.1025
 Frc consts  --      6.2627                 6.3799                 6.3904
 IR Inten    --     20.3024                31.4319                47.7948

                    103                    104                    105
                      A                      A                      A
 Frequencies --   3137.2930              3159.1553              3175.5187
 Red. masses --      1.1066                 1.0972                 1.0992
 Frc consts  --      6.4173                 6.4518                 6.5304
 IR Inten    --     16.6168                13.0374                 0.8578

                    106                    107                    108
                      A                      A                      A
 Frequencies --   3178.5261              3527.4427              3759.1772
 Red. masses --      1.0987                 1.0753                 1.0665
 Frc consts  --      6.5400                 7.8834                 8.8794
 IR Inten    --     10.5323                 0.2916                13.4141

 - Thermochemistry -
 -------------------
 Temperature   298.150 Kelvin.  Pressure   1.00000 Atm.
 Atom     1 has atomic number  6 and mass  12.00000

 Molecular mass:   230.16304 amu.
 Principal axes and moments of inertia in atomic units:
                           1         2         3
     Eigenvalues --  2274.885135207.381356142.62729
           X            0.99995  -0.00532   0.00790
           Y            0.00531   0.99998   0.00247
           Z           -0.00791  -0.00243   0.99997
 This molecule is an asymmetric top.
 Rotational symmetry number  1.
 Warning -- assumption of classical behavior for rotation
           may cause significant error
 Rotational temperatures (Kelvin)      0.03807     0.01663     0.01410
 Rotational constants (GHZ):           0.79333     0.34657     0.29381
 Zero-point vibrational energy     890201.1 (Joules/Mol)
                                  212.76317 (Kcal/Mol)
 Warning -- explicit consideration of  27 degrees of freedom as
           vibrations may cause significant error
 Vibrational temperatures:     39.87    55.36    70.68   129.36   157.68
          (Kelvin)            193.54   210.02   258.84   303.35   312.15
                              358.75   362.24   382.93   394.68   403.95
                              446.27   489.11   506.40   523.02   549.32
                              596.23   613.82   663.29   664.12   683.70
                              760.37   779.55   902.02   961.34  1085.60
                             1100.97  1122.69  1163.62  1202.52  1265.13
                             1277.43  1314.39  1348.06  1349.90  1368.15
                             1412.91  1416.26  1470.11  1524.29  1534.53
                             1539.18  1546.64  1564.86  1600.77  1657.31
                             1672.63  1705.14  1758.49  1769.29  1810.41
                             1833.83  1839.61  1849.69  1851.75  1875.42
                             1930.87  1935.10  1966.20  1983.38  2003.52
                             2022.77  2045.64  2048.67  2053.75  2087.10
                             2089.89  2111.17  2120.87  2155.19  2157.10
                             2162.96  2185.92  2187.16  2187.52  2191.29
                             2195.33  2202.47  2209.41  2230.02  2241.97
                             2543.85  4240.85  4250.70  4316.85  4374.70
                             4398.10  4399.89  4410.49  4412.83  4418.44
                             4431.53  4447.82  4488.43  4491.69  4492.59
                             4507.69  4512.85  4513.86  4545.32  4568.86
                             4573.19  5075.20  5408.62

 Zero-point correction=                           0.339060 (Hartree/Particle)
 Thermal correction to Energy=                    0.356383
 Thermal correction to Enthalpy=                  0.357327
 Thermal correction to Gibbs Free Energy=         0.294029
 Sum of electronic and zero-point Energies=           -767.330000
 Sum of electronic and thermal Energies=              -767.312677
 Sum of electronic and thermal Enthalpies=            -767.311733
 Sum of electronic and thermal Free Energies=         -767.375030

                     E (Thermal)             CV                S
                      KCal/Mol        Cal/Mol-Kelvin    Cal/Mol-Kelvin
 Total                  223.634             66.101            133.221
 Electronic               0.000              0.000              0.000
 Translational            0.889              2.981             42.203
 Rotational               0.889              2.981             32.653
 Vibrational            221.856             60.139             58.365
 Vibration     1          0.593              1.984              5.987
 Vibration     2          0.594              1.982              5.336
 Vibration     3          0.595              1.978              4.852
 Vibration     4          0.602              1.956              3.662
 Vibration     5          0.606              1.942              3.276
 Vibration     6          0.613              1.919              2.880
 Vibration     7          0.617              1.907              2.724
 Vibration     8          0.629              1.867              2.329
 Vibration     9          0.643              1.824              2.036
 Vibration    10          0.646              1.815              1.984
 Vibration    11          0.662              1.764              1.735
 Vibration    12          0.664              1.760              1.718
 Vibration    13          0.672              1.735              1.621
 Vibration    14          0.677              1.721              1.569
 Vibration    15          0.680              1.709              1.529
 Vibration    16          0.699              1.654              1.361
 Vibration    17          0.720              1.596              1.212
 Vibration    18          0.729              1.571              1.157
 Vibration    19          0.737              1.547              1.107
 Vibration    20          0.751              1.509              1.032
 Vibration    21          0.778              1.439              0.911
 Vibration    22          0.788              1.412              0.870
 Vibration    23          0.819              1.337              0.763
 Vibration    24          0.819              1.335              0.761
 Vibration    25          0.832              1.305              0.723
 Vibration    26          0.883              1.187              0.591
 Vibration    27          0.897              1.158              0.561

                           ! Non-Optimized Parameters !
 Normal termination of Gaussian 16 at Thu Dec 10 23:26:36 2020.

 ----------------------------------------------------------------------
 # B3LYP/6-311++G(d,p) empiricaldispersion=gd3bj scf=xqc pop=npa geom=c
 heck
 ----------------------------------------------------------------------

 --------------------------------------
 CID_56924603_JID_6480_Energie_neutraal
 --------------------------------------
 Structure from the checkpoint file:  "JID_6480.chk"
 Charge =  0 Multiplicity = 1

 SCF Done:  E(RB3LYP) =  -767.902663488     A.U. after   14 cycles
 Normal termination of Gaussian 16 at Thu Dec 10 23:33:05 2020.

 ----------------------------------------------------------------------
 # B3LYP/6-311++G(d,p) empiricaldispersion=gd3bj scf=xqc pop=npa geom=c
 heck
 ----------------------------------------------------------------------

 ------------------------------------
 CID_56924603_JID_6480_Energie_kation
 ------------------------------------
 Structure from the checkpoint file:  "JID_6480.chk"
 Charge =  1 Multiplicity = 2

 SCF Done:  E(UB3LYP) =  -767.604154652     A.U. after   23 cycles
 Normal termination of Gaussian 16 at Thu Dec 10 23:47:15 2020.
 Gaussian 16:  ES64L-G16RevA.03 25-Dec-2016

 ----------------------------------------------------------------------
 # B3LYP/6-311++G(d,p) empiricaldispersion=gd3bj scf=xqc pop=npa geom=c
 heck
 ----------------------------------------------------------------------

 -----------------------------------
 CID_56924603_JID_6480_Energie_anion
 -----------------------------------
 Structure from the checkpoint file:  "JID_6480.chk"
 Charge = -1 Multiplicity = 2

                         Standard orientation:
 ---------------------------------------------------------------------
 Center     Atomic      Atomic             Coordinates (Angstroms)
 Number     Number       Type             X           Y           Z
 ---------------------------------------------------------------------
      1          6           0        3.814230    0.818525    0.826623
      2          6           0        2.910964   -0.302879    0.313067
      3          6           0        3.575618   -1.046378   -0.847268
      4          6           0        2.512690   -1.241321    1.454527
      5          8           0        1.735529    0.431907   -0.163742
      6          6           0        0.674768   -0.228598   -0.691772
      7          8           0        0.601231   -1.443068   -0.839766
      8          7           0       -0.315084    0.640360   -1.052572
      9          6           0       -0.266286    2.073750   -0.768878
     10          6           0       -0.897487    2.431384    0.576521
     11          7           0       -2.277319    1.954972    0.666341
     12          6           0       -2.389555    0.511489    0.912677
     13          6           0       -2.564670   -0.323668   -0.367576
     14          6           0       -1.592761    0.088976   -1.499900
     15          6           0       -2.456065   -1.811788   -0.038207
     16          8           0       -3.498067   -2.127996    0.886948
     17          1           0        4.745827    0.400422    1.221146
     18          1           0        3.316748    1.377068    1.625956
     19          1           0        4.059937    1.514825    0.018509
     20          1           0        4.516979   -1.491854   -0.506939
     21          1           0        2.925128   -1.834760   -1.226782
     22          1           0        3.802240   -0.349077   -1.661015
     23          1           0        1.988778   -0.680801    2.236586
     24          1           0        1.862684   -2.038833    1.093770
     25          1           0        3.411510   -1.685509    1.896053
     26          1           0       -0.814049    2.581483   -1.570021
     27          1           0        0.772495    2.403165   -0.796169
     28          1           0       -0.897997    3.523462    0.678983
     29          1           0       -0.257159    2.019721    1.379305
     30          1           0       -2.743644    2.454453    1.417186
     31          1           0       -3.256140    0.323360    1.550660
     32          1           0       -1.507307    0.135423    1.462732
     33          1           0       -3.581811   -0.150841   -0.743650
     34          1           0       -1.384528   -0.764895   -2.149211
     35          1           0       -2.063405    0.866632   -2.105540
     36          1           0       -2.559089   -2.401460   -0.962857
     37          1           0       -1.465087   -2.031568    0.379451
     38          1           0       -3.363512   -3.041452    1.179050
 ---------------------------------------------------------------------

 SCF Done:  E(UB3LYP) =  -767.888723982     A.U. after   30 cycles

 The electronic state is 2-A.
 Alpha  occ. eigenvalues --  -19.05813 -19.02694 -18.99349 -14.24499 -14.20258
 Alpha  occ. eigenvalues --  -10.21890 -10.14776 -10.11414 -10.11074 -10.10650
 Alpha  occ. eigenvalues --  -10.09550 -10.09131 -10.07769 -10.06549 -10.06427
 Alpha  occ. eigenvalues --  -10.06142  -1.00484  -0.92621  -0.91564  -0.85263
 Alpha  occ. eigenvalues --   -0.80388  -0.71848  -0.70150  -0.63986  -0.60508
 Alpha  occ. eigenvalues --   -0.60007  -0.59856  -0.57482  -0.53251  -0.50855
 Alpha  occ. eigenvalues --   -0.46723  -0.44016  -0.42985  -0.41758  -0.39614
 Alpha  occ. eigenvalues --   -0.39256  -0.37922  -0.37388  -0.36147  -0.35341
 Alpha  occ. eigenvalues --   -0.35019  -0.34615  -0.33747  -0.32073  -0.31606
 Alpha  occ. eigenvalues --   -0.30759  -0.29563  -0.28938  -0.28308  -0.27817
 Alpha  occ. eigenvalues --   -0.27589  -0.27362  -0.26063  -0.25747  -0.25090
 Alpha  occ. eigenvalues --   -0.24606  -0.24012  -0.22426  -0.20260  -0.18240
 Alpha  occ. eigenvalues --   -0.17587  -0.15154  -0.13467   0.04237
 Alpha virt. eigenvalues --    0.05938   0.06205   0.07503   0.07997   0.08720
 Alpha virt. eigenvalues --    0.08951   0.09142   0.09497   0.10725   0.10975
 Alpha virt. eigenvalues --    0.11472   0.11727   0.11988   0.12391   0.12776

  Beta  occ. eigenvalues --  -19.05807 -19.02667 -18.99342 -14.24499 -14.20237
  Beta  occ. eigenvalues --  -10.21886 -10.14774 -10.11403 -10.11072 -10.10640
  Beta  occ. eigenvalues --  -10.09524 -10.09118 -10.07768 -10.06514 -10.06407
  Beta  occ. eigenvalues --  -10.06116  -1.00475  -0.92563  -0.91553  -0.85253
  Beta  occ. eigenvalues --   -0.80357  -0.71831  -0.70128  -0.63954  -0.60484
  Beta  occ. eigenvalues --   -0.59966  -0.59806  -0.57443  -0.53208  -0.50810
  Beta  occ. eigenvalues --   -0.46691  -0.43986  -0.42928  -0.41725  -0.39585
  Beta  occ. eigenvalues --   -0.39203  -0.37893  -0.37364  -0.36123  -0.35314
  Beta  occ. eigenvalues --   -0.34995  -0.34599  -0.33723  -0.32049  -0.31579
  Beta  occ. eigenvalues --   -0.30729  -0.29525  -0.28915  -0.28284  -0.27779
  Beta  occ. eigenvalues --   -0.27566  -0.27330  -0.26039  -0.25718  -0.25065
  Beta  occ. eigenvalues --   -0.24583  -0.23987  -0.22402  -0.20240  -0.18215
  Beta  occ. eigenvalues --   -0.17572  -0.15136  -0.13429
  Beta virt. eigenvalues --    0.06345   0.06898   0.07112   0.07732   0.08626
  Beta virt. eigenvalues --    0.09005   0.09318   0.09498   0.09799   0.11048
  Beta virt. eigenvalues --    0.11103   0.11758   0.11896   0.12234   0.12552

 Mulliken charges and spin densities:
               1          2
     1  C    0.438447  -0.849772
     2  C   -1.610328   1.566797
     3  C    0.445966  -0.868660
     4  C    0.775643  -1.177726
     5  O    0.074425   0.006579
     6  C    0.017243  -0.280026
     7  O   -0.248352   0.009836
     8  N   -0.066868   0.021204
     9  C   -0.810431   0.426715
    10  C    1.031159  -1.273312
    11  N   -0.252073   0.101507
    12  C    0.467085  -0.982279
    13  C   -0.892581   1.344260
    14  C    0.610956  -0.949466
    15  C   -0.006396  -0.663709
    16  O   -0.253682  -0.001656
    17  H   -0.090462   0.236148
    18  H   -0.253224   0.409175
    19  H   -0.236634   0.384466
    20  H   -0.174131   0.338439
    21  H    0.121862   0.068055
    22  H    0.016643   0.118419
    23  H    0.011913   0.127676
    24  H   -0.015796   0.186002
    25  H   -0.157143   0.320734
    26  H    0.004487   0.143928
    27  H   -0.067373   0.275976
    28  H   -0.676878   0.847914
    29  H    0.248435  -0.095332
    30  H   -0.046677   0.307220
    31  H    0.023212   0.193251
    32  H    0.030784   0.095882
    33  H    0.117241   0.075220
    34  H    0.212792  -0.014630
    35  H    0.187692  -0.036971
    36  H   -0.003607   0.151218
    37  H    0.120978   0.091704
    38  H   -0.094331   0.345210
 Sum of Mulliken charges =  -1.00000   1.00000

 Dipole moment (field-independent basis, Debye):
    X=             -1.2412    Y=             -1.2491    Z=             -4.0188  Tot=              4.3877
 Quadrupole moment (field-independent basis, Debye-Ang):
   XX=           -177.5719   YY=           -156.1636   ZZ=           -131.5563
   XY=             -1.8177   XZ=              3.8253   YZ=             -2.6355

 Summary of Natural Population Analysis:

                                       Natural Population
                Natural  -----------------------------------------------
    Atom  No    Charge         Core      Valence    Rydberg      Total
 -----------------------------------------------------------------------
      C    1   -0.28856      0.99960     2.28179    0.00717     3.28856
      C    2    0.13551      0.99954     1.85070    0.01426     2.86449
      C    3   -0.30176      0.99960     2.29580    0.00636     3.30176
      C    4   -0.30200      0.99960     2.29565    0.00675     3.30200
      O    5   -0.30179      0.99985     3.29201    0.00992     4.30179
      C    6    0.47195      0.99963     1.50373    0.02468     2.52805
      O    7   -0.34408      0.99987     3.33930    0.00491     4.34408
      N    8   -0.26430      0.99964     2.75421    0.01044     3.76430
      C    9   -0.08533      0.99960     2.07463    0.01110     3.08533
      C   10   -0.09156      0.99961     2.08033    0.01161     3.09156
      N   11   -0.34537      0.99973     2.83355    0.01208     3.84537
      C   12   -0.09022      0.99959     2.07861    0.01202     3.09022
      C   13   -0.12780      0.99958     2.11686    0.01136     3.12780
      C   14   -0.07998      0.99959     2.07029    0.01011     3.07998
      C   15   -0.00934      0.99956     1.99716    0.01262     3.00934
      O   16   -0.37415      0.99989     3.36820    0.00606     4.37415
      H   17    0.10205      0.00000     0.39667    0.00127     0.39795
      H   18    0.10496      0.00000     0.39364    0.00140     0.39504
      H   19    0.10320      0.00000     0.39558    0.00122     0.39680
      H   20    0.10208      0.00000     0.39704    0.00088     0.39792
      H   21    0.11468      0.00000     0.38442    0.00091     0.38532
      H   22    0.10103      0.00000     0.39808    0.00089     0.39897
      H   23    0.10298      0.00000     0.39578    0.00123     0.39702
      H   24    0.11442      0.00000     0.38447    0.00112     0.38558
      H   25    0.10227      0.00000     0.39673    0.00100     0.39773
      H   26    0.09273      0.00000     0.40598    0.00129     0.40727
      H   27    0.11153      0.00000     0.38715    0.00132     0.38847
      H   28    0.09807      0.00000     0.39977    0.00216     0.40193
      H   29    0.08264      0.00000     0.41529    0.00207     0.41736
      H   30    0.17976      0.00000     0.31725    0.00300     0.32024
      H   31    0.10557      0.00000     0.39317    0.00127     0.39443
      H   32    0.08199      0.00000     0.41601    0.00200     0.41801
      H   33    0.09809      0.00000     0.40018    0.00173     0.40191
      H   34    0.10709      0.00000     0.39184    0.00107     0.39291
      H   35    0.09865      0.00000     0.40022    0.00113     0.40135
      H   36    0.07489      0.00000     0.42387    0.00124     0.42511
      H   37    0.08962      0.00000     0.40873    0.00165     0.41038
      H   38    0.23047      0.00000     0.26502    0.00451     0.26953
 =======================================================================
   * Total *   -0.00000     15.99449    46.79971    0.20581    63.00000

 Normal termination of Gaussian 16 at Fri Dec 11 00:05:15 2020.
