 Gaussian 16, Revision A.03,

 -----------------------------------------------------------
 # opt freq B3LYP/6-31G(d) empiricaldispersion=gd3bj scf=xqc
 -----------------------------------------------------------

 ------------------------------
 CID_63346914_JID_5122_neutraal
 ------------------------------
 Symbolic Z-matrix:
 Charge =  0 Multiplicity = 1

 SCF Done:  E(RB3LYP) =  -725.867355756     A.U. after   15 cycles
 SCF Done:  E(RB3LYP) =  -725.872820455     A.U. after   12 cycles
 SCF Done:  E(RB3LYP) =  -725.873740973     A.U. after   12 cycles
 SCF Done:  E(RB3LYP) =  -725.874069943     A.U. after   12 cycles
 SCF Done:  E(RB3LYP) =  -725.874626830     A.U. after   15 cycles
 SCF Done:  E(RB3LYP) =  -725.875146805     A.U. after   12 cycles
 SCF Done:  E(RB3LYP) =  -725.875332170     A.U. after   13 cycles
 SCF Done:  E(RB3LYP) =  -725.875507942     A.U. after   13 cycles
 SCF Done:  E(RB3LYP) =  -725.875633580     A.U. after   11 cycles
 SCF Done:  E(RB3LYP) =  -725.875911799     A.U. after   13 cycles
 SCF Done:  E(RB3LYP) =  -725.878355819     A.U. after    8 cycles
 SCF Done:  E(RB3LYP) =  -725.878356900     A.U. after   10 cycles
 SCF Done:  E(RB3LYP) =  -725.878357191     A.U. after    9 cycles
 SCF Done:  E(RB3LYP) =  -725.878357019     A.U. after    8 cycles
 SCF Done:  E(RB3LYP) =  -725.878357041     A.U. after    6 cycles
 Optimization completed.
    -- Stationary point found.
 Normal termination of Gaussian 16 at Thu Dec 10 15:11:12 2020.

 --------------------------------------------------------------------
 #N Geom=AllCheck Guess=TCheck SCRF=Check GenChk RB3LYP/6-31G(d) Freq
 --------------------------------------------------------------------

 Structure from the checkpoint file:  "JID_5122.chk"
 ------------------------------
 CID_63346914_JID_5122_neutraal
 ------------------------------
 Charge =  0 Multiplicity = 1

 SCF Done:  E(RB3LYP) =  -725.878357041     A.U. after    1 cycles

  Exact polarizability: 145.169  -7.030 110.496  -3.768  -4.426 106.898
 Approx polarizability: 190.315 -16.732 171.535  -8.402 -20.315 164.612

                      1                      2                      3
                      A                      A                      A
 Frequencies --     17.5235                30.0089                50.5814
 Red. masses --      3.8678                 3.6629                 4.4483
 Frc consts  --      0.0007                 0.0019                 0.0067
 IR Inten    --      0.5042                 0.3438                 0.7060

                      4                      5                      6
                      A                      A                      A
 Frequencies --     57.3987                88.8310               127.4857
 Red. masses --      6.0267                 4.0509                 3.8219
 Frc consts  --      0.0117                 0.0188                 0.0366
 IR Inten    --      2.9394                 2.4425                 1.9288

                      7                      8                      9
                      A                      A                      A
 Frequencies --    142.4864               162.7358               180.5090
 Red. masses --      2.2326                 1.4536                 2.7842
 Frc consts  --      0.0267                 0.0227                 0.0534
 IR Inten    --      1.6401                 0.9706                 1.2648

                     10                     11                     12
                      A                      A                      A
 Frequencies --    221.5552               234.8957               272.3856
 Red. masses --      1.0753                 2.8954                 1.2073
 Frc consts  --      0.0311                 0.0941                 0.0528
 IR Inten    --      0.2294                 5.1991                 1.1981

                     13                     14                     15
                      A                      A                      A
 Frequencies --    278.0055               289.9907               308.8921
 Red. masses --      1.0738                 1.9728                 3.4086
 Frc consts  --      0.0489                 0.0977                 0.1916
 IR Inten    --      0.1727                 4.0730                 1.1721

                     16                     17                     18
                      A                      A                      A
 Frequencies --    326.5354               355.2638               361.7589
 Red. masses --      3.1042                 2.5465                 3.2099
 Frc consts  --      0.1950                 0.1894                 0.2475
 IR Inten    --      9.3106                 0.3569                 1.1765

                     19                     20                     21
                      A                      A                      A
 Frequencies --    399.5297               431.7957               453.2766
 Red. masses --      2.3627                 4.5610                 4.0858
 Frc consts  --      0.2222                 0.5010                 0.4946
 IR Inten    --      3.6261                13.7629                 4.3141

                     22                     23                     24
                      A                      A                      A
 Frequencies --    504.1038               508.1605               551.8267
 Red. masses --      4.0125                 3.0567                 4.3355
 Frc consts  --      0.6008                 0.4651                 0.7779
 IR Inten    --      0.6828                14.5840                 0.7246

                     25                     26                     27
                      A                      A                      A
 Frequencies --    594.2118               675.8637               755.3880
 Red. masses --      3.1227                 6.7087                 3.9591
 Frc consts  --      0.6496                 1.8055                 1.3310
 IR Inten    --      3.1998                 1.7100                10.8545

                     28                     29                     30
                      A                      A                      A
 Frequencies --    784.7059               807.5456               848.4210
 Red. masses --      5.5647                 3.8919                 2.7887
 Frc consts  --      2.0189                 1.4954                 1.1827
 IR Inten    --      4.1456                 4.9740                 1.3438

                     31                     32                     33
                      A                      A                      A
 Frequencies --    903.7768               915.3012               949.4114
 Red. masses --      4.1619                 3.6770                 1.7837
 Frc consts  --      2.0029                 1.8150                 0.9473
 IR Inten    --     21.0678                 5.1069                 0.9470

                     34                     35                     36
                      A                      A                      A
 Frequencies --    959.7850               971.1733               982.3565
 Red. masses --      1.6744                 3.6650                 1.1993
 Frc consts  --      0.9088                 2.0367                 0.6819
 IR Inten    --      1.5121                24.4165                 0.0365

                     37                     38                     39
                      A                      A                      A
 Frequencies --   1017.8819              1023.3037              1061.1384
 Red. masses --      6.9251                 2.6375                 1.8008
 Frc consts  --      4.2274                 1.6272                 1.1947
 IR Inten    --      0.5217                10.7725                 4.1707

                     40                     41                     42
                      A                      A                      A
 Frequencies --   1062.9158              1072.3129              1143.8492
 Red. masses --      1.4125                 3.0818                 3.1046
 Frc consts  --      0.9402                 2.0878                 2.3933
 IR Inten    --      0.0969                 3.2875                90.6108

                     43                     44                     45
                      A                      A                      A
 Frequencies --   1166.2178              1191.0843              1229.2282
 Red. masses --      1.6430                 1.2891                 3.7441
 Frc consts  --      1.3166                 1.0775                 3.3332
 IR Inten    --     32.7253                 5.0549                49.5044

                     46                     47                     48
                      A                      A                      A
 Frequencies --   1233.7212              1240.9171              1245.9731
 Red. masses --      2.1400                 2.4697                 2.6557
 Frc consts  --      1.9191                 2.2407                 2.4291
 IR Inten    --     74.9874                35.6662                 3.8678

                     49                     50                     51
                      A                      A                      A
 Frequencies --   1261.2515              1281.4750              1314.6010
 Red. masses --      2.7547                 1.5358                 1.2740
 Frc consts  --      2.5819                 1.4859                 1.2972
 IR Inten    --      5.2884                34.2526                17.0364

                     52                     53                     54
                      A                      A                      A
 Frequencies --   1361.5009              1382.8532              1403.1132
 Red. masses --      2.9886                 1.3182                 3.4277
 Frc consts  --      3.2641                 1.4852                 3.9759
 IR Inten    --     13.0812                 7.5009                74.9012

                     55                     56                     57
                      A                      A                      A
 Frequencies --   1422.0018              1430.1717              1457.5549
 Red. masses --      1.2150                 1.2973                 1.2502
 Frc consts  --      1.4475                 1.5634                 1.5649
 IR Inten    --      4.3380                 3.6225                11.5609

                     58                     59                     60
                      A                      A                      A
 Frequencies --   1473.7856              1481.7185              1506.5985
 Red. masses --      1.1235                 1.0848                 1.1011
 Frc consts  --      1.4378                 1.4032                 1.4725
 IR Inten    --      5.9688                15.9906                 1.1547

                     61                     62                     63
                      A                      A                      A
 Frequencies --   1507.0448              1516.5788              1517.5664
 Red. masses --      1.0770                 1.0553                 1.0525
 Frc consts  --      1.4412                 1.4301                 1.4281
 IR Inten    --      0.9017                 0.0351                 5.3134

                     64                     65                     66
                      A                      A                      A
 Frequencies --   1520.2399              1530.4404              1531.1198
 Red. masses --      1.0453                 1.0503                 1.0564
 Frc consts  --      1.4234                 1.4494                 1.4592
 IR Inten    --      0.1413                 5.2911                 6.4899

                     67                     68                     69
                      A                      A                      A
 Frequencies --   1536.2266              1538.1911              1566.3597
 Red. masses --      1.0662                 1.8395                 2.0251
 Frc consts  --      1.4826                 2.5643                 2.9273
 IR Inten    --      7.3389                16.7026                14.6809

                     70                     71                     72
                      A                      A                      A
 Frequencies --   1634.5899              1830.3793              3005.0021
 Red. masses --     10.6702                12.0265                 1.0378
 Frc consts  --     16.7974                23.7394                 5.5212
 IR Inten    --    109.1161               186.6516                48.0117

                     73                     74                     75
                      A                      A                      A
 Frequencies --   3040.2035              3051.0413              3053.1503
 Red. masses --      1.0621                 1.0345                 1.0350
 Frc consts  --      5.7839                 5.6737                 5.6845
 IR Inten    --     34.0998                24.6021                13.1068

                     76                     77                     78
                      A                      A                      A
 Frequencies --   3055.5762              3060.8419              3076.0983
 Red. masses --      1.1036                 1.0359                 1.0608
 Frc consts  --      6.0708                 5.7179                 5.9142
 IR Inten    --     59.4678                24.1652                 3.9967

                     79                     80                     81
                      A                      A                      A
 Frequencies --   3106.6327              3118.9341              3121.1213
 Red. masses --      1.1007                 1.1032                 1.1029
 Frc consts  --      6.2592                 6.3229                 6.3301
 IR Inten    --      9.9464                11.8312                13.7176

                     82                     83                     84
                      A                      A                      A
 Frequencies --   3125.9800              3129.0690              3134.9301
 Red. masses --      1.1017                 1.1021                 1.1030
 Frc consts  --      6.3429                 6.3577                 6.3866
 IR Inten    --      0.6181                51.2625                 1.6044

                     85                     86                     87
                      A                      A                      A
 Frequencies --   3137.3438              3139.1390              3157.4114
 Red. masses --      1.1025                 1.1020                 1.0978
 Frc consts  --      6.3939                 6.3979                 6.4483
 IR Inten    --     26.2177                36.8336                16.9537

 - Thermochemistry -
 -------------------
 Temperature   298.150 Kelvin.  Pressure   1.00000 Atm.
 Atom     1 has atomic number  6 and mass  12.00000

 Molecular mass:   212.11609 amu.
 Principal axes and moments of inertia in atomic units:
                           1         2         3
     Eigenvalues --  1695.010945153.296675323.75270
           X            0.99971   0.02211  -0.01003
           Y           -0.02130   0.99701   0.07432
           Z            0.01164  -0.07408   0.99718
 This molecule is an asymmetric top.
 Rotational symmetry number  1.
 Warning -- assumption of classical behavior for rotation
           may cause significant error
 Rotational temperatures (Kelvin)      0.05110     0.01681     0.01627
 Rotational constants (GHZ):           1.06474     0.35021     0.33900
 Zero-point vibrational energy     680136.0 (Joules/Mol)
                                  162.55640 (Kcal/Mol)
 Warning -- explicit consideration of  25 degrees of freedom as
           vibrations may cause significant error
 Vibrational temperatures:     25.21    43.18    72.78    82.58   127.81
          (Kelvin)            183.42   205.01   234.14   259.71   318.77
                              337.96   391.90   399.99   417.23   444.43
                              469.81   511.15   520.49   574.83   621.26
                              652.16   725.29   731.13   793.96   854.94
                              972.42  1086.83  1129.02  1161.88  1220.69
                             1300.33  1316.91  1365.99  1380.92  1397.30
                             1413.39  1464.51  1472.31  1526.74  1529.30
                             1542.82  1645.74  1677.93  1713.70  1768.59
                             1775.05  1785.40  1792.68  1814.66  1843.76
                             1891.42  1958.90  1989.62  2018.77  2045.94
                             2057.70  2097.10  2120.45  2131.86  2167.66
                             2168.30  2182.02  2183.44  2187.29  2201.96
                             2202.94  2210.29  2213.11  2253.64  2351.81
                             2633.51  4323.53  4374.17  4389.77  4392.80
                             4396.29  4403.87  4425.82  4469.75  4487.45
                             4490.60  4497.59  4502.03  4510.47  4513.94
                             4516.52  4542.81

 Zero-point correction=                           0.259050 (Hartree/Particle)
 Thermal correction to Energy=                    0.275262
 Thermal correction to Enthalpy=                  0.276206
 Thermal correction to Gibbs Free Energy=         0.213692
 Sum of electronic and zero-point Energies=           -725.619307
 Sum of electronic and thermal Energies=              -725.603095
 Sum of electronic and thermal Enthalpies=            -725.602151
 Sum of electronic and thermal Free Energies=         -725.664665

                     E (Thermal)             CV                S
                      KCal/Mol        Cal/Mol-Kelvin    Cal/Mol-Kelvin
 Total                  172.729             58.616            131.572
 Electronic               0.000              0.000              0.000
 Translational            0.889              2.981             41.959
 Rotational               0.889              2.981             32.209
 Vibrational            170.952             52.655             57.404
 Vibration     1          0.593              1.986              6.897
 Vibration     2          0.594              1.984              5.829
 Vibration     3          0.595              1.977              4.795
 Vibration     4          0.596              1.975              4.545
 Vibration     5          0.602              1.957              3.686
 Vibration     6          0.611              1.926              2.984
 Vibration     7          0.616              1.911              2.770
 Vibration     8          0.623              1.888              2.518
 Vibration     9          0.629              1.866              2.323
 Vibration    10          0.648              1.808              1.946
 Vibration    11          0.655              1.787              1.841
 Vibration    12          0.675              1.724              1.581
 Vibration    13          0.679              1.714              1.546
 Vibration    14          0.686              1.692              1.474
 Vibration    15          0.698              1.657              1.368
 Vibration    16          0.710              1.622              1.277
 Vibration    17          0.731              1.564              1.143
 Vibration    18          0.736              1.551              1.115
 Vibration    19          0.766              1.471              0.964
 Vibration    20          0.793              1.401              0.853
 Vibration    21          0.812              1.354              0.786
 Vibration    22          0.859              1.241              0.648
 Vibration    23          0.863              1.232              0.638
 Vibration    24          0.907              1.136              0.540
 Vibration    25          0.952              1.044              0.460

 Optimization completed.
    -- Stationary point found.
 Normal termination of Gaussian 16 at Thu Dec 10 15:20:33 2020.

 ----------------------------------------------------------------------
 # B3LYP/6-311++G(d,p) empiricaldispersion=gd3bj scf=xqc pop=npa geom=c
 heck
 ----------------------------------------------------------------------

 --------------------------------------
 CID_63346914_JID_5122_Energie_neutraal
 --------------------------------------
 Structure from the checkpoint file:  "JID_5122.chk"
 Charge =  0 Multiplicity = 1

 SCF Done:  E(RB3LYP) =  -726.083989842     A.U. after   15 cycles
 Normal termination of Gaussian 16 at Thu Dec 10 15:24:19 2020.

 ----------------------------------------------------------------------
 # B3LYP/6-311++G(d,p) empiricaldispersion=gd3bj scf=xqc pop=npa geom=c
 heck
 ----------------------------------------------------------------------

 ------------------------------------
 CID_63346914_JID_5122_Energie_kation
 ------------------------------------
 Structure from the checkpoint file:  "JID_5122.chk"
 Charge =  1 Multiplicity = 2

 SCF Done:  E(UB3LYP) =  -725.751075764     A.U. after   23 cycles
 Normal termination of Gaussian 16 at Thu Dec 10 15:32:05 2020.
 Gaussian 16:  ES64L-G16RevA.03 25-Dec-2016

 ----------------------------------------------------------------------
 # B3LYP/6-311++G(d,p) empiricaldispersion=gd3bj scf=xqc pop=npa geom=c
 heck
 ----------------------------------------------------------------------

 -----------------------------------
 CID_63346914_JID_5122_Energie_anion
 -----------------------------------
 Structure from the checkpoint file:  "JID_5122.chk"
 Charge = -1 Multiplicity = 2

                         Standard orientation:
 ---------------------------------------------------------------------
 Center     Atomic      Atomic             Coordinates (Angstroms)
 Number     Number       Type             X           Y           Z
 ---------------------------------------------------------------------
      1          6           0       -3.780225    0.949209   -0.122660
      2          6           0       -2.766674   -0.096790    0.364830
      3          6           0       -2.452742    0.123854    1.859549
      4          6           0       -3.327963   -1.518877    0.158987
      5          6           0       -1.474121    0.017508   -0.402648
      6          7           0       -1.268679    0.898841   -1.349790
      7          8           0        0.063049    0.642540   -1.752557
      8          6           0        0.500745   -0.368574   -0.988402
      9          7           0       -0.390596   -0.807389   -0.149736
     10          6           0        1.899992   -0.844991   -1.164349
     11          6           0        2.666439   -0.999904    0.158533
     12          8           0        3.464636   -1.896894    0.316692
     13          6           0        2.369976    0.009007    1.271291
     14          8           0        1.888668    1.248007    0.801156
     15          6           0        2.906715    2.088120    0.285364
     16          1           0       -4.710875    0.850683    0.446676
     17          1           0       -4.008516    0.816264   -1.184499
     18          1           0       -3.397706    1.965441    0.012175
     19          1           0       -3.369345    0.020024    2.450961
     20          1           0       -1.723225   -0.609065    2.216545
     21          1           0       -2.044923    1.126106    2.029870
     22          1           0       -3.570938   -1.695317   -0.894590
     23          1           0       -2.602977   -2.274266    0.475883
     24          1           0       -4.243965   -1.645351    0.746889
     25          1           0        1.922336   -1.819584   -1.661025
     26          1           0        2.438154   -0.135800   -1.803763
     27          1           0        1.572484   -0.421462    1.887268
     28          1           0        3.271342    0.113994    1.891039
     29          1           0        3.643465    2.342604    1.061234
     30          1           0        3.439779    1.626179   -0.559780
     31          1           0        2.416152    2.998780   -0.063508
 ---------------------------------------------------------------------

 SCF Done:  E(UB3LYP) =  -726.078351432     A.U. after   33 cycles
 SCF Done:  E(UB3LYP) =  -726.078351432     a.u. after    1 cycles

 The electronic state is 2-A.
 Alpha  occ. eigenvalues --  -19.09488 -19.02651 -18.96531 -14.24285 -14.19581
 Alpha  occ. eigenvalues --  -10.15576 -10.12083 -10.11998 -10.10333 -10.10232
 Alpha  occ. eigenvalues --  -10.09289 -10.07719 -10.05930 -10.05565 -10.05273
 Alpha  occ. eigenvalues --   -1.04254  -0.94018  -0.90520  -0.82142  -0.76468
 Alpha  occ. eigenvalues --   -0.70739  -0.65285  -0.62535  -0.58649  -0.58334
 Alpha  occ. eigenvalues --   -0.55257  -0.53268  -0.49678  -0.44610  -0.43021
 Alpha  occ. eigenvalues --   -0.39343  -0.39191  -0.37911  -0.37161  -0.36188
 Alpha  occ. eigenvalues --   -0.34024  -0.33625  -0.33338  -0.31875  -0.31670
 Alpha  occ. eigenvalues --   -0.29805  -0.29104  -0.28767  -0.28424  -0.27715
 Alpha  occ. eigenvalues --   -0.26395  -0.24212  -0.23970  -0.23470  -0.23325
 Alpha  occ. eigenvalues --   -0.22717  -0.21796  -0.20296  -0.18348  -0.17899
 Alpha  occ. eigenvalues --   -0.16745  -0.11506   0.04961
 Alpha virt. eigenvalues --    0.06503   0.07466   0.08878   0.09156   0.09439
 Alpha virt. eigenvalues --    0.09764   0.09903   0.10602   0.11781   0.11864
 Alpha virt. eigenvalues --    0.12250   0.12612   0.12865   0.13534   0.13985

  Beta  occ. eigenvalues --  -19.09411 -19.02632 -18.96143 -14.24205 -14.19582
  Beta  occ. eigenvalues --  -10.15465 -10.12073 -10.11998 -10.10268 -10.09883
  Beta  occ. eigenvalues --  -10.09289 -10.07760 -10.05917 -10.05549 -10.05238
  Beta  occ. eigenvalues --   -1.04124  -0.93949  -0.89775  -0.82075  -0.76335
  Beta  occ. eigenvalues --   -0.70696  -0.64988  -0.62486  -0.58612  -0.58281
  Beta  occ. eigenvalues --   -0.55037  -0.53203  -0.49492  -0.44460  -0.42496
  Beta  occ. eigenvalues --   -0.39206  -0.39063  -0.37730  -0.36889  -0.36032
  Beta  occ. eigenvalues --   -0.33939  -0.33558  -0.33280  -0.31688  -0.31341
  Beta  occ. eigenvalues --   -0.29390  -0.29023  -0.28510  -0.28309  -0.27615
  Beta  occ. eigenvalues --   -0.26372  -0.24056  -0.23910  -0.23296  -0.22905
  Beta  occ. eigenvalues --   -0.22362  -0.20718  -0.20093  -0.18220  -0.17793
  Beta  occ. eigenvalues --   -0.16366  -0.11221
  Beta virt. eigenvalues --    0.07185   0.07495   0.08970   0.09397   0.09775
  Beta virt. eigenvalues --    0.09919   0.10009   0.10468   0.11529   0.11933
  Beta virt. eigenvalues --    0.12088   0.12389   0.12640   0.13173   0.13669

 Mulliken charges and spin densities:
               1          2
     1  C    0.192336  -0.898886
     2  C   -3.024207   4.373638
     3  C    0.134553  -0.746735
     4  C   -0.027148  -0.564048
     5  C    2.555083  -2.811214
     6  N   -0.384858   0.062072
     7  O    0.298578   0.012939
     8  C    0.349532  -1.066516
     9  N    0.117258   0.056809
    10  C   -0.437324  -0.098393
    11  C   -0.169160   0.344765
    12  O   -0.361453   0.137310
    13  C   -0.042269  -0.252715
    14  O   -0.051758   0.022698
    15  C   -0.282548   0.033258
    16  H   -0.424636   0.588643
    17  H    0.061655   0.093857
    18  H    0.138137   0.017735
    19  H   -0.549459   0.721279
    20  H    0.108187   0.039612
    21  H    0.007799   0.142984
    22  H    0.035474   0.106438
    23  H    0.153003   0.003857
    24  H   -0.234002   0.395182
    25  H    0.212955  -0.000642
    26  H    0.094474   0.087398
    27  H   -0.006462   0.213663
    28  H    0.159334  -0.021786
    29  H    0.120874  -0.003061
    30  H    0.116857   0.005273
    31  H    0.139196   0.004588
 Sum of Mulliken charges =  -1.00000   1.00000

 Dipole moment (field-independent basis, Debye):
    X=              3.1221    Y=              2.4524    Z=             -2.8421  Tot=              4.8825
 Quadrupole moment (field-independent basis, Debye-Ang):
   XX=           -163.3998   YY=           -115.4627   ZZ=           -118.3171
   XY=             16.0607   XZ=              8.7164   YZ=              4.8244

 Summary of Natural Population Analysis:

                                       Natural Population
                Natural  -----------------------------------------------
    Atom  No    Charge         Core      Valence    Rydberg      Total
 -----------------------------------------------------------------------
      C    1   -0.28221      0.99964     2.27503    0.00754     3.28221
      C    2   -0.06549      0.99954     2.05468    0.01128     3.06549
      C    3   -0.27959      0.99963     2.27265    0.00731     3.27959
      C    4   -0.27872      0.99963     2.27238    0.00671     3.27872
      C    5    0.18652      0.99957     1.79165    0.02225     2.81348
      N    6   -0.09273      0.99965     2.58141    0.01167     3.59273
      O    7   -0.16863      0.99985     3.16063    0.00816     4.16863
      C    8    0.31012      0.99962     1.66895    0.02131     2.68988
      N    9   -0.27945      0.99965     2.77143    0.00836     3.77945
      C   10   -0.26754      0.99955     2.25867    0.00933     3.26754
      C   11    0.33294      0.99970     1.64467    0.02269     2.66706
      O   12   -0.26183      0.99987     3.25528    0.00667     4.26183
      C   13   -0.05992      0.99955     2.04677    0.01361     3.05992
      O   14   -0.29383      0.99989     3.28327    0.01067     4.29383
      C   15   -0.09761      0.99962     2.08924    0.00875     3.09761
      H   16    0.09881      0.00000     0.40020    0.00098     0.40119
      H   17    0.10260      0.00000     0.39637    0.00103     0.39740
      H   18    0.10413      0.00000     0.39477    0.00110     0.39587
      H   19    0.09949      0.00000     0.39884    0.00167     0.40051
      H   20    0.10769      0.00000     0.39119    0.00112     0.39231
      H   21    0.10172      0.00000     0.39699    0.00128     0.39828
      H   22    0.09833      0.00000     0.40086    0.00081     0.40167
      H   23    0.10702      0.00000     0.39198    0.00100     0.39298
      H   24    0.09894      0.00000     0.40021    0.00085     0.40106
      H   25    0.12105      0.00000     0.37805    0.00090     0.37895
      H   26    0.11747      0.00000     0.38148    0.00105     0.38253
      H   27    0.11128      0.00000     0.38718    0.00153     0.38872
      H   28    0.08634      0.00000     0.41257    0.00109     0.41366
      H   29    0.07536      0.00000     0.42367    0.00097     0.42464
      H   30    0.07779      0.00000     0.42079    0.00142     0.42221
      H   31    0.08994      0.00000     0.40941    0.00065     0.41006
 =======================================================================
   * Total *    0.00000     14.99496    41.81126    0.19378    57.00000

 Normal termination of Gaussian 16 at Thu Dec 10 15:43:26 2020.
