 Gaussian 16, Revision A.03,

 -----------------------------------------------------------
 # opt freq B3LYP/6-31G(d) empiricaldispersion=gd3bj scf=xqc
 -----------------------------------------------------------

 ------------------------------
 CID_105430344_JID_523_neutraal
 ------------------------------
 Symbolic Z-matrix:
 Charge =  0 Multiplicity = 1

 SCF Done:  E(RB3LYP) =  -800.341709104     A.U. after   15 cycles
 SCF Done:  E(RB3LYP) =  -800.344761639     A.U. after   12 cycles
 SCF Done:  E(RB3LYP) =  -800.345150646     A.U. after   11 cycles
 SCF Done:  E(RB3LYP) =  -800.345354529     A.U. after   11 cycles
 SCF Done:  E(RB3LYP) =  -800.345411023     A.U. after   11 cycles
 SCF Done:  E(RB3LYP) =  -800.345463512     A.U. after   10 cycles
 SCF Done:  E(RB3LYP) =  -800.345503963     A.U. after   10 cycles
 SCF Done:  E(RB3LYP) =  -800.345517463     A.U. after    9 cycles
 SCF Done:  E(RB3LYP) =  -800.345522048     A.U. after    9 cycles
 SCF Done:  E(RB3LYP) =  -800.345524044     A.U. after    8 cycles
 SCF Done:  E(RB3LYP) =  -800.345524909     A.U. after    8 cycles
 SCF Done:  E(RB3LYP) =  -800.345525188     A.U. after    7 cycles
 SCF Done:  E(RB3LYP) =  -800.345525287     A.U. after    7 cycles
 Optimization completed.
    -- Stationary point found.
 Normal termination of Gaussian 16 at Tue Dec  8 12:18:55 2020.

 --------------------------------------------------------------------
 #N Geom=AllCheck Guess=TCheck SCRF=Check GenChk RB3LYP/6-31G(d) Freq
 --------------------------------------------------------------------

 Structure from the checkpoint file:  "JID_523.chk"
 ------------------------------
 CID_105430344_JID_523_neutraal
 ------------------------------
 Charge =  0 Multiplicity = 1

 SCF Done:  E(RB3LYP) =  -800.345525287     A.U. after    1 cycles

  Exact polarizability: 114.355   0.224 107.952   4.319   2.281  59.543
 Approx polarizability: 163.494  -4.207 182.728   9.239   6.693  92.819

                      1                      2                      3
                      A                      A                      A
 Frequencies --     64.5116               111.4001               132.6723
 Red. masses --      2.6119                 3.9095                 4.4475
 Frc consts  --      0.0064                 0.0286                 0.0461
 IR Inten    --      0.2833                 0.2338                 0.2915

                      4                      5                      6
                      A                      A                      A
 Frequencies --    150.8950               165.5101               262.9925
 Red. masses --      1.5526                 1.9712                 3.9324
 Frc consts  --      0.0208                 0.0318                 0.1603
 IR Inten    --      0.1276                 0.3259                 0.2150

                      7                      8                      9
                      A                      A                      A
 Frequencies --    277.6094               345.2567               371.7179
 Red. masses --      3.4012                 4.3755                 4.8182
 Frc consts  --      0.1544                 0.3073                 0.3922
 IR Inten    --      0.1217                 1.7683                 1.1246

                     10                     11                     12
                      A                      A                      A
 Frequencies --    463.1716               489.4638               498.6543
 Red. masses --      5.2169                 3.4177                 1.6532
 Frc consts  --      0.6594                 0.4824                 0.2422
 IR Inten    --      7.3047                19.6312                53.0654

                     13                     14                     15
                      A                      A                      A
 Frequencies --    547.7663               635.1216               658.3376
 Red. masses --      2.9282                 8.9792                 6.7927
 Frc consts  --      0.5177                 2.1340                 1.7346
 IR Inten    --     17.5700                21.3936                19.8223

                     16                     17                     18
                      A                      A                      A
 Frequencies --    661.8563               712.5695               805.8000
 Red. masses --      4.4799                 3.7721                 1.1709
 Frc consts  --      1.1562                 1.1285                 0.4479
 IR Inten    --      7.7755                 3.7598                 0.2122

                     19                     20                     21
                      A                      A                      A
 Frequencies --    839.2148               855.7511               934.9984
 Red. masses --      1.3049                 2.6087                 2.8426
 Frc consts  --      0.5415                 1.1256                 1.4642
 IR Inten    --      4.2481                 2.3498                 9.1237

                     22                     23                     24
                      A                      A                      A
 Frequencies --    950.3612              1064.4983              1071.8442
 Red. masses --      3.6022                 1.6363                 1.3025
 Frc consts  --      1.9169                 1.0925                 0.8817
 IR Inten    --     18.0280                 3.3948                 7.3901

                     25                     26                     27
                      A                      A                      A
 Frequencies --   1077.2928              1096.2928              1133.5134
 Red. masses --      1.4019                 1.3340                 1.7071
 Frc consts  --      0.9586                 0.9446                 1.2923
 IR Inten    --      1.6195                 2.6099                 0.3053

                     28                     29                     30
                      A                      A                      A
 Frequencies --   1137.3908              1192.3888              1214.1345
 Red. masses --      1.2036                 2.9407                 1.5107
 Frc consts  --      0.9174                 2.4634                 1.3121
 IR Inten    --      1.1755                33.5758                10.4454

                     31                     32                     33
                      A                      A                      A
 Frequencies --   1216.8147              1234.3574              1265.1098
 Red. masses --      2.7820                 4.0268                 1.6788
 Frc consts  --      2.4269                 3.6149                 1.5831
 IR Inten    --      2.4044                57.3352                 5.0259

                     34                     35                     36
                      A                      A                      A
 Frequencies --   1406.1131              1444.6039              1461.3191
 Red. masses --      1.6619                 1.2553                 2.8611
 Frc consts  --      1.9359                 1.5434                 3.5998
 IR Inten    --     27.3250                 1.2664                31.1545

                     37                     38                     39
                      A                      A                      A
 Frequencies --   1494.1576              1511.9795              1522.2090
 Red. masses --      1.0881                 1.0427                 1.0659
 Frc consts  --      1.4313                 1.4044                 1.4552
 IR Inten    --      1.5281                 5.2584                 3.3117

                     40                     41                     42
                      A                      A                      A
 Frequencies --   1532.8469              1704.7602              1831.3548
 Red. masses --      1.3316                 7.8943                11.5083
 Frc consts  --      1.8434                13.5173                22.7408
 IR Inten    --      1.4393                 6.4856               647.1426

                     43                     44                     45
                      A                      A                      A
 Frequencies --   3044.4950              3091.8067              3134.8986
 Red. masses --      1.0387                 1.1016                 1.0867
 Frc consts  --      5.6723                 6.2042                 6.2923
 IR Inten    --     34.2230                15.5154                13.9808

                     46                     47                     48
                      A                      A                      A
 Frequencies --   3147.5603              3153.3037              3160.1715
 Red. masses --      1.0974                 1.0523                 1.0582
 Frc consts  --      6.4058                 6.1651                 6.2261
 IR Inten    --     11.3590                12.1584                 9.0636

                     49                     50                     51
                      A                      A                      A
 Frequencies --   3231.8452              3246.3242              3630.1811
 Red. masses --      1.1200                 1.1170                 1.0782
 Frc consts  --      6.8926                 6.9353                 8.3716
 IR Inten    --      1.3572                17.9680                46.8423

 - Thermochemistry -
 -------------------
 Temperature   298.150 Kelvin.  Pressure   1.00000 Atm.
 Atom     1 has atomic number  6 and mass  12.00000

 Molecular mass:   155.04049 amu.
 Principal axes and moments of inertia in atomic units:
                           1         2         3
     Eigenvalues --   949.671592027.940752854.77830
           X            0.99995   0.00941  -0.00282
           Y           -0.00941   0.99995  -0.00205
           Z            0.00281   0.00207   0.99999
 This molecule is an asymmetric top.
 Rotational symmetry number  1.
 Warning -- assumption of classical behavior for rotation
           may cause significant error
 Rotational temperatures (Kelvin)      0.09120     0.04271     0.03034
 Rotational constants (GHZ):           1.90038     0.88994     0.63218
 Zero-point vibrational energy     397095.6 (Joules/Mol)
                                   94.90813 (Kcal/Mol)
 Warning -- explicit consideration of  13 degrees of freedom as
           vibrations may cause significant error
 Vibrational temperatures:     92.82   160.28   190.89   217.10   238.13
          (Kelvin)            378.39   399.42   496.75   534.82   666.40
                              704.23   717.45   788.11   913.80   947.20
                              952.26  1025.23  1159.37  1207.44  1231.23
                             1345.25  1367.36  1531.58  1542.14  1549.98
                             1577.32  1630.87  1636.45  1715.58  1746.87
                             1750.72  1775.96  1820.21  2023.08  2078.46
                             2102.51  2149.76  2175.40  2190.12  2205.42
                             2452.77  2634.91  4380.35  4448.42  4510.42
                             4528.64  4536.90  4546.78  4649.90  4670.74
                             5223.02

 Zero-point correction=                           0.151246 (Hartree/Particle)
 Thermal correction to Energy=                    0.161130
 Thermal correction to Enthalpy=                  0.162075
 Thermal correction to Gibbs Free Energy=         0.115666
 Sum of electronic and zero-point Energies=           -800.194280
 Sum of electronic and thermal Energies=              -800.184395
 Sum of electronic and thermal Enthalpies=            -800.183451
 Sum of electronic and thermal Free Energies=         -800.229860

                     E (Thermal)             CV                S
                      KCal/Mol        Cal/Mol-Kelvin    Cal/Mol-Kelvin
 Total                  101.111             36.689             97.676
 Electronic               0.000              0.000              0.000
 Translational            0.889              2.981             41.025
 Rotational               0.889              2.981             30.087
 Vibrational             99.333             30.727             26.564
 Vibration     1          0.597              1.971              4.314
 Vibration     2          0.607              1.940              3.244
 Vibration     3          0.613              1.921              2.907
 Vibration     4          0.618              1.902              2.661
 Vibration     5          0.624              1.885              2.486
 Vibration     6          0.670              1.741              1.642
 Vibration     7          0.679              1.715              1.548
 Vibration     8          0.724              1.585              1.188
 Vibration     9          0.743              1.530              1.073
 Vibration    10          0.821              1.332              0.757
 Vibration    11          0.845              1.273              0.685
 Vibration    12          0.854              1.253              0.661
 Vibration    13          0.903              1.145              0.549

                           ! Non-Optimized Parameters !
 Normal termination of Gaussian 16 at Tue Dec  8 12:24:43 2020.

 ----------------------------------------------------------------------
 # B3LYP/6-311++G(d,p) empiricaldispersion=gd3bj scf=xqc pop=npa geom=c
 heck
 ----------------------------------------------------------------------

 --------------------------------------
 CID_105430344_JID_523_Energie_neutraal
 --------------------------------------
 Structure from the checkpoint file:  "JID_523.chk"
 Charge =  0 Multiplicity = 1

 SCF Done:  E(RB3LYP) =  -800.488117701     A.U. after   15 cycles
 Normal termination of Gaussian 16 at Tue Dec  8 12:26:20 2020.

 ----------------------------------------------------------------------
 # B3LYP/6-311++G(d,p) empiricaldispersion=gd3bj scf=xqc pop=npa geom=c
 heck
 ----------------------------------------------------------------------

 ------------------------------------
 CID_105430344_JID_523_Energie_kation
 ------------------------------------
 Structure from the checkpoint file:  "JID_523.chk"
 Charge =  1 Multiplicity = 2

 SCF Done:  E(UB3LYP) =  -800.197966956     A.U. after   21 cycles
 Normal termination of Gaussian 16 at Tue Dec  8 12:29:27 2020.
 Gaussian 16:  ES64L-G16RevA.03 25-Dec-2016

 ----------------------------------------------------------------------
 # B3LYP/6-311++G(d,p) empiricaldispersion=gd3bj scf=xqc pop=npa geom=c
 heck
 ----------------------------------------------------------------------

 -----------------------------------
 CID_105430344_JID_523_Energie_anion
 -----------------------------------
 Structure from the checkpoint file:  "JID_523.chk"
 Charge = -1 Multiplicity = 2

                         Standard orientation:
 ---------------------------------------------------------------------
 Center     Atomic      Atomic             Coordinates (Angstroms)
 Number     Number       Type             X           Y           Z
 ---------------------------------------------------------------------
      1          6           0       -0.503278    2.432748   -0.093487
      2          6           0        0.130364    1.078850   -0.080788
      3          6           0       -0.451214   -0.125137   -0.279283
      4          7           0        0.461873   -1.187222   -0.243028
      5          6           0        1.785958   -0.897755   -0.002355
      6          8           0        2.706534   -1.681199    0.079491
      7         16           0        1.877705    0.908823    0.178346
      8          6           0       -1.874742   -0.439234   -0.555869
      9          6           0       -2.618015   -1.393175    0.361153
     10          6           0       -2.968634    0.069501    0.353660
     11          1           0       -1.575345    2.346968   -0.285828
     12          1           0       -0.069002    3.067227   -0.875751
     13          1           0       -0.364716    2.952945    0.862500
     14          1           0        0.180065   -2.153220   -0.341516
     15          1           0       -2.131672   -0.513609   -1.612290
     16          1           0       -3.309686   -2.097083   -0.091513
     17          1           0       -2.086003   -1.775789    1.227600
     18          1           0       -2.670505    0.660139    1.213872
     19          1           0       -3.904432    0.376607   -0.103525
 ---------------------------------------------------------------------

 SCF Done:  E(UB3LYP) =  -800.476944841     A.U. after   31 cycles

 The electronic state is 2-A.
 Alpha  occ. eigenvalues --  -88.76781 -19.00668 -14.26359 -10.20166 -10.11978
 Alpha  occ. eigenvalues --  -10.10312 -10.08931 -10.07624 -10.07424 -10.07360
 Alpha  occ. eigenvalues --   -7.85441  -5.81742  -5.81417  -5.80947  -0.95920
 Alpha  occ. eigenvalues --   -0.86912  -0.76483  -0.72079  -0.64810  -0.60986
 Alpha  occ. eigenvalues --   -0.52081  -0.50596  -0.49459  -0.46488  -0.41870
 Alpha  occ. eigenvalues --   -0.39126  -0.36728  -0.34946  -0.34768  -0.32070
 Alpha  occ. eigenvalues --   -0.31689  -0.29942  -0.29457  -0.26782  -0.25377
 Alpha  occ. eigenvalues --   -0.24131  -0.20660  -0.20168  -0.18826  -0.17561
 Alpha  occ. eigenvalues --   -0.11178   0.04508
 Alpha virt. eigenvalues --    0.06954   0.07934   0.08309   0.09281   0.09996
 Alpha virt. eigenvalues --    0.10437   0.10852   0.11053   0.11428   0.12789
 Alpha virt. eigenvalues --    0.13004   0.14036   0.14087   0.15193   0.15924

  Beta  occ. eigenvalues --  -88.76773 -19.00668 -14.26343 -10.20149 -10.11976
  Beta  occ. eigenvalues --  -10.10283 -10.08907 -10.07587 -10.07383 -10.07323
  Beta  occ. eigenvalues --   -7.85433  -5.81730  -5.81413  -5.80938  -0.95908
  Beta  occ. eigenvalues --   -0.86888  -0.76443  -0.72021  -0.64763  -0.60924
  Beta  occ. eigenvalues --   -0.52022  -0.50497  -0.49371  -0.46419  -0.41824
  Beta  occ. eigenvalues --   -0.39030  -0.36665  -0.34898  -0.34743  -0.32014
  Beta  occ. eigenvalues --   -0.31634  -0.29891  -0.29410  -0.26732  -0.25323
  Beta  occ. eigenvalues --   -0.24098  -0.20613  -0.20114  -0.18777  -0.17545
  Beta  occ. eigenvalues --   -0.11098
  Beta virt. eigenvalues --    0.07119   0.07991   0.08646   0.09165   0.09671
  Beta virt. eigenvalues --    0.10228   0.11074   0.11438   0.11573   0.11841
  Beta virt. eigenvalues --    0.13143   0.13246   0.14268   0.14702   0.15257

 Mulliken charges and spin densities:
               1          2
     1  C    1.887280  -2.154057
     2  C    1.361841   0.602469
     3  C    1.282775  -3.150347
     4  N   -0.044842   0.109893
     5  C    0.131548   0.012064
     6  O   -0.377317   0.004186
     7  S   -0.344404   0.047445
     8  C   -4.525461   4.347186
     9  C    1.392951  -1.875382
    10  C    1.390755  -1.807925
    11  H   -0.308967   0.501382
    12  H   -0.145535   0.287309
    13  H   -0.297547   0.454868
    14  H   -0.004939   0.329578
    15  H   -1.001503   1.256014
    16  H   -0.672387   0.846828
    17  H   -0.132616   0.288243
    18  H   -0.150560   0.295548
    19  H   -0.441073   0.604699
 Sum of Mulliken charges =  -1.00000   1.00000

 Dipole moment (field-independent basis, Debye):
    X=              5.4586    Y=              1.1347    Z=              1.7932  Tot=              5.8566
 Quadrupole moment (field-independent basis, Debye-Ang):
   XX=           -137.5118   YY=           -108.7901   ZZ=            -96.4039
   XY=              0.2921   XZ=             -8.3990   YZ=             -3.1407

 Summary of Natural Population Analysis:

                                       Natural Population
                Natural  -----------------------------------------------
    Atom  No    Charge         Core      Valence    Rydberg      Total
 -----------------------------------------------------------------------
      C    1   -0.29839      0.99961     2.29188    0.00689     3.29839
      C    2   -0.09332      0.99941     2.08234    0.01157     3.09332
      C    3    0.06444      0.99938     1.92173    0.01445     2.93556
      N    4   -0.30347      0.99962     2.79422    0.00963     3.80347
      C    5    0.26561      0.99972     1.70727    0.02740     2.73439
      O    6   -0.31612      0.99987     3.30856    0.00769     4.31612
      S    7    0.12436      4.99947     2.85725    0.01892     7.87564
      C    8   -0.13498      0.99956     2.12229    0.01312     3.13498
      C    9   -0.19279      0.99963     2.18351    0.00965     3.19279
      C   10   -0.18933      0.99963     2.17978    0.00992     3.18933
      H   11    0.11509      0.00000     0.38331    0.00160     0.38491
      H   12    0.10459      0.00000     0.39429    0.00111     0.39541
      H   13    0.10615      0.00000     0.39209    0.00175     0.39385
      H   14    0.20686      0.00000     0.29039    0.00276     0.29314
      H   15    0.11780      0.00000     0.37674    0.00545     0.38220
      H   16    0.10912      0.00000     0.38719    0.00369     0.39088
      H   17    0.10155      0.00000     0.39715    0.00129     0.39845
      H   18    0.10417      0.00000     0.39440    0.00143     0.39583
      H   19    0.10864      0.00000     0.38854    0.00281     0.39136
 =======================================================================
   * Total *    0.00000     13.99590    26.85294    0.15115    41.00000

 Normal termination of Gaussian 16 at Tue Dec  8 12:39:33 2020.
