 Gaussian 16, Revision A.03,

 -----------------------------------------------------------
 # opt freq B3LYP/6-31G(d) empiricaldispersion=gd3bj scf=xqc
 -----------------------------------------------------------

 -------------------------------
 CID_107005320_JID_3323_neutraal
 -------------------------------
 Symbolic Z-matrix:
 Charge =  0 Multiplicity = 1

 SCF Done:  E(RB3LYP) =  -581.673338827     A.U. after   13 cycles
 SCF Done:  E(RB3LYP) =  -581.675289189     A.U. after   11 cycles
 SCF Done:  E(RB3LYP) =  -581.675644948     A.U. after   10 cycles
 SCF Done:  E(RB3LYP) =  -581.675805482     A.U. after   10 cycles
 SCF Done:  E(RB3LYP) =  -581.675821110     A.U. after    9 cycles
 SCF Done:  E(RB3LYP) =  -581.675827290     A.U. after    8 cycles
 SCF Done:  E(RB3LYP) =  -581.675828190     A.U. after    7 cycles
 SCF Done:  E(RB3LYP) =  -581.675828456     A.U. after    6 cycles
 SCF Done:  E(RB3LYP) =  -581.675828516     A.U. after    6 cycles
 Optimization completed.
    -- Stationary point found.
 Normal termination of Gaussian 16 at Wed Dec  9 22:54:32 2020.

 --------------------------------------------------------------------
 #N Geom=AllCheck Guess=TCheck SCRF=Check GenChk RB3LYP/6-31G(d) Freq
 --------------------------------------------------------------------

 Structure from the checkpoint file:  "JID_3323.chk"
 -------------------------------
 CID_107005320_JID_3323_neutraal
 -------------------------------
 Charge =  0 Multiplicity = 1

 SCF Done:  E(RB3LYP) =  -581.675828516     A.U. after    1 cycles

  Exact polarizability: 129.638  -3.593 116.483   0.147   4.593 105.622
 Approx polarizability: 160.502  -3.578 167.885  -1.175   2.553 160.766

                      1                      2                      3
                      A                      A                      A
 Frequencies --     42.9885                71.3160                83.0356
 Red. masses --      2.9764                 3.6567                 3.2041
 Frc consts  --      0.0032                 0.0110                 0.0130
 IR Inten    --      0.0993                 1.2422                 0.2853

                      4                      5                      6
                      A                      A                      A
 Frequencies --    140.1017               172.6675               199.6606
 Red. masses --      3.3721                 3.0120                 1.8766
 Frc consts  --      0.0390                 0.0529                 0.0441
 IR Inten    --      1.2342                31.6287                26.1665

                      7                      8                      9
                      A                      A                      A
 Frequencies --    206.1138               224.9720               238.3273
 Red. masses --      1.3555                 1.1018                 1.4692
 Frc consts  --      0.0339                 0.0329                 0.0492
 IR Inten    --     60.8586                 0.2084                 1.3858

                     10                     11                     12
                      A                      A                      A
 Frequencies --    246.1256               274.4855               301.7360
 Red. masses --      1.7884                 2.3631                 3.4593
 Frc consts  --      0.0638                 0.1049                 0.1856
 IR Inten    --      3.4012                 5.2047                 5.4713

                     13                     14                     15
                      A                      A                      A
 Frequencies --    336.4412               369.2475               380.9845
 Red. masses --      2.9333                 2.2500                 2.2476
 Frc consts  --      0.1956                 0.1807                 0.1922
 IR Inten    --      7.9727                 1.0254                 1.0941

                     16                     17                     18
                      A                      A                      A
 Frequencies --    399.5111               421.9390               477.4059
 Red. masses --      2.1964                 2.6620                 2.5943
 Frc consts  --      0.2065                 0.2792                 0.3484
 IR Inten    --      2.3707                 6.1136                 7.2285

                     19                     20                     21
                      A                      A                      A
 Frequencies --    483.0103               534.4604               551.6366
 Red. masses --      2.8641                 2.6507                 2.8176
 Frc consts  --      0.3937                 0.4461                 0.5052
 IR Inten    --      2.3484                 2.5372                 6.7866

                     22                     23                     24
                      A                      A                      A
 Frequencies --    685.8729               718.3321               803.2255
 Red. masses --      2.8567                 3.1955                 2.4484
 Frc consts  --      0.7918                 0.9715                 0.9307
 IR Inten    --      0.4092                 1.3048                 2.0693

                     25                     26                     27
                      A                      A                      A
 Frequencies --    837.4722               855.5976               881.4904
 Red. masses --      1.5250                 2.3844                 2.5704
 Frc consts  --      0.6302                 1.0284                 1.1767
 IR Inten    --      0.3251                10.4715                 7.2897

                     28                     29                     30
                      A                      A                      A
 Frequencies --    891.7206               929.1823               931.2564
 Red. masses --      2.0513                 2.1590                 1.3147
 Frc consts  --      0.9610                 1.0983                 0.6718
 IR Inten    --      8.1471                 0.3011                 0.4119

                     31                     32                     33
                      A                      A                      A
 Frequencies --    979.3366               984.1635               991.6701
 Red. masses --      1.8246                 1.5697                 2.1190
 Frc consts  --      1.0311                 0.8958                 1.2278
 IR Inten    --      5.3824                 0.4848                18.2301

                     34                     35                     36
                      A                      A                      A
 Frequencies --   1009.9949              1021.7149              1031.3367
 Red. masses --      1.3946                 1.9133                 2.4223
 Frc consts  --      0.8382                 1.1768                 1.5181
 IR Inten    --      5.1213                 7.1722                22.0992

                     37                     38                     39
                      A                      A                      A
 Frequencies --   1057.1535              1068.8422              1076.9560
 Red. masses --      1.9974                 1.5386                 1.5452
 Frc consts  --      1.3152                 1.0356                 1.0559
 IR Inten    --     63.6196                44.8454                 9.4475

                     40                     41                     42
                      A                      A                      A
 Frequencies --   1100.5652              1119.5498              1128.7252
 Red. masses --      1.8974                 2.1095                 2.0205
 Frc consts  --      1.3541                 1.5579                 1.5166
 IR Inten    --      4.8647                 6.6002                42.2590

                     43                     44                     45
                      A                      A                      A
 Frequencies --   1147.8580              1169.6939              1173.0593
 Red. masses --      2.2857                 2.1100                 2.4612
 Frc consts  --      1.7744                 1.7009                 1.9954
 IR Inten    --     11.4814                23.2290                21.9762

                     46                     47                     48
                      A                      A                      A
 Frequencies --   1193.4469              1213.5299              1265.1508
 Red. masses --      2.1878                 1.3534                 1.4740
 Frc consts  --      1.8360                 1.1743                 1.3901
 IR Inten    --      8.3884                 2.4030                12.2997

                     49                     50                     51
                      A                      A                      A
 Frequencies --   1274.4010              1297.6960              1310.5166
 Red. masses --      1.3303                 1.3962                 1.5493
 Frc consts  --      1.2730                 1.3853                 1.5678
 IR Inten    --     31.6690                 3.7095                 4.1524

                     52                     53                     54
                      A                      A                      A
 Frequencies --   1314.4283              1334.3946              1348.0949
 Red. masses --      1.4902                 1.2853                 1.4439
 Frc consts  --      1.5170                 1.3484                 1.5461
 IR Inten    --     12.7700                 3.8515                 5.1490

                     55                     56                     57
                      A                      A                      A
 Frequencies --   1356.3628              1370.0399              1400.2225
 Red. masses --      1.4255                 1.5623                 1.2559
 Frc consts  --      1.5451                 1.7278                 1.4508
 IR Inten    --      1.3911                 3.0378                 4.8737

                     58                     59                     60
                      A                      A                      A
 Frequencies --   1404.6796              1425.5870              1427.9788
 Red. masses --      1.4553                 1.4351                 1.3291
 Frc consts  --      1.6918                 1.7184                 1.5969
 IR Inten    --      9.1252                11.0908                28.8671

                     61                     62                     63
                      A                      A                      A
 Frequencies --   1441.9564              1444.0548              1452.7532
 Red. masses --      1.3396                 1.3108                 1.2417
 Frc consts  --      1.6411                 1.6105                 1.5440
 IR Inten    --      6.1149                17.5928                 0.4375

                     64                     65                     66
                      A                      A                      A
 Frequencies --   1469.7396              1505.0097              1513.1811
 Red. masses --      1.4904                 1.0932                 1.0507
 Frc consts  --      1.8968                 1.4589                 1.4175
 IR Inten    --     35.4056                 0.1460                 1.5207

                     67                     68                     69
                      A                      A                      A
 Frequencies --   1517.8000              1521.9290              1522.6808
 Red. masses --      1.0919                 1.2264                 1.0899
 Frc consts  --      1.4821                 1.6736                 1.4889
 IR Inten    --      6.7300                 4.0343                 0.2326

                     70                     71                     72
                      A                      A                      A
 Frequencies --   1524.5125              1533.3564              1534.7568
 Red. masses --      1.0595                 1.0488                 1.1066
 Frc consts  --      1.4508                 1.4529                 1.5357
 IR Inten    --      1.9990                 9.6036                 2.4357

                     73                     74                     75
                      A                      A                      A
 Frequencies --   1544.6975              2969.3942              2976.1775
 Red. masses --      1.1854                 1.0722                 1.0723
 Frc consts  --      1.6664                 5.5700                 5.5959
 IR Inten    --      1.4479                22.2187                99.5275

                     76                     77                     78
                      A                      A                      A
 Frequencies --   3014.3844              3034.1952              3042.6322
 Red. masses --      1.0826                 1.0358                 1.0525
 Frc consts  --      5.7961                 5.6183                 5.7409
 IR Inten    --     28.1663                29.2093                 3.8178

                     79                     80                     81
                      A                      A                      A
 Frequencies --   3044.9274              3046.5844              3074.9771
 Red. masses --      1.0467                 1.0579                 1.0852
 Frc consts  --      5.7179                 5.7852                 6.0458
 IR Inten    --     43.3981                34.8813                25.3297

                     82                     83                     84
                      A                      A                      A
 Frequencies --   3089.2604              3091.7773              3093.1990
 Red. masses --      1.1020                 1.1021                 1.1019
 Frc consts  --      6.1965                 6.2073                 6.2117
 IR Inten    --     39.4392                55.2393                11.1243

                     85                     86                     87
                      A                      A                      A
 Frequencies --   3099.8587              3104.8880              3107.4512
 Red. masses --      1.1012                 1.0923                 1.0938
 Frc consts  --      6.2342                 6.2043                 6.2231
 IR Inten    --     55.6122                45.7430                42.6829

                     88                     89                     90
                      A                      A                      A
 Frequencies --   3110.5634              3129.1954              3132.3353
 Red. masses --      1.1014                 1.0918                 1.0917
 Frc consts  --      6.2789                 6.2988                 6.3107
 IR Inten    --     24.1389                16.5888                37.5741

                     91                     92                     93
                      A                      A                      A
 Frequencies --   3140.1544              3219.1802              3749.5779
 Red. masses --      1.0563                 1.1173                 1.0663
 Frc consts  --      6.1369                 6.8222                 8.8323
 IR Inten    --     16.8453                12.3547                12.1970

 - Thermochemistry -
 -------------------
 Temperature   298.150 Kelvin.  Pressure   1.00000 Atm.
 Atom     1 has atomic number  6 and mass  12.00000

 Molecular mass:   184.14633 amu.
 Principal axes and moments of inertia in atomic units:
                           1         2         3
     Eigenvalues --  1500.231063581.352184226.39328
           X            0.99969  -0.02435   0.00494
           Y            0.02417   0.99913   0.03399
           Z           -0.00576  -0.03386   0.99941
 This molecule is an asymmetric top.
 Rotational symmetry number  1.
 Warning -- assumption of classical behavior for rotation
           may cause significant error
 Rotational temperatures (Kelvin)      0.05773     0.02418     0.02049
 Rotational constants (GHZ):           1.20298     0.50393     0.42702
 Zero-point vibrational energy     786452.6 (Joules/Mol)
                                  187.96668 (Kcal/Mol)
 Warning -- explicit consideration of  21 degrees of freedom as
           vibrations may cause significant error
 Vibrational temperatures:     61.85   102.61   119.47   201.58   248.43
          (Kelvin)            287.27   296.55   323.68   342.90   354.12
                              394.92   434.13   484.06   531.26   548.15
                              574.81   607.08   686.88   694.94   768.97
                              793.68   986.82  1033.52  1155.66  1204.94
                             1231.01  1268.27  1282.99  1336.89  1339.87
                             1409.05  1415.99  1426.79  1453.16  1470.02
                             1483.86  1521.01  1537.83  1549.50  1583.47
                             1610.78  1623.98  1651.51  1682.93  1687.77
                             1717.10  1746.00  1820.27  1833.58  1867.10
                             1885.54  1891.17  1919.90  1939.61  1951.50
                             1971.18  2014.61  2021.02  2051.10  2054.54
                             2074.65  2077.67  2090.19  2114.63  2165.37
                             2177.13  2183.78  2189.72  2190.80  2193.43
                             2206.16  2208.17  2222.48  4272.30  4282.06
                             4337.03  4365.53  4377.67  4380.97  4383.36
                             4424.21  4444.76  4448.38  4450.42  4460.01
                             4467.24  4470.93  4475.41  4502.21  4506.73
                             4517.98  4631.68  5394.81

 Zero-point correction=                           0.299544 (Hartree/Particle)
 Thermal correction to Energy=                    0.313357
 Thermal correction to Enthalpy=                  0.314301
 Thermal correction to Gibbs Free Energy=         0.259646
 Sum of electronic and zero-point Energies=           -581.376285
 Sum of electronic and thermal Energies=              -581.362471
 Sum of electronic and thermal Enthalpies=            -581.361527
 Sum of electronic and thermal Free Energies=         -581.416182

                     E (Thermal)             CV                S
                      KCal/Mol        Cal/Mol-Kelvin    Cal/Mol-Kelvin
 Total                  196.635             53.631            115.031
 Electronic               0.000              0.000              0.000
 Translational            0.889              2.981             41.538
 Rotational               0.889              2.981             31.496
 Vibrational            194.857             47.669             41.997
 Vibration     1          0.595              1.980              5.116
 Vibration     2          0.598              1.968              4.117
 Vibration     3          0.600              1.961              3.818
 Vibration     4          0.615              1.913              2.802
 Vibration     5          0.626              1.876              2.406
 Vibration     6          0.638              1.840              2.136
 Vibration     7          0.641              1.831              2.078
 Vibration     8          0.650              1.803              1.919
 Vibration     9          0.656              1.782              1.815
 Vibration    10          0.661              1.769              1.758
 Vibration    11          0.677              1.720              1.568
 Vibration    12          0.694              1.670              1.407
 Vibration    13          0.717              1.603              1.229
 Vibration    14          0.742              1.535              1.083
 Vibration    15          0.751              1.511              1.035
 Vibration    16          0.766              1.471              0.964
 Vibration    17          0.784              1.423              0.885
 Vibration    18          0.834              1.300              0.717
 Vibration    19          0.839              1.288              0.702
 Vibration    20          0.889              1.174              0.577
 Vibration    21          0.907              1.136              0.541

                           ! Non-Optimized Parameters !
 Normal termination of Gaussian 16 at Wed Dec  9 23:04:45 2020.

 ----------------------------------------------------------------------
 # B3LYP/6-311++G(d,p) empiricaldispersion=gd3bj scf=xqc pop=npa geom=c
 heck
 ----------------------------------------------------------------------

 ---------------------------------------
 CID_107005320_JID_3323_Energie_neutraal
 ---------------------------------------
 Structure from the checkpoint file:  "JID_3323.chk"
 Charge =  0 Multiplicity = 1

 SCF Done:  E(RB3LYP) =  -581.848729259     A.U. after   13 cycles
 Normal termination of Gaussian 16 at Wed Dec  9 23:09:13 2020.

 ----------------------------------------------------------------------
 # B3LYP/6-311++G(d,p) empiricaldispersion=gd3bj scf=xqc pop=npa geom=c
 heck
 ----------------------------------------------------------------------

 -------------------------------------
 CID_107005320_JID_3323_Energie_kation
 -------------------------------------
 Structure from the checkpoint file:  "JID_3323.chk"
 Charge =  1 Multiplicity = 2

 SCF Done:  E(UB3LYP) =  -581.526887595     A.U. after   24 cycles
 Normal termination of Gaussian 16 at Wed Dec  9 23:20:37 2020.
 Gaussian 16:  ES64L-G16RevA.03 25-Dec-2016

 ----------------------------------------------------------------------
 # B3LYP/6-311++G(d,p) empiricaldispersion=gd3bj scf=xqc pop=npa geom=c
 heck
 ----------------------------------------------------------------------

 ------------------------------------
 CID_107005320_JID_3323_Energie_anion
 ------------------------------------
 Structure from the checkpoint file:  "JID_3323.chk"
 Charge = -1 Multiplicity = 2

                         Standard orientation:
 ---------------------------------------------------------------------
 Center     Atomic      Atomic             Coordinates (Angstroms)
 Number     Number       Type             X           Y           Z
 ---------------------------------------------------------------------
      1          6           0        2.531643   -1.167876   -1.205296
      2          6           0        2.372817   -0.572905    0.181758
      3          6           0        2.850679    0.838317    0.417968
      4          6           0        1.367847    0.536565    0.449693
      5          6           0        0.446268    1.132109   -0.594383
      6          6           0       -0.991152    0.575330   -0.546730
      7          6           0       -1.762134    0.951838    0.728460
      8          6           0       -3.168397    0.351848    0.689630
      9          8           0       -3.133113   -1.059916    0.532515
     10          6           0       -2.497629   -1.436850   -0.681377
     11          6           0       -1.049612   -0.947215   -0.739536
     12          8           0        0.425200    2.564978   -0.515276
     13          6           0        2.568768   -1.585188    1.295708
     14          1           0        2.434518   -0.418877   -1.996107
     15          1           0        3.525596   -1.621385   -1.304967
     16          1           0        1.788055   -1.952901   -1.388876
     17          1           0        3.352881    1.073740    1.353015
     18          1           0        3.216480    1.401099   -0.437140
     19          1           0        0.928128    0.499585    1.446377
     20          1           0        0.845561    0.924620   -1.592606
     21          1           0       -1.519841    1.045069   -1.389708
     22          1           0       -1.249687    0.562552    1.617518
     23          1           0       -1.826849    2.042318    0.825847
     24          1           0       -3.707554    0.538654    1.623139
     25          1           0       -3.745187    0.806512   -0.135240
     26          1           0       -3.063252   -1.033838   -1.540262
     27          1           0       -2.550771   -2.528883   -0.723554
     28          1           0       -0.600095   -1.235227   -1.698801
     29          1           0       -0.476869   -1.444538    0.052672
     30          1           0        0.436974    2.799527    0.425142
     31          1           0        3.564310   -2.043086    1.238734
     32          1           0        2.469917   -1.120306    2.282803
     33          1           0        1.826392   -2.390971    1.228729
 ---------------------------------------------------------------------

 SCF Done:  E(UB3LYP) =  -581.833651957     A.U. after   32 cycles

 The electronic state is 2-A.
 Alpha  occ. eigenvalues --  -19.02877 -19.01924 -10.12185 -10.12087 -10.11978
 Alpha  occ. eigenvalues --  -10.08871 -10.07650 -10.07429 -10.06944 -10.06896
 Alpha  occ. eigenvalues --  -10.06636 -10.06222 -10.06006  -0.94348  -0.92132
 Alpha  occ. eigenvalues --   -0.77261  -0.71465  -0.66938  -0.63489  -0.60287
 Alpha  occ. eigenvalues --   -0.58984  -0.54384  -0.52549  -0.49829  -0.46360
 Alpha  occ. eigenvalues --   -0.44445  -0.40431  -0.39714  -0.38251  -0.37737
 Alpha  occ. eigenvalues --   -0.35847  -0.35002  -0.34105  -0.33413  -0.32277
 Alpha  occ. eigenvalues --   -0.30633  -0.30111  -0.29645  -0.29080  -0.28548
 Alpha  occ. eigenvalues --   -0.27443  -0.26246  -0.25187  -0.24557  -0.22773
 Alpha  occ. eigenvalues --   -0.22137  -0.21177  -0.18664  -0.18253  -0.16941
 Alpha  occ. eigenvalues --   -0.15959   0.04467
 Alpha virt. eigenvalues --    0.06570   0.06776   0.07850   0.08330   0.08684
 Alpha virt. eigenvalues --    0.09531   0.09604   0.10244   0.10921   0.11216
 Alpha virt. eigenvalues --    0.12040   0.12249   0.12374   0.13764   0.13993

  Beta  occ. eigenvalues --  -19.02871 -19.01902 -10.12176 -10.12075 -10.11962
  Beta  occ. eigenvalues --  -10.08866 -10.07646 -10.07418 -10.06933 -10.06874
  Beta  occ. eigenvalues --  -10.06614 -10.06191 -10.05974  -0.94334  -0.92083
  Beta  occ. eigenvalues --   -0.77242  -0.71440  -0.66910  -0.63451  -0.60249
  Beta  occ. eigenvalues --   -0.58929  -0.54341  -0.52514  -0.49783  -0.46315
  Beta  occ. eigenvalues --   -0.44393  -0.40393  -0.39675  -0.38227  -0.37697
  Beta  occ. eigenvalues --   -0.35812  -0.34971  -0.34074  -0.33383  -0.32252
  Beta  occ. eigenvalues --   -0.30603  -0.30074  -0.29619  -0.29040  -0.28511
  Beta  occ. eigenvalues --   -0.27412  -0.26214  -0.25159  -0.24523  -0.22748
  Beta  occ. eigenvalues --   -0.22114  -0.21154  -0.18638  -0.18222  -0.16914
  Beta  occ. eigenvalues --   -0.15928
  Beta virt. eigenvalues --    0.06631   0.07394   0.07574   0.08278   0.08977
  Beta virt. eigenvalues --    0.09230   0.09868   0.10182   0.10582   0.11389
  Beta virt. eigenvalues --    0.11616   0.12393   0.12458   0.12577   0.14175

 Mulliken charges and spin densities:
               1          2
     1  C    0.359620  -1.000708
     2  C   -2.118726   2.778730
     3  C    0.613519  -1.260983
     4  C    0.399734  -0.299320
     5  C    0.816042  -1.526974
     6  C   -0.103861   0.561299
     7  C   -0.020107  -0.286528
     8  C    0.142411  -0.605713
     9  O   -0.119888   0.028346
    10  C    0.237574  -0.977231
    11  C   -0.449920   0.282679
    12  O   -0.175293   0.030714
    13  C    1.268625  -1.926891
    14  H   -0.001051   0.117232
    15  H   -0.347182   0.512301
    16  H   -0.234675   0.396283
    17  H   -0.511491   0.677650
    18  H    0.112840   0.071692
    19  H   -0.021119   0.236383
    20  H    0.084975   0.132217
    21  H    0.031260   0.164124
    22  H   -0.092376   0.252245
    23  H   -0.197226   0.325601
    24  H   -0.207773   0.397978
    25  H    0.100191   0.012439
    26  H   -0.066873   0.196097
    27  H   -0.213155   0.397635
    28  H   -0.146848   0.284885
    29  H    0.520752  -0.313435
    30  H    0.052438   0.199291
    31  H   -0.286442   0.430968
    32  H   -0.310586   0.451748
    33  H   -0.115386   0.259246
 Sum of Mulliken charges =  -1.00000   1.00000

 Dipole moment (field-independent basis, Debye):
    X=             -3.2018    Y=              1.2848    Z=             -2.0943  Tot=              4.0358
 Quadrupole moment (field-independent basis, Debye-Ang):
   XX=           -146.9761   YY=           -132.9388   ZZ=           -123.5772
   XY=              2.6158   XZ=             -1.5296   YZ=             -3.4724

 Summary of Natural Population Analysis:

                                       Natural Population
                Natural  -----------------------------------------------
    Atom  No    Charge         Core      Valence    Rydberg      Total
 -----------------------------------------------------------------------
      C    1   -0.28150      0.99962     2.27546    0.00642     3.28150
      C    2   -0.04199      0.99956     2.03015    0.01228     3.04199
      C    3   -0.18816      0.99956     2.17856    0.01003     3.18816
      C    4   -0.12903      0.99952     2.11768    0.01184     3.12903
      C    5    0.06609      0.99949     1.91968    0.01474     2.93391
      C    6   -0.11370      0.99957     2.10370    0.01044     3.11370
      C    7   -0.20890      0.99960     2.19960    0.00970     3.20890
      C    8   -0.00636      0.99958     1.99415    0.01262     3.00636
      O    9   -0.30023      0.99989     3.29119    0.00915     4.30023
      C   10   -0.00642      0.99958     1.99400    0.01284     3.00642
      C   11   -0.20658      0.99960     2.19846    0.00852     3.20658
      O   12   -0.37234      0.99990     3.36649    0.00595     4.37234
      C   13   -0.27858      0.99962     2.27258    0.00638     3.27858
      H   14    0.09883      0.00000     0.39987    0.00130     0.40117
      H   15    0.10191      0.00000     0.39702    0.00107     0.39809
      H   16    0.10088      0.00000     0.39768    0.00144     0.39912
      H   17    0.10441      0.00000     0.39421    0.00137     0.39559
      H   18    0.10369      0.00000     0.39530    0.00101     0.39631
      H   19    0.10496      0.00000     0.39275    0.00229     0.39504
      H   20    0.08847      0.00000     0.40950    0.00204     0.41153
      H   21    0.09624      0.00000     0.40193    0.00183     0.40376
      H   22    0.09900      0.00000     0.39921    0.00179     0.40100
      H   23    0.10467      0.00000     0.39387    0.00146     0.39533
      H   24    0.09104      0.00000     0.40779    0.00117     0.40896
      H   25    0.07356      0.00000     0.42509    0.00135     0.42644
      H   26    0.07356      0.00000     0.42508    0.00135     0.42644
      H   27    0.09212      0.00000     0.40663    0.00126     0.40788
      H   28    0.10271      0.00000     0.39586    0.00143     0.39729
      H   29    0.10177      0.00000     0.39602    0.00220     0.39823
      H   30    0.22912      0.00000     0.26755    0.00332     0.27088
      H   31    0.10008      0.00000     0.39869    0.00124     0.39992
      H   32    0.10141      0.00000     0.39714    0.00145     0.39859
      H   33    0.09927      0.00000     0.39939    0.00134     0.40073
 =======================================================================
   * Total *   -0.00000     12.99509    37.84229    0.16262    51.00000

 Normal termination of Gaussian 16 at Wed Dec  9 23:35:46 2020.
