 Gaussian 16, Revision A.03,

 -----------------------------------------------------------
 # opt freq B3LYP/6-31G(d) empiricaldispersion=gd3bj scf=xqc
 -----------------------------------------------------------

 ------------------------------
 CID_82763593_JID_7899_neutraal
 ------------------------------
 Symbolic Z-matrix:
 Charge =  0 Multiplicity = 1

 SCF Done:  E(RB3LYP) =  -1164.56420169     A.U. after   15 cycles
 SCF Done:  E(RB3LYP) =  -1164.56556398     A.U. after   13 cycles
 SCF Done:  E(RB3LYP) =  -1164.57562826     A.U. after   12 cycles
 SCF Done:  E(RB3LYP) =  -1164.57466898     A.U. after   12 cycles
 SCF Done:  E(RB3LYP) =  -1164.57495985     A.U. after   12 cycles
 SCF Done:  E(RB3LYP) =  -1164.57655235     A.U. after    9 cycles
 SCF Done:  E(RB3LYP) =  -1164.57710942     A.U. after   12 cycles
 SCF Done:  E(RB3LYP) =  -1164.57704566     A.U. after   11 cycles
 SCF Done:  E(RB3LYP) =  -1164.57729263     A.U. after   12 cycles
 SCF Done:  E(RB3LYP) =  -1164.57741577     A.U. after   10 cycles
 SCF Done:  E(RB3LYP) =  -1164.58203456     A.U. after   11 cycles
 SCF Done:  E(RB3LYP) =  -1164.58206839     A.U. after   11 cycles
 SCF Done:  E(RB3LYP) =  -1164.58207476     A.U. after    9 cycles
 SCF Done:  E(RB3LYP) =  -1164.58207764     A.U. after    8 cycles
 SCF Done:  E(RB3LYP) =  -1164.58207893     A.U. after    8 cycles
 Optimization completed.
    -- Stationary point found.
 Normal termination of Gaussian 16 at Fri Dec 11 13:29:30 2020.

 --------------------------------------------------------------------
 #N Geom=AllCheck Guess=TCheck SCRF=Check GenChk RB3LYP/6-31G(d) Freq
 --------------------------------------------------------------------

 Structure from the checkpoint file:  "JID_7899.chk"
 ------------------------------
 CID_82763593_JID_7899_neutraal
 ------------------------------
 Charge =  0 Multiplicity = 1

 SCF Done:  E(RB3LYP) =  -1164.58207893     A.U. after    1 cycles

  Exact polarizability: 167.523  -1.224 142.853  -4.506   0.602 126.967
 Approx polarizability: 226.365 -11.433 213.896 -16.756  -1.773 204.365

                      1                      2                      3
                      A                      A                      A
 Frequencies --     47.6916                55.9147                63.6244
 Red. masses --      6.1753                 4.0495                 5.8667
 Frc consts  --      0.0083                 0.0075                 0.0140
 IR Inten    --      4.8886                 1.7398                 7.7422

                      4                      5                      6
                      A                      A                      A
 Frequencies --     85.9862                94.2048               133.9767
 Red. masses --      4.4282                 3.3887                 4.4734
 Frc consts  --      0.0193                 0.0177                 0.0473
 IR Inten    --      0.4094                 1.2862                 0.5000

                      7                      8                      9
                      A                      A                      A
 Frequencies --    148.1199               172.6226               204.1725
 Red. masses --      2.1952                 4.0595                 3.3606
 Frc consts  --      0.0284                 0.0713                 0.0825
 IR Inten    --      1.1179                 1.8307                 0.6238

                     10                     11                     12
                      A                      A                      A
 Frequencies --    214.3602               250.5432               280.5324
 Red. masses --      3.3077                 1.0737                 3.3278
 Frc consts  --      0.0895                 0.0397                 0.1543
 IR Inten    --      0.4749                26.1648                 2.6396

                     13                     14                     15
                      A                      A                      A
 Frequencies --    293.5895               321.2381               326.2060
 Red. masses --      2.2656                 2.7830                 1.5535
 Frc consts  --      0.1151                 0.1692                 0.0974
 IR Inten    --     11.0077                 0.8611                 9.0376

                     16                     17                     18
                      A                      A                      A
 Frequencies --    333.2405               359.8002               375.2336
 Red. masses --      3.1807                 2.9271                 3.4812
 Frc consts  --      0.2081                 0.2233                 0.2888
 IR Inten    --     11.0699                 1.5514                 9.9434

                     19                     20                     21
                      A                      A                      A
 Frequencies --    396.0849               423.0711               437.5195
 Red. masses --      2.5767                 4.2320                 4.3231
 Frc consts  --      0.2382                 0.4463                 0.4876
 IR Inten    --      5.2492                12.2539                15.8120

                     22                     23                     24
                      A                      A                      A
 Frequencies --    461.2924               470.6750               534.9832
 Red. masses --      2.2852                 5.9581                 3.2426
 Frc consts  --      0.2865                 0.7777                 0.5468
 IR Inten    --      7.0683                18.1879                 0.8956

                     25                     26                     27
                      A                      A                      A
 Frequencies --    548.4282               562.9668               594.2373
 Red. masses --      3.7982                 4.2620                 2.5237
 Frc consts  --      0.6731                 0.7959                 0.5251
 IR Inten    --     17.9690                11.4792                12.1741

                     28                     29                     30
                      A                      A                      A
 Frequencies --    638.9574               671.9779               709.8848
 Red. masses --      2.8625                 4.1053                 3.1437
 Frc consts  --      0.6886                 1.0922                 0.9334
 IR Inten    --     41.3536                10.1534                 2.1062

                     31                     32                     33
                      A                      A                      A
 Frequencies --    727.7564               764.0930               780.1169
 Red. masses --      3.8841                 2.1577                 2.0901
 Frc consts  --      1.2120                 0.7422                 0.7494
 IR Inten    --     19.8462                 7.5454                41.5429

                     34                     35                     36
                      A                      A                      A
 Frequencies --    795.2160               826.7643               861.5805
 Red. masses --      1.3611                 2.8111                 1.7738
 Frc consts  --      0.5071                 1.1321                 0.7758
 IR Inten    --      5.6528                22.3416                36.1193

                     37                     38                     39
                      A                      A                      A
 Frequencies --    873.6789               887.5399               902.9676
 Red. masses --      1.6612                 2.1435                 2.6123
 Frc consts  --      0.7471                 0.9948                 1.2549
 IR Inten    --     88.6246                 6.8423                32.6001

                     40                     41                     42
                      A                      A                      A
 Frequencies --    923.6063               924.2959               964.7324
 Red. masses --      1.5244                 2.5327                 1.7105
 Frc consts  --      0.7662                 1.2748                 0.9380
 IR Inten    --      1.2119                 2.6837                22.5676

                     43                     44                     45
                      A                      A                      A
 Frequencies --    992.4158              1001.4961              1019.6977
 Red. masses --      1.8791                 1.4785                 1.6951
 Frc consts  --      1.0904                 0.8737                 1.0384
 IR Inten    --      2.1540                 0.1255                 9.1973

                     46                     47                     48
                      A                      A                      A
 Frequencies --   1028.9630              1046.1503              1069.2083
 Red. masses --      1.8299                 2.6377                 2.8255
 Frc consts  --      1.1415                 1.7008                 1.9031
 IR Inten    --      5.6739                 9.4366                16.0597

                     49                     50                     51
                      A                      A                      A
 Frequencies --   1097.6684              1100.5151              1112.1268
 Red. masses --      2.3374                 2.0370                 1.7898
 Frc consts  --      1.6593                 1.4536                 1.3043
 IR Inten    --     20.6282                74.6541                87.4086

                     52                     53                     54
                      A                      A                      A
 Frequencies --   1132.3962              1140.6957              1146.8887
 Red. masses --      2.5312                 1.4113                 2.4400
 Frc consts  --      1.9124                 1.0819                 1.8910
 IR Inten    --     19.8347                 3.1577                20.4063

                     55                     56                     57
                      A                      A                      A
 Frequencies --   1188.7900              1200.8361              1215.0913
 Red. masses --      1.6687                 2.5089                 1.9381
 Frc consts  --      1.3894                 2.1316                 1.6859
 IR Inten    --      9.2265                 5.8467                12.7522

                     58                     59                     60
                      A                      A                      A
 Frequencies --   1231.0854              1235.2482              1247.4788
 Red. masses --      1.6512                 1.3789                 1.4855
 Frc consts  --      1.4744                 1.2396                 1.3620
 IR Inten    --     11.4034                30.8140                18.3359

                     61                     62                     63
                      A                      A                      A
 Frequencies --   1265.2966              1269.1441              1298.0461
 Red. masses --      2.1294                 1.3064                 1.9580
 Frc consts  --      2.0086                 1.2398                 1.9438
 IR Inten    --    114.7586                 2.9524                64.5698

                     64                     65                     66
                      A                      A                      A
 Frequencies --   1313.1258              1326.6374              1333.6541
 Red. masses --      1.5017                 2.2759                 1.8366
 Frc consts  --      1.5257                 2.3600                 1.9246
 IR Inten    --     78.8435                93.2771                77.2132

                     67                     68                     69
                      A                      A                      A
 Frequencies --   1340.0503              1352.8345              1355.6122
 Red. masses --      1.4060                 1.5158                 1.4471
 Frc consts  --      1.4876                 1.6345                 1.5669
 IR Inten    --     14.3440                15.2078                 8.9122

                     70                     71                     72
                      A                      A                      A
 Frequencies --   1362.0922              1382.7247              1434.3688
 Red. masses --      1.4557                 1.2060                 1.2221
 Frc consts  --      1.5913                 1.3585                 1.4814
 IR Inten    --      6.9117                 3.9575                 9.8768

                     73                     74                     75
                      A                      A                      A
 Frequencies --   1445.6217              1459.7497              1486.9402
 Red. masses --      1.2951                 1.2856                 1.0938
 Frc consts  --      1.5947                 1.6140                 1.4248
 IR Inten    --      7.5678                 6.4325                 5.3195

                     76                     77                     78
                      A                      A                      A
 Frequencies --   1493.4973              1512.8084              1516.5065
 Red. masses --      1.0939                 1.3140                 1.0626
 Frc consts  --      1.4375                 1.7719                 1.4398
 IR Inten    --      3.0268                14.5362                 0.7150

                     79                     80                     81
                      A                      A                      A
 Frequencies --   1526.2278              1528.5807              1533.9198
 Red. masses --      1.1090                 1.0679                 1.0594
 Frc consts  --      1.5220                 1.4701                 1.4686
 IR Inten    --      5.5297                 2.0263                 3.7144

                     82                     83                     84
                      A                      A                      A
 Frequencies --   1542.0316              1561.0079              1699.7959
 Red. masses --      1.0741                 1.0890                 1.0910
 Frc consts  --      1.5048                 1.5634                 1.8573
 IR Inten    --      8.0400                 2.5539                29.6667

                     85                     86                     87
                      A                      A                      A
 Frequencies --   1769.7118              3047.2708              3059.2811
 Red. masses --      7.0990                 1.0633                 1.0860
 Frc consts  --     13.0994                 5.8173                 5.9887
 IR Inten    --    228.6276                22.4203                18.6778

                     88                     89                     90
                      A                      A                      A
 Frequencies --   3068.0695              3075.5553              3084.4852
 Red. masses --      1.0412                 1.0674                 1.0858
 Frc consts  --      5.7745                 5.9490                 6.0864
 IR Inten    --     27.9520                12.0359                25.9869

                     91                     92                     93
                      A                      A                      A
 Frequencies --   3090.3116              3093.2485              3099.7255
 Red. masses --      1.0785                 1.0623                 1.0609
 Frc consts  --      6.0684                 5.9886                 6.0058
 IR Inten    --     13.8117                14.2800                 2.4529

                     94                     95                     96
                      A                      A                      A
 Frequencies --   3101.5531              3117.5455              3137.2462
 Red. masses --      1.0903                 1.1019                 1.0988
 Frc consts  --      6.1795                 6.3097                 6.3717
 IR Inten    --     34.2617                46.2094                18.8702

                     97                     98                     99
                      A                      A                      A
 Frequencies --   3140.8592              3141.8599              3165.9036
 Red. masses --      1.0774                 1.0923                 1.1014
 Frc consts  --      6.2622                 6.3526                 6.5040
 IR Inten    --      4.5318                15.0434                12.3012

                    100                    101                    102
                      A                      A                      A
 Frequencies --   3171.1380              3184.3950              3237.7540
 Red. masses --      1.1074                 1.0875                 1.0980
 Frc consts  --      6.5612                 6.4973                 6.7815
 IR Inten    --      2.8356                17.3942                 2.4570

                    103                    104                    105
                      A                      A                      A
 Frequencies --   3476.4937              3542.4392              3560.0310
 Red. masses --      1.0495                 1.0745                 1.0925
 Frc consts  --      7.4732                 7.9442                 8.1581
 IR Inten    --      0.6249                15.6122                 0.0100

 - Thermochemistry -
 -------------------
 Temperature   298.150 Kelvin.  Pressure   1.00000 Atm.
 Atom     1 has atomic number  6 and mass  12.00000

 Molecular mass:   260.11946 amu.
 Principal axes and moments of inertia in atomic units:
                           1         2         3
     Eigenvalues --  2494.424296026.138997024.82135
           X            0.99925   0.03869   0.00124
           Y           -0.03869   0.99923   0.00584
           Z           -0.00102  -0.00588   0.99998
 This molecule is an asymmetric top.
 Rotational symmetry number  1.
 Warning -- assumption of classical behavior for rotation
           may cause significant error
 Rotational temperatures (Kelvin)      0.03472     0.01437     0.01233
 Rotational constants (GHZ):           0.72351     0.29949     0.25691
 Zero-point vibrational energy     839511.6 (Joules/Mol)
                                  200.64810 (Kcal/Mol)
 Warning -- explicit consideration of  27 degrees of freedom as
           vibrations may cause significant error
 Vibrational temperatures:     68.62    80.45    91.54   123.71   135.54
          (Kelvin)            192.76   213.11   248.37   293.76   308.42
                              360.48   403.62   422.41   462.19   469.34
                              479.46   517.67   539.88   569.88   608.71
                              629.49   663.70   677.20   769.72   789.07
                              809.98   854.97   919.32   966.83  1021.37
                             1047.08  1099.36  1122.41  1144.14  1189.53
                             1239.62  1257.03  1276.97  1299.17  1328.86
                             1329.86  1388.03  1427.87  1440.93  1467.12
                             1480.45  1505.18  1538.35  1579.30  1583.40
                             1600.10  1629.27  1641.21  1650.12  1710.40
                             1727.74  1748.25  1771.26  1777.25  1794.84
                             1820.48  1826.02  1867.60  1889.30  1908.74
                             1918.83  1928.03  1946.43  1950.42  1959.75
                             1989.43  2063.74  2079.93  2100.25  2139.38
                             2148.81  2176.59  2181.91  2195.90  2199.29
                             2206.97  2218.64  2245.94  2445.63  2546.22
                             4384.34  4401.62  4414.27  4425.04  4437.89
                             4446.27  4450.49  4459.81  4462.44  4485.45
                             4513.80  4519.00  4520.44  4555.03  4562.56
                             4581.63  4658.41  5001.90  5096.78  5122.09

 Zero-point correction=                           0.319753 (Hartree/Particle)
 Thermal correction to Energy=                    0.336674
 Thermal correction to Enthalpy=                  0.337618
 Thermal correction to Gibbs Free Energy=         0.275619
 Sum of electronic and zero-point Energies=          -1164.262326
 Sum of electronic and thermal Energies=             -1164.245405
 Sum of electronic and thermal Enthalpies=           -1164.244461
 Sum of electronic and thermal Free Energies=        -1164.306460

                     E (Thermal)             CV                S
                      KCal/Mol        Cal/Mol-Kelvin    Cal/Mol-Kelvin
 Total                  211.266             66.495            130.487
 Electronic               0.000              0.000              0.000
 Translational            0.889              2.981             42.568
 Rotational               0.889              2.981             33.023
 Vibrational            209.489             60.534             54.896
 Vibration     1          0.595              1.978              4.911
 Vibration     2          0.596              1.975              4.596
 Vibration     3          0.597              1.972              4.341
 Vibration     4          0.601              1.959              3.749
 Vibration     5          0.603              1.953              3.571
 Vibration     6          0.613              1.919              2.888
 Vibration     7          0.617              1.905              2.696
 Vibration     8          0.626              1.876              2.407
 Vibration     9          0.640              1.834              2.095
 Vibration    10          0.644              1.819              2.006
 Vibration    11          0.663              1.762              1.727
 Vibration    12          0.680              1.710              1.530
 Vibration    13          0.688              1.686              1.453
 Vibration    14          0.707              1.633              1.304
 Vibration    15          0.710              1.623              1.279
 Vibration    16          0.715              1.609              1.244
 Vibration    17          0.734              1.555              1.123
 Vibration    18          0.746              1.523              1.058
 Vibration    19          0.763              1.479              0.977
 Vibration    20          0.785              1.420              0.882
 Vibration    21          0.798              1.388              0.834
 Vibration    22          0.819              1.336              0.762
 Vibration    23          0.828              1.315              0.736
 Vibration    24          0.890              1.173              0.576
 Vibration    25          0.904              1.143              0.547
 Vibration    26          0.919              1.111              0.518
 Vibration    27          0.952              1.044              0.460

                           ! Non-Optimized Parameters !
 Normal termination of Gaussian 16 at Fri Dec 11 13:44:44 2020.

 ----------------------------------------------------------------------
 # B3LYP/6-311++G(d,p) empiricaldispersion=gd3bj scf=xqc pop=npa geom=c
 heck
 ----------------------------------------------------------------------

 --------------------------------------
 CID_82763593_JID_7899_Energie_neutraal
 --------------------------------------
 Structure from the checkpoint file:  "JID_7899.chk"
 Charge =  0 Multiplicity = 1

 SCF Done:  E(RB3LYP) =  -1164.83839558     A.U. after   16 cycles
 Normal termination of Gaussian 16 at Fri Dec 11 13:51:57 2020.

 ----------------------------------------------------------------------
 # B3LYP/6-311++G(d,p) empiricaldispersion=gd3bj scf=xqc pop=npa geom=c
 heck
 ----------------------------------------------------------------------

 ------------------------------------
 CID_82763593_JID_7899_Energie_kation
 ------------------------------------
 Structure from the checkpoint file:  "JID_7899.chk"
 Charge =  1 Multiplicity = 2

 SCF Done:  E(UB3LYP) =  -1164.52171624     A.U. after   25 cycles
 Normal termination of Gaussian 16 at Fri Dec 11 14:07:33 2020.
 Gaussian 16:  ES64L-G16RevA.03 25-Dec-2016

 ----------------------------------------------------------------------
 # B3LYP/6-311++G(d,p) empiricaldispersion=gd3bj scf=xqc pop=npa geom=c
 heck
 ----------------------------------------------------------------------

 -----------------------------------
 CID_82763593_JID_7899_Energie_anion
 -----------------------------------
 Structure from the checkpoint file:  "JID_7899.chk"
 Charge = -1 Multiplicity = 2

                         Standard orientation:
 ---------------------------------------------------------------------
 Center     Atomic      Atomic             Coordinates (Angstroms)
 Number     Number       Type             X           Y           Z
 ---------------------------------------------------------------------
      1          6           0       -3.338059    0.210367    1.163487
      2          6           0       -1.989292    0.096256    0.431382
      3          6           0       -1.013135   -0.729447    1.319944
      4          6           0       -1.080700   -2.203347    0.820856
      5          6           0       -2.109499   -2.222698   -0.324590
      6          6           0       -2.147328   -0.776224   -0.858214
      7          7           0       -3.289541   -0.377790   -1.673142
      8          6           0       -1.554888    1.521226    0.056146
      9          8           0       -2.276454    2.477226    0.300240
     10          7           0       -0.424199    1.779394   -0.746167
     11          6           0        0.978888    1.383856   -0.636034
     12          6           0        1.644298    1.694404    0.732043
     13          6           0        3.054460    1.111476    0.677582
     14         16           0        2.821011   -0.527184   -0.096188
     15          8           0        2.408425   -1.470400    0.959651
     16          8           0        3.936793   -0.846965   -0.997121
     17          6           0        1.321154   -0.064567   -1.046664
     18          1           0       -3.222807    0.807088    2.071637
     19          1           0       -3.699036   -0.782466    1.453289
     20          1           0       -4.086512    0.705287    0.542710
     21          1           0        0.016449   -0.381347    1.273409
     22          1           0       -1.310055   -0.640261    2.368926
     23          1           0       -1.354084   -2.890151    1.626950
     24          1           0       -0.092096   -2.519992    0.473120
     25          1           0       -3.105810   -2.492037    0.047936
     26          1           0       -1.859885   -2.941326   -1.113194
     27          1           0       -1.267361   -0.608382   -1.486166
     28          1           0       -3.245931   -0.846932   -2.575363
     29          1           0       -4.155958   -0.683787   -1.234064
     30          1           0       -0.490010    2.766411   -0.976830
     31          1           0        1.487988    2.022351   -1.366392
     32          1           0        1.662190    2.775053    0.901580
     33          1           0        1.078048    1.242381    1.549915
     34          1           0        3.524336    0.951751    1.649755
     35          1           0        3.722717    1.683738    0.027893
     36          1           0        0.565262   -0.791564   -0.769328
     37          1           0        1.547056   -0.158788   -2.109397
 ---------------------------------------------------------------------

 SCF Done:  E(UB3LYP) =  -1164.83489997     A.U. after   33 cycles
 SCF Done:  E(UB3LYP) =  -1164.83489997     a.u. after    1 cycles

 The electronic state is 2-A.
 Alpha  occ. eigenvalues --  -88.95265 -19.02667 -19.02562 -18.99993 -14.23669
 Alpha  occ. eigenvalues --  -14.20594 -10.18129 -10.14352 -10.12118 -10.11799
 Alpha  occ. eigenvalues --  -10.11366 -10.10393 -10.10049 -10.08399 -10.08193
 Alpha  occ. eigenvalues --  -10.07939 -10.06978  -8.01805  -5.98066  -5.97939
 Alpha  occ. eigenvalues --   -5.97906  -1.01647  -0.95133  -0.91453  -0.82960
 Alpha  occ. eigenvalues --   -0.81003  -0.75131  -0.73990  -0.67038  -0.66567
 Alpha  occ. eigenvalues --   -0.62556  -0.61084  -0.58411  -0.53836  -0.50962
 Alpha  occ. eigenvalues --   -0.50258  -0.49052  -0.45240  -0.44009  -0.42729
 Alpha  occ. eigenvalues --   -0.40367  -0.40162  -0.39535  -0.38459  -0.37491
 Alpha  occ. eigenvalues --   -0.36207  -0.35225  -0.34706  -0.34038  -0.33298
 Alpha  occ. eigenvalues --   -0.32036  -0.31935  -0.31284  -0.30783  -0.30429
 Alpha  occ. eigenvalues --   -0.29672  -0.28431  -0.26977  -0.26447  -0.25656
 Alpha  occ. eigenvalues --   -0.24651  -0.24179  -0.23616  -0.23270  -0.22796
 Alpha  occ. eigenvalues --   -0.21572  -0.19813  -0.17849  -0.15946  -0.15038
 Alpha  occ. eigenvalues --    0.03717
 Alpha virt. eigenvalues --    0.05509   0.06678   0.07679   0.07760   0.08173
 Alpha virt. eigenvalues --    0.08939   0.09007   0.09952   0.10586   0.10600
 Alpha virt. eigenvalues --    0.11122   0.11317   0.12024   0.12732   0.13053

  Beta  occ. eigenvalues --  -88.95264 -19.02664 -19.02553 -18.99974 -14.23656
  Beta  occ. eigenvalues --  -14.20568 -10.18113 -10.14312 -10.12084 -10.11773
  Beta  occ. eigenvalues --  -10.11357 -10.10391 -10.10017 -10.08392 -10.08189
  Beta  occ. eigenvalues --  -10.07924 -10.06971  -8.01803  -5.98064  -5.97937
  Beta  occ. eigenvalues --   -5.97906  -1.01633  -0.95097  -0.91439  -0.82905
  Beta  occ. eigenvalues --   -0.80964  -0.75081  -0.73964  -0.66986  -0.66538
  Beta  occ. eigenvalues --   -0.62490  -0.61053  -0.58380  -0.53757  -0.50915
  Beta  occ. eigenvalues --   -0.50213  -0.49015  -0.45181  -0.43965  -0.42673
  Beta  occ. eigenvalues --   -0.40324  -0.40124  -0.39494  -0.38429  -0.37463
  Beta  occ. eigenvalues --   -0.36173  -0.35187  -0.34664  -0.34009  -0.33266
  Beta  occ. eigenvalues --   -0.31995  -0.31900  -0.31244  -0.30741  -0.30384
  Beta  occ. eigenvalues --   -0.29647  -0.28377  -0.26912  -0.26418  -0.25633
  Beta  occ. eigenvalues --   -0.24623  -0.24154  -0.23593  -0.23254  -0.22782
  Beta  occ. eigenvalues --   -0.21558  -0.19781  -0.17822  -0.15912  -0.15011
  Beta virt. eigenvalues --    0.05826   0.06897   0.07037   0.07894   0.08445
  Beta virt. eigenvalues --    0.08483   0.09189   0.09387   0.10103   0.10671
  Beta virt. eigenvalues --    0.11173   0.11320   0.11764   0.12232   0.12768

 Mulliken charges and spin densities:
               1          2
     1  C    0.253181  -0.718539
     2  C    1.148730  -0.444891
     3  C   -0.506040   0.146277
     4  C   -0.585592   0.072325
     5  C    0.051490  -0.476351
     6  C   -0.347635  -0.052949
     7  N   -0.370162   0.096720
     8  C   -0.630986   0.251307
     9  O   -0.257175   0.006980
    10  N   -0.158965   0.067702
    11  C   -0.407301   0.102189
    12  C    0.302315  -0.289918
    13  C    0.105642  -1.024772
    14  S    0.519619  -0.109176
    15  O   -0.218861   0.009741
    16  O   -0.061407  -0.001596
    17  C   -0.094574  -0.607854
    18  H    0.166977   0.017023
    19  H    0.138361  -0.014530
    20  H    0.123039   0.053254
    21  H    0.215009  -0.110148
    22  H    0.122524   0.078540
    23  H    0.082264   0.068926
    24  H    0.231269  -0.023956
    25  H    0.104454   0.039763
    26  H   -0.229694   0.402885
    27  H    0.026745   0.272172
    28  H   -0.052314   0.305042
    29  H    0.084415   0.121050
    30  H   -0.013819   0.336516
    31  H   -0.797651   1.050762
    32  H   -0.535322   0.767191
    33  H    0.196266   0.030345
    34  H    0.038058   0.200595
    35  H   -0.136620   0.389277
    36  H    0.734665  -0.565944
    37  H   -0.240905   0.554043
 Sum of Mulliken charges =  -1.00000   1.00000

 Dipole moment (field-independent basis, Debye):
    X=             -3.2336    Y=             -4.8712    Z=              4.9335  Tot=              7.6501
 Quadrupole moment (field-independent basis, Debye-Ang):
   XX=           -179.0380   YY=           -169.9572   ZZ=           -148.2013
   XY=              2.3373   XZ=              0.1215   YZ=              2.9119

 Summary of Natural Population Analysis:

                                       Natural Population
                Natural  -----------------------------------------------
    Atom  No    Charge         Core      Valence    Rydberg      Total
 -----------------------------------------------------------------------
      C    1   -0.28755      0.99964     2.28095    0.00696     3.28755
      C    2   -0.07687      0.99950     2.06555    0.01182     3.07687
      C    3   -0.19110      0.99960     2.18347    0.00803     3.19110
      C    4   -0.19728      0.99964     2.19041    0.00722     3.19728
      C    5   -0.19870      0.99961     2.19041    0.00868     3.19870
      C    6   -0.01070      0.99954     1.99698    0.01418     3.01070
      N    7   -0.41604      0.99976     2.90574    0.01054     3.91604
      C    8    0.36368      0.99960     1.61292    0.02379     2.63632
      O    9   -0.30723      0.99988     3.30185    0.00551     4.30723
      N   10   -0.33218      0.99967     2.81953    0.01299     3.83218
      C   11   -0.01905      0.99956     2.00253    0.01696     3.01905
      C   12   -0.20414      0.99960     2.19441    0.01013     3.20414
      C   13   -0.28490      0.99959     2.27434    0.01096     3.28490
      S   14    1.01293      4.99929     1.89430    0.09349     6.98707
      O   15   -0.47183      0.99991     3.46638    0.00555     4.47183
      O   16   -0.46188      0.99991     3.45657    0.00540     4.46188
      C   17   -0.29307      0.99955     2.27962    0.01389     3.29307
      H   18    0.10632      0.00000     0.39288    0.00080     0.39368
      H   19    0.09363      0.00000     0.40563    0.00073     0.40637
      H   20    0.11067      0.00000     0.38837    0.00097     0.38933
      H   21    0.10483      0.00000     0.39321    0.00196     0.39517
      H   22    0.09996      0.00000     0.39909    0.00095     0.40004
      H   23    0.09871      0.00000     0.40047    0.00083     0.40129
      H   24    0.10551      0.00000     0.39316    0.00133     0.39449
      H   25    0.09316      0.00000     0.40567    0.00117     0.40684
      H   26    0.10304      0.00000     0.39582    0.00114     0.39696
      H   27    0.09871      0.00000     0.39870    0.00258     0.40129
      H   28    0.17895      0.00000     0.31925    0.00180     0.32105
      H   29    0.17111      0.00000     0.32721    0.00169     0.32889
      H   30    0.19794      0.00000     0.29912    0.00294     0.30206
      H   31    0.11280      0.00000     0.37845    0.00875     0.38720
      H   32    0.11773      0.00000     0.37944    0.00283     0.38227
      H   33    0.10283      0.00000     0.39572    0.00146     0.39717
      H   34    0.11844      0.00000     0.38047    0.00109     0.38156
      H   35    0.12004      0.00000     0.37780    0.00216     0.37996
      H   36    0.11685      0.00000     0.38057    0.00258     0.38315
      H   37    0.12470      0.00000     0.37371    0.00160     0.37530
 =======================================================================
   * Total *   -0.00000     20.99386    48.70068    0.30546    70.00000

 Normal termination of Gaussian 16 at Fri Dec 11 14:27:26 2020.
