 Gaussian 16, Revision A.03,

 -----------------------------------------------------------
 # opt freq B3LYP/6-31G(d) empiricaldispersion=gd3bj scf=xqc
 -----------------------------------------------------------

 -------------------------------
 CID_152730537_JID_4564_neutraal
 -------------------------------
 Symbolic Z-matrix:
 Charge =  0 Multiplicity = 1

 SCF Done:  E(RB3LYP) =  -625.859112072     A.U. after   16 cycles
 SCF Done:  E(RB3LYP) =  -625.863406642     A.U. after   14 cycles
 SCF Done:  E(RB3LYP) =  -625.864899465     A.U. after   14 cycles
 SCF Done:  E(RB3LYP) =  -625.865094923     A.U. after   12 cycles
 SCF Done:  E(RB3LYP) =  -625.865180825     A.U. after   14 cycles
 SCF Done:  E(RB3LYP) =  -625.865268033     A.U. after   12 cycles
 SCF Done:  E(RB3LYP) =  -625.865328328     A.U. after   13 cycles
 SCF Done:  E(RB3LYP) =  -625.865424740     A.U. after   16 cycles
 SCF Done:  E(RB3LYP) =  -625.865557281     A.U. after   12 cycles
 SCF Done:  E(RB3LYP) =  -625.865722892     A.U. after   12 cycles
 SCF Done:  E(RB3LYP) =  -625.865883494     A.U. after   12 cycles
 SCF Done:  E(RB3LYP) =  -625.865892200     A.U. after   10 cycles
 SCF Done:  E(RB3LYP) =  -625.865892934     A.U. after    8 cycles
 SCF Done:  E(RB3LYP) =  -625.865893069     A.U. after    8 cycles
 SCF Done:  E(RB3LYP) =  -625.865893089     A.U. after    7 cycles
 Optimization completed.
    -- Stationary point found.
 Normal termination of Gaussian 16 at Thu Dec 10 10:12:38 2020.

 --------------------------------------------------------------------
 #N Geom=AllCheck Guess=TCheck SCRF=Check GenChk RB3LYP/6-31G(d) Freq
 --------------------------------------------------------------------

 Structure from the checkpoint file:  "JID_4564.chk"
 -------------------------------
 CID_152730537_JID_4564_neutraal
 -------------------------------
 Charge =  0 Multiplicity = 1

 SCF Done:  E(RB3LYP) =  -625.865893089     A.U. after    1 cycles

  Exact polarizability: 142.220   9.399 163.900  -8.040   0.545  63.921
 Approx polarizability: 223.687  30.083 296.680 -17.708   4.564 106.035

                      1                      2                      3
                      A                      A                      A
 Frequencies --     30.2096                70.4579                87.3884
 Red. masses --      8.3889                 5.2286                 7.4961
 Frc consts  --      0.0045                 0.0153                 0.0337
 IR Inten    --      0.0928                 0.2641                 0.4848

                      4                      5                      6
                      A                      A                      A
 Frequencies --    149.1389               172.7889               217.3168
 Red. masses --      3.2468                 4.2199                 6.3685
 Frc consts  --      0.0425                 0.0742                 0.1772
 IR Inten    --      0.3755                 1.0582                 3.5369

                      7                      8                      9
                      A                      A                      A
 Frequencies --    260.7989               295.1262               381.7340
 Red. masses --      5.2439                 7.8729                 2.8019
 Frc consts  --      0.2101                 0.4040                 0.2406
 IR Inten    --      0.7165                 3.3475                 2.0656

                     10                     11                     12
                      A                      A                      A
 Frequencies --    410.9349               444.4800               483.4697
 Red. masses --      3.6494                 4.7414                 5.1591
 Frc consts  --      0.3631                 0.5519                 0.7105
 IR Inten    --      0.8689                 1.0633                 2.1495

                     13                     14                     15
                      A                      A                      A
 Frequencies --    494.9604               518.4490               553.2429
 Red. masses --      4.7903                13.7742                 3.0953
 Frc consts  --      0.6914                 2.1814                 0.5582
 IR Inten    --      1.4310                 9.5720                 7.2852

                     16                     17                     18
                      A                      A                      A
 Frequencies --    559.3381               651.4052               658.0730
 Red. masses --      6.5649                 8.4878                 3.4932
 Frc consts  --      1.2101                 2.1220                 0.8913
 IR Inten    --      1.3815                 4.6675                 5.0695

                     19                     20                     21
                      A                      A                      A
 Frequencies --    705.1914               722.0327               765.3160
 Red. masses --      1.7330                 4.8073                 1.5033
 Frc consts  --      0.5078                 1.4766                 0.5188
 IR Inten    --     10.4097                 1.0470                17.7137

                     22                     23                     24
                      A                      A                      A
 Frequencies --    801.5466               809.0312               859.3599
 Red. masses --      2.9006                 2.2874                 7.2508
 Frc consts  --      1.0980                 0.8821                 3.1549
 IR Inten    --     15.9351                21.9504                25.3926

                     25                     26                     27
                      A                      A                      A
 Frequencies --    865.3516               897.1967               954.5798
 Red. masses --      4.4422                 1.3919                 1.3542
 Frc consts  --      1.9599                 0.6601                 0.7270
 IR Inten    --      4.5974                 1.9274                 2.3927

                     28                     29                     30
                      A                      A                      A
 Frequencies --    965.7039               985.9981               993.4703
 Red. masses --      2.5955                 1.2815                 1.2621
 Frc consts  --      1.4261                 0.7341                 0.7339
 IR Inten    --      5.2702                 1.4056                 0.4210

                     31                     32                     33
                      A                      A                      A
 Frequencies --   1019.2524              1027.1334              1070.4785
 Red. masses --      3.0708                 3.7811                 2.4371
 Frc consts  --      1.8796                 2.3503                 1.6454
 IR Inten    --     27.7007                20.7171                 7.2501

                     34                     35                     36
                      A                      A                      A
 Frequencies --   1090.4675              1146.8666              1192.7822
 Red. masses --      2.6757                 1.7568                 1.1619
 Frc consts  --      1.8746                 1.3614                 0.9739
 IR Inten    --     21.0954                 1.6986                 0.7121

                     37                     38                     39
                      A                      A                      A
 Frequencies --   1196.4511              1205.9239              1227.3741
 Red. masses --      1.1426                 1.8523                 2.2659
 Frc consts  --      0.9637                 1.5871                 2.0112
 IR Inten    --      1.2342                16.3217                 2.7842

                     40                     41                     42
                      A                      A                      A
 Frequencies --   1238.5584              1254.4530              1307.5988
 Red. masses --      3.0034                 1.8647                 1.3954
 Frc consts  --      2.7146                 1.7289                 1.4057
 IR Inten    --     32.9008                 3.0636                 1.0573

                     43                     44                     45
                      A                      A                      A
 Frequencies --   1332.6979              1351.4737              1366.5041
 Red. masses --      1.3509                 3.2756                 1.6333
 Frc consts  --      1.4136                 3.5250                 1.7970
 IR Inten    --      8.0276                 3.9921                16.4451

                     46                     47                     48
                      A                      A                      A
 Frequencies --   1394.5049              1437.5759              1501.2002
 Red. masses --      1.7930                 1.6399                 2.2546
 Frc consts  --      2.0543                 1.9968                 2.9937
 IR Inten    --     27.9428                 2.7675                 8.9265

                     49                     50                     51
                      A                      A                      A
 Frequencies --   1508.4656              1535.7145              1631.3585
 Red. masses --      1.1203                 2.7762                 5.8579
 Frc consts  --      1.5019                 3.8577                 9.1853
 IR Inten    --      2.7119                11.6811                 0.1024

                     52                     53                     54
                      A                      A                      A
 Frequencies --   1664.3342              1714.4071              2197.9034
 Red. masses --      5.9783                 6.5025                13.9771
 Frc consts  --      9.7569                11.2605                39.7817
 IR Inten    --      2.3589                 0.8762               354.5312

                     55                     56                     57
                      A                      A                      A
 Frequencies --   3029.2047              3040.5222              3098.3641
 Red. masses --      1.0799                 1.0697                 1.0954
 Frc consts  --      5.8383                 5.8268                 6.1954
 IR Inten    --      9.3023                16.3894                26.0183

                     58                     59                     60
                      A                      A                      A
 Frequencies --   3175.3688              3181.3036              3193.5068
 Red. masses --      1.0859                 1.0866                 1.0887
 Frc consts  --      6.4509                 6.4795                 6.5419
 IR Inten    --      2.1364                 6.9054                 6.5862

                     61                     62                     63
                      A                      A                      A
 Frequencies --   3198.8890              3206.8499              3217.9355
 Red. masses --      1.0968                 1.0931                 1.0950
 Frc consts  --      6.6125                 6.6231                 6.6807
 IR Inten    --     37.5846                26.9307                15.3328

 - Thermochemistry -
 -------------------
 Temperature   298.150 Kelvin.  Pressure   1.00000 Atm.
 Atom     1 has atomic number  6 and mass  12.00000

 Molecular mass:   187.07456 amu.
 Principal axes and moments of inertia in atomic units:
                           1         2         3
     Eigenvalues --  1815.696862800.880014269.96736
           X            0.99988  -0.01132  -0.01018
           Y            0.01126   0.99992  -0.00567
           Z            0.01024   0.00555   0.99993
 This molecule is an asymmetric top.
 Rotational symmetry number  1.
 Warning -- assumption of classical behavior for rotation
           may cause significant error
 Rotational temperatures (Kelvin)      0.04770     0.03092     0.02028
 Rotational constants (GHZ):           0.99397     0.64435     0.42266
 Zero-point vibrational energy     464865.9 (Joules/Mol)
                                  111.10563 (Kcal/Mol)
 Warning -- explicit consideration of  16 degrees of freedom as
           vibrations may cause significant error
 Vibrational temperatures:     43.46   101.37   125.73   214.58   248.60
          (Kelvin)            312.67   375.23   424.62   549.23   591.24
                              639.51   695.61   712.14   745.93   795.99
                              804.76   937.23   946.82  1014.61  1038.84
                             1101.12  1153.25  1164.02  1236.43  1245.05
                             1290.87  1373.43  1389.43  1418.63  1429.38
                             1466.48  1477.82  1540.18  1568.94  1650.09
                             1716.15  1721.43  1735.06  1765.92  1782.01
                             1804.88  1881.34  1917.45  1944.47  1966.09
                             2006.38  2068.35  2159.89  2170.35  2209.55
                             2347.16  2394.61  2466.65  3162.29  4358.35
                             4374.63  4457.85  4568.65  4577.19  4594.74
                             4602.49  4613.94  4629.89

 Zero-point correction=                           0.177058 (Hartree/Particle)
 Thermal correction to Energy=                    0.188315
 Thermal correction to Enthalpy=                  0.189259
 Thermal correction to Gibbs Free Energy=         0.138755
 Sum of electronic and zero-point Energies=           -625.688835
 Sum of electronic and thermal Energies=              -625.677578
 Sum of electronic and thermal Enthalpies=            -625.676634
 Sum of electronic and thermal Free Energies=         -625.727138

                     E (Thermal)             CV                S
                      KCal/Mol        Cal/Mol-Kelvin    Cal/Mol-Kelvin
 Total                  118.169             43.667            106.296
 Electronic               0.000              0.000              0.000
 Translational            0.889              2.981             41.585
 Rotational               0.889              2.981             31.452
 Vibrational            116.392             37.705             33.259
 Vibration     1          0.594              1.984              5.816
 Vibration     2          0.598              1.968              4.141
 Vibration     3          0.601              1.958              3.718
 Vibration     4          0.618              1.904              2.683
 Vibration     5          0.626              1.876              2.405
 Vibration     6          0.646              1.815              1.981
 Vibration     7          0.669              1.744              1.656
 Vibration     8          0.689              1.683              1.444
 Vibration     9          0.751              1.509              1.032
 Vibration    10          0.775              1.446              0.923
 Vibration    11          0.804              1.373              0.813
 Vibration    12          0.840              1.287              0.701
 Vibration    13          0.851              1.261              0.671
 Vibration    14          0.873              1.209              0.614
 Vibration    15          0.909              1.133              0.537
 Vibration    16          0.915              1.119              0.525

 Optimization completed.
    -- Stationary point found.
 Normal termination of Gaussian 16 at Thu Dec 10 10:18:49 2020.

 ----------------------------------------------------------------------
 # B3LYP/6-311++G(d,p) empiricaldispersion=gd3bj scf=xqc pop=npa geom=c
 heck
 ----------------------------------------------------------------------

 ---------------------------------------
 CID_152730537_JID_4564_Energie_neutraal
 ---------------------------------------
 Structure from the checkpoint file:  "JID_4564.chk"
 Charge =  0 Multiplicity = 1

 SCF Done:  E(RB3LYP) =  -626.030769320     A.U. after   16 cycles
 Normal termination of Gaussian 16 at Thu Dec 10 10:20:59 2020.

 ----------------------------------------------------------------------
 # B3LYP/6-311++G(d,p) empiricaldispersion=gd3bj scf=xqc pop=npa geom=c
 heck
 ----------------------------------------------------------------------

 -------------------------------------
 CID_152730537_JID_4564_Energie_kation
 -------------------------------------
 Structure from the checkpoint file:  "JID_4564.chk"
 Charge =  1 Multiplicity = 2

 SCF Done:  E(UB3LYP) =  -625.734741902     A.U. after   29 cycles
 Normal termination of Gaussian 16 at Thu Dec 10 10:26:11 2020.
 Gaussian 16:  ES64L-G16RevA.03 25-Dec-2016

 ----------------------------------------------------------------------
 # B3LYP/6-311++G(d,p) empiricaldispersion=gd3bj scf=xqc pop=npa geom=c
 heck
 ----------------------------------------------------------------------

 ------------------------------------
 CID_152730537_JID_4564_Energie_anion
 ------------------------------------
 Structure from the checkpoint file:  "JID_4564.chk"
 Charge = -1 Multiplicity = 2

                         Standard orientation:
 ---------------------------------------------------------------------
 Center     Atomic      Atomic             Coordinates (Angstroms)
 Number     Number       Type             X           Y           Z
 ---------------------------------------------------------------------
      1          6           0       -0.037184    2.316403   -0.081436
      2          6           0        1.444957    2.485822   -0.292497
      3          6           0        2.270843    1.430204   -0.306440
      4          6           0        1.780423    0.064773   -0.099154
      5          6           0        2.584158   -1.049292   -0.371254
      6          6           0        2.099234   -2.342666   -0.183772
      7          6           0        0.803861   -2.534791    0.295300
      8          6           0       -0.000852   -1.430801    0.587697
      9          6           0        0.469082   -0.136512    0.382251
     10          6           0       -0.349500    1.081068    0.768213
     11          8           0       -1.763607    0.817097    0.827612
     12          7           0       -2.265288    0.596009   -0.515229
     13          7           0       -2.954583   -0.445106   -0.488423
     14          7           0       -3.641412   -1.350491   -0.604514
     15          1           0       -0.479031    3.197185    0.395603
     16          1           0       -0.530785    2.208459   -1.057966
     17          1           0        1.821603    3.484752   -0.495637
     18          1           0        3.331154    1.557029   -0.512192
     19          1           0        3.595064   -0.894156   -0.740067
     20          1           0        2.732506   -3.196670   -0.406288
     21          1           0        0.420086   -3.538932    0.450105
     22          1           0       -0.998863   -1.578865    0.986920
     23          1           0       -0.144032    1.316295    1.822352
 ---------------------------------------------------------------------

 SCF Done:  E(UB3LYP) =  -626.042856905     A.U. after   33 cycles
 SCF Done:  E(UB3LYP) =  -626.042856905     a.u. after    1 cycles

 The electronic state is 2-A.
 Alpha  occ. eigenvalues --  -18.99759 -14.26753 -14.21435 -14.18495 -10.09238
 Alpha  occ. eigenvalues --  -10.04996 -10.04802 -10.04706 -10.04564 -10.04480
 Alpha  occ. eigenvalues --  -10.04294 -10.04269 -10.04256 -10.04104  -0.96793
 Alpha  occ. eigenvalues --   -0.89621  -0.76002  -0.73504  -0.68689  -0.63269
 Alpha  occ. eigenvalues --   -0.61552  -0.58649  -0.50930  -0.48542  -0.47290
 Alpha  occ. eigenvalues --   -0.42270  -0.38887  -0.37320  -0.36196  -0.35305
 Alpha  occ. eigenvalues --   -0.33655  -0.32229  -0.31115  -0.30101  -0.29084
 Alpha  occ. eigenvalues --   -0.28126  -0.27465  -0.25979  -0.25599  -0.24239
 Alpha  occ. eigenvalues --   -0.23941  -0.21983  -0.20376  -0.17560  -0.17213
 Alpha  occ. eigenvalues --   -0.13969  -0.12417  -0.09475  -0.06996   0.05079
 Alpha virt. eigenvalues --    0.07759   0.08123   0.08902   0.10043   0.10531
 Alpha virt. eigenvalues --    0.11342   0.11941   0.12681   0.13454   0.13937
 Alpha virt. eigenvalues --    0.14622   0.15434   0.16705   0.16990   0.17430

  Beta  occ. eigenvalues --  -18.99391 -14.26339 -14.21421 -14.17754 -10.09225
  Beta  occ. eigenvalues --  -10.05018 -10.04698 -10.04645 -10.04539 -10.04328
  Beta  occ. eigenvalues --  -10.04260 -10.04205 -10.04174 -10.04119  -0.95920
  Beta  occ. eigenvalues --   -0.88764  -0.75473  -0.73218  -0.68472  -0.63083
  Beta  occ. eigenvalues --   -0.61307  -0.58485  -0.50730  -0.48278  -0.47050
  Beta  occ. eigenvalues --   -0.41918  -0.38684  -0.37050  -0.36024  -0.34753
  Beta  occ. eigenvalues --   -0.32760  -0.31871  -0.30804  -0.29854  -0.28818
  Beta  occ. eigenvalues --   -0.27616  -0.26019  -0.25695  -0.25130  -0.23895
  Beta  occ. eigenvalues --   -0.23726  -0.21616  -0.20155  -0.16863  -0.16435
  Beta  occ. eigenvalues --   -0.13343  -0.12085  -0.08771  -0.06630
  Beta virt. eigenvalues --    0.08071   0.08857   0.09002   0.10000   0.10496
  Beta virt. eigenvalues --    0.11273   0.11930   0.12586   0.13183   0.13427
  Beta virt. eigenvalues --    0.13981   0.14908   0.15454   0.16957   0.17139

 Mulliken charges and spin densities:
               1          2
     1  C   -0.746307  -0.082921
     2  C    0.028968   0.154403
     3  C   -0.342576  -0.014943
     4  C    0.320324   0.049577
     5  C   -0.479221  -0.014273
     6  C   -0.452133   0.049325
     7  C   -0.407090   0.076172
     8  C   -0.262979   0.063649
     9  C    0.377563  -0.049480
    10  C    0.299017   0.151962
    11  O    0.002773   0.017729
    12  N   -0.494473  -0.010618
    13  N    0.333821   0.161759
    14  N   -0.353098   0.421697
    15  H    0.099331   0.017583
    16  H    0.182585   0.016679
    17  H    0.145349  -0.006539
    18  H    0.101752   0.003224
    19  H    0.100912   0.001798
    20  H    0.108543  -0.004451
    21  H    0.131289  -0.006167
    22  H    0.142042  -0.003458
    23  H    0.163606   0.007292
 Sum of Mulliken charges =  -1.00000   1.00000

 Dipole moment (field-independent basis, Debye):
    X=              6.1764    Y=              1.4860    Z=              0.8337  Tot=              6.4071
 Quadrupole moment (field-independent basis, Debye-Ang):
   XX=           -122.9959   YY=            -97.2146   ZZ=            -91.6587
   XY=             -6.1843   XZ=             -4.6756   YZ=             -1.8233

 Summary of Natural Population Analysis:

                                       Natural Population
                Natural  -----------------------------------------------
    Atom  No    Charge         Core      Valence    Rydberg      Total
 -----------------------------------------------------------------------
      C    1   -0.22043      0.99960     2.21298    0.00785     3.22043
      C    2   -0.04763      0.99956     2.03932    0.00875     3.04763
      C    3   -0.11323      0.99952     2.10476    0.00896     3.11323
      C    4   -0.01995      0.99947     2.01224    0.00824     3.01995
      C    5   -0.10433      0.99954     2.09614    0.00865     3.10433
      C    6   -0.10230      0.99957     2.09344    0.00929     3.10230
      C    7   -0.08899      0.99957     2.08007    0.00935     3.08899
      C    8   -0.10231      0.99952     2.09374    0.00904     3.10231
      C    9    0.00182      0.99946     1.98831    0.01040     2.99818
      C   10    0.06685      0.99950     1.91576    0.01789     2.93315
      O   11   -0.20610      0.99989     3.19628    0.00993     4.20610
      N   12   -0.10280      0.99972     2.58634    0.01675     3.60280
      N   13    0.12510      0.99972     2.35879    0.01639     3.37490
      N   14    0.04313      0.99982     2.44370    0.01335     3.45687
      H   15    0.09957      0.00000     0.39927    0.00116     0.40043
      H   16    0.11849      0.00000     0.38038    0.00113     0.38151
      H   17    0.08677      0.00000     0.41212    0.00111     0.41323
      H   18    0.09101      0.00000     0.40748    0.00151     0.40899
      H   19    0.09078      0.00000     0.40774    0.00147     0.40922
      H   20    0.09069      0.00000     0.40828    0.00103     0.40931
      H   21    0.09296      0.00000     0.40607    0.00097     0.40704
      H   22    0.10889      0.00000     0.38950    0.00162     0.39111
      H   23    0.09200      0.00000     0.40660    0.00140     0.40800
 =======================================================================
   * Total *    0.00000     13.99447    34.83931    0.16622    49.00000

 Normal termination of Gaussian 16 at Thu Dec 10 10:32:15 2020.
