 Gaussian 16, Revision A.03,

 -----------------------------------------------------------
 # opt freq B3LYP/6-31G(d) empiricaldispersion=gd3bj scf=xqc
 -----------------------------------------------------------

 ------------------------------
 CID_79986732_JID_6605_neutraal
 ------------------------------
 Symbolic Z-matrix:
 Charge =  0 Multiplicity = 1

 SCF Done:  E(RB3LYP) =  -675.946401700     A.U. after   12 cycles
 SCF Done:  E(RB3LYP) =  -675.951907429     A.U. after   11 cycles
 SCF Done:  E(RB3LYP) =  -675.952679030     A.U. after   10 cycles
 SCF Done:  E(RB3LYP) =  -675.952913619     A.U. after   10 cycles
 SCF Done:  E(RB3LYP) =  -675.953030526     A.U. after    9 cycles
 SCF Done:  E(RB3LYP) =  -675.953064726     A.U. after    9 cycles
 SCF Done:  E(RB3LYP) =  -675.953091177     A.U. after    8 cycles
 SCF Done:  E(RB3LYP) =  -675.953113195     A.U. after    9 cycles
 SCF Done:  E(RB3LYP) =  -675.953127295     A.U. after    9 cycles
 SCF Done:  E(RB3LYP) =  -675.953135888     A.U. after    9 cycles
 SCF Done:  E(RB3LYP) =  -675.953137753     A.U. after    8 cycles
 SCF Done:  E(RB3LYP) =  -675.953138120     A.U. after    7 cycles
 SCF Done:  E(RB3LYP) =  -675.953138402     A.U. after    7 cycles
 Optimization completed.
    -- Stationary point found.
 Normal termination of Gaussian 16 at Thu Dec 10 23:55:38 2020.

 --------------------------------------------------------------------
 #N Geom=AllCheck Guess=TCheck SCRF=Check GenChk RB3LYP/6-31G(d) Freq
 --------------------------------------------------------------------

 Structure from the checkpoint file:  "JID_6605.chk"
 ------------------------------
 CID_79986732_JID_6605_neutraal
 ------------------------------
 Charge =  0 Multiplicity = 1

 SCF Done:  E(RB3LYP) =  -675.953138402     A.U. after    1 cycles

  Exact polarizability: 180.708  -1.641 138.462  -2.782  -1.748 137.794
 Approx polarizability: 218.639  -1.814 201.972  -2.664  -1.109 210.743

                      1                      2                      3
                      A                      A                      A
 Frequencies --     24.5009                48.2029                60.8707
 Red. masses --      3.3391                 2.9351                 3.2416
 Frc consts  --      0.0012                 0.0040                 0.0071
 IR Inten    --      0.2830                 0.1193                 0.2092

                      4                      5                      6
                      A                      A                      A
 Frequencies --     89.4539               117.9570               139.4106
 Red. masses --      2.6812                 2.8155                 2.9287
 Frc consts  --      0.0126                 0.0231                 0.0335
 IR Inten    --      0.5559                 0.2022                 0.2837

                      7                      8                      9
                      A                      A                      A
 Frequencies --    158.8294               178.0480               215.4963
 Red. masses --      1.8841                 2.2545                 1.6818
 Frc consts  --      0.0280                 0.0421                 0.0460
 IR Inten    --      1.2779                 0.6139                 5.7894

                     10                     11                     12
                      A                      A                      A
 Frequencies --    234.1572               247.6549               263.6652
 Red. masses --      1.1064                 1.3709                 2.4995
 Frc consts  --      0.0357                 0.0495                 0.1024
 IR Inten    --      0.1954                 1.3115                 0.2724

                     13                     14                     15
                      A                      A                      A
 Frequencies --    277.9006               294.2409               337.7918
 Red. masses --      1.5929                 2.6335                 1.5002
 Frc consts  --      0.0725                 0.1343                 0.1009
 IR Inten    --      1.8376                 5.3900                34.6569

                     16                     17                     18
                      A                      A                      A
 Frequencies --    347.2516               352.1951               364.3223
 Red. masses --      2.4854                 1.8356                 2.2641
 Frc consts  --      0.1766                 0.1341                 0.1771
 IR Inten    --      1.6604                14.2942                 0.6484

                     19                     20                     21
                      A                      A                      A
 Frequencies --    372.3291               425.1933               439.2180
 Red. masses --      2.1189                 2.2748                 2.5474
 Frc consts  --      0.1731                 0.2423                 0.2895
 IR Inten    --      3.5396                 1.5419                 2.0284

                     22                     23                     24
                      A                      A                      A
 Frequencies --    444.0429               471.4462               534.8191
 Red. masses --      2.2561                 1.8165                 2.2659
 Frc consts  --      0.2621                 0.2379                 0.3819
 IR Inten    --      4.8832                 3.7550                 1.9425

                     25                     26                     27
                      A                      A                      A
 Frequencies --    561.9524               593.5456               638.1311
 Red. masses --      2.5429                 3.3774                 4.3849
 Frc consts  --      0.4731                 0.7010                 1.0520
 IR Inten    --      4.3380                 0.8239                13.5008

                     28                     29                     30
                      A                      A                      A
 Frequencies --    653.1613               712.9064               757.7708
 Red. masses --      2.7169                 2.6280                 3.0603
 Frc consts  --      0.6829                 0.7869                 1.0354
 IR Inten    --      5.8172                 8.3257                 1.8622

                     31                     32                     33
                      A                      A                      A
 Frequencies --    791.2469               839.9845               850.4315
 Red. masses --      3.0626                 2.4952                 2.3214
 Frc consts  --      1.1297                 1.0373                 0.9892
 IR Inten    --      0.2943                20.4278                10.1007

                     34                     35                     36
                      A                      A                      A
 Frequencies --    870.4672               891.2369               898.9821
 Red. masses --      2.2438                 2.8143                 2.3008
 Frc consts  --      1.0017                 1.3171                 1.0955
 IR Inten    --      1.5911                 0.8434                 6.8145

                     37                     38                     39
                      A                      A                      A
 Frequencies --    902.9656               931.7731               939.9804
 Red. masses --      1.6278                 1.2968                 2.2254
 Frc consts  --      0.7820                 0.6633                 1.1585
 IR Inten    --     41.3376                 0.6393                19.0554

                     40                     41                     42
                      A                      A                      A
 Frequencies --    946.1265               953.5292               955.3712
 Red. masses --      1.7346                 1.3665                 1.5182
 Frc consts  --      0.9149                 0.7320                 0.8164
 IR Inten    --     76.1732                 0.0352                31.7855

                     43                     44                     45
                      A                      A                      A
 Frequencies --    979.1836               991.0250               992.6171
 Red. masses --      2.1247                 2.0246                 1.9911
 Frc consts  --      1.2002                 1.1716                 1.1558
 IR Inten    --      1.6687                17.8247                 4.7979

                     46                     47                     48
                      A                      A                      A
 Frequencies --   1044.1947              1061.9913              1064.5306
 Red. masses --      2.0548                 1.5802                 2.4347
 Frc consts  --      1.3200                 1.0500                 1.6256
 IR Inten    --      0.7283                 6.1871                13.3328

                     49                     50                     51
                      A                      A                      A
 Frequencies --   1070.5304              1076.0688              1093.5793
 Red. masses --      2.6605                 1.6190                 1.8658
 Frc consts  --      1.7964                 1.1045                 1.3146
 IR Inten    --     12.7446                 9.1352                13.1538

                     52                     53                     54
                      A                      A                      A
 Frequencies --   1110.5446              1133.7686              1150.4235
 Red. masses --      2.4059                 1.6260                 2.0898
 Frc consts  --      1.7482                 1.2314                 1.6296
 IR Inten    --     41.2284                 8.6867                17.4040

                     55                     56                     57
                      A                      A                      A
 Frequencies --   1152.6762              1166.1513              1191.9098
 Red. masses --      2.0547                 1.5135                 1.5651
 Frc consts  --      1.6085                 1.2127                 1.3100
 IR Inten    --     39.0561                10.2475                 3.2465

                     58                     59                     60
                      A                      A                      A
 Frequencies --   1196.5301              1213.7957              1223.2021
 Red. masses --      1.9217                 1.3092                 1.8840
 Frc consts  --      1.6210                 1.1365                 1.6608
 IR Inten    --     52.7601                16.1055                 1.9691

                     61                     62                     63
                      A                      A                      A
 Frequencies --   1237.4826              1247.9516              1263.4620
 Red. masses --      1.7381                 1.3895                 1.6394
 Frc consts  --      1.5682                 1.2750                 1.5419
 IR Inten    --      2.6288                32.9661                14.0286

                     64                     65                     66
                      A                      A                      A
 Frequencies --   1295.7210              1314.1419              1321.8094
 Red. masses --      1.4454                 1.2403                 1.4661
 Frc consts  --      1.4298                 1.2620                 1.5093
 IR Inten    --      8.0446                 1.4679                11.5480

                     67                     68                     69
                      A                      A                      A
 Frequencies --   1327.0948              1347.7543              1358.1376
 Red. masses --      1.4633                 1.3106                 1.3402
 Frc consts  --      1.5184                 1.4026                 1.4565
 IR Inten    --      2.3908                 0.6675                15.9776

                     70                     71                     72
                      A                      A                      A
 Frequencies --   1366.7459              1373.5290              1376.3263
 Red. masses --      1.3903                 1.4371                 1.3313
 Frc consts  --      1.5301                 1.5974                 1.4859
 IR Inten    --     14.3300                27.1319                 8.9417

                     73                     74                     75
                      A                      A                      A
 Frequencies --   1382.6996              1386.2472              1404.7540
 Red. masses --      1.3969                 1.5181                 1.3200
 Frc consts  --      1.5736                 1.7188                 1.5347
 IR Inten    --      3.0546                12.6551                 5.7604

                     76                     77                     78
                      A                      A                      A
 Frequencies --   1411.4072              1414.1657              1423.2740
 Red. masses --      1.4172                 1.2693                 1.2785
 Frc consts  --      1.6633                 1.4956                 1.5258
 IR Inten    --     11.7165                 4.2202                 6.6531

                     79                     80                     81
                      A                      A                      A
 Frequencies --   1426.5333              1430.4346              1441.6336
 Red. masses --      1.3939                 1.3969                 1.3004
 Frc consts  --      1.6713                 1.6840                 1.5923
 IR Inten    --     10.2992                 5.2314                 8.2570

                     82                     83                     84
                      A                      A                      A
 Frequencies --   1443.8424              1446.5966              1509.4032
 Red. masses --      1.2642                 1.4152                 1.0924
 Frc consts  --      1.5527                 1.7449                 1.4664
 IR Inten    --     13.6946                 7.7277                 5.2449

                     85                     86                     87
                      A                      A                      A
 Frequencies --   1512.5120              1512.9985              1520.4910
 Red. masses --      1.0649                 1.0697                 1.0701
 Frc consts  --      1.4353                 1.4427                 1.4577
 IR Inten    --      0.8759                 0.4904                 3.0197

                     88                     89                     90
                      A                      A                      A
 Frequencies --   1521.4180              1522.4236              1525.3780
 Red. masses --      1.0606                 1.0622                 1.0735
 Frc consts  --      1.4464                 1.4506                 1.4716
 IR Inten    --      3.7473                 4.2062                 2.3302

                     91                     92                     93
                      A                      A                      A
 Frequencies --   1533.4519              1536.7895              1537.9374
 Red. masses --      1.0757                 1.0590                 1.0626
 Frc consts  --      1.4904                 1.4736                 1.4808
 IR Inten    --      8.7215                 4.9117                 2.7539

                     94                     95                     96
                      A                      A                      A
 Frequencies --   1543.2203              1547.0463              1689.7178
 Red. masses --      1.0791                 1.0790                 1.0867
 Frc consts  --      1.5141                 1.5215                 1.8281
 IR Inten    --     13.7772                 1.5938                33.4603

                     97                     98                     99
                      A                      A                      A
 Frequencies --   2924.9180              2934.8183              3012.0470
 Red. masses --      1.0737                 1.0722                 1.0690
 Frc consts  --      5.4119                 5.4410                 5.7144
 IR Inten    --     31.4073                82.8927                 3.3866

                    100                    101                    102
                      A                      A                      A
 Frequencies --   3020.0851              3026.8732              3035.5246
 Red. masses --      1.0711                 1.0829                 1.0780
 Frc consts  --      5.7558                 5.8455                 5.8523
 IR Inten    --     50.5720                47.5343               117.4031

                    103                    104                    105
                      A                      A                      A
 Frequencies --   3038.2091              3046.4347              3047.8746
 Red. masses --      1.0841                 1.0360                 1.0689
 Frc consts  --      5.8959                 5.6647                 5.8503
 IR Inten    --     23.7169                15.1629                45.1299

                    106                    107                    108
                      A                      A                      A
 Frequencies --   3049.6098              3053.0461              3058.0623
 Red. masses --      1.0426                 1.0407                 1.1003
 Frc consts  --      5.7128                 5.7153                 6.0627
 IR Inten    --     20.5395                22.1258                50.4230

                    109                    110                    111
                      A                      A                      A
 Frequencies --   3070.7010              3081.0435              3099.3756
 Red. masses --      1.0783                 1.0692                 1.0880
 Frc consts  --      5.9905                 5.9799                 6.1576
 IR Inten    --      5.9778                23.8816                30.8526

                    112                    113                    114
                      A                      A                      A
 Frequencies --   3100.2328              3101.9236              3105.6103
 Red. masses --      1.0891                 1.0934                 1.0989
 Frc consts  --      6.1677                 6.1986                 6.2447
 IR Inten    --      5.3058                25.3520                56.3447

                    115                    116                    117
                      A                      A                      A
 Frequencies --   3106.7655              3114.1034              3117.9649
 Red. masses --      1.1017                 1.0999                 1.1042
 Frc consts  --      6.2651                 6.2847                 6.3248
 IR Inten    --      3.8821                74.8608                79.7774

                    118                    119                    120
                      A                      A                      A
 Frequencies --   3126.6833              3129.8051              3136.9400
 Red. masses --      1.0957                 1.1004                 1.1022
 Frc consts  --      6.3109                 6.3511                 6.3900
 IR Inten    --     21.4951                39.6270                32.4863

                    121                    122                    123
                      A                      A                      A
 Frequencies --   3145.5633              3470.1245              3557.9954
 Red. masses --      1.0972                 1.0492                 1.0917
 Frc consts  --      6.3966                 7.4442                 8.1426
 IR Inten    --     32.4295                 6.0843                 0.5069

 - Thermochemistry -
 -------------------
 Temperature   298.150 Kelvin.  Pressure   1.00000 Atm.
 Atom     1 has atomic number  6 and mass  12.00000

 Molecular mass:   225.22050 amu.
 Principal axes and moments of inertia in atomic units:
                           1         2         3
     Eigenvalues --  1703.606806828.172346964.87884
           X            0.99994  -0.00933  -0.00550
           Y            0.00846   0.98999  -0.14090
           Z            0.00676   0.14085   0.99001
 This molecule is an asymmetric top.
 Rotational symmetry number  1.
 Warning -- assumption of classical behavior for rotation
           may cause significant error
 Rotational temperatures (Kelvin)      0.05084     0.01268     0.01244
 Rotational constants (GHZ):           1.05936     0.26431     0.25912
 Zero-point vibrational energy    1053958.8 (Joules/Mol)
                                  251.90220 (Kcal/Mol)
 Warning -- explicit consideration of  26 degrees of freedom as
           vibrations may cause significant error
 Vibrational temperatures:     35.25    69.35    87.58   128.70   169.71
          (Kelvin)            200.58   228.52   256.17   310.05   336.90
                              356.32   379.36   399.84   423.35   486.01
                              499.62   506.73   524.18   535.70   611.76
                              631.94   638.88   678.31   769.49   808.52
                              853.98   918.13   939.75  1025.71  1090.26
                             1138.43  1208.55  1223.58  1252.41  1282.29
                             1293.43  1299.17  1340.61  1352.42  1361.26
                             1371.92  1374.57  1408.83  1425.86  1428.15
                             1502.36  1527.97  1531.62  1540.25  1548.22
                             1573.42  1597.83  1631.24  1655.20  1658.44
                             1677.83  1714.89  1721.54  1746.38  1759.92
                             1780.46  1795.52  1817.84  1864.25  1890.76
                             1901.79  1909.39  1939.12  1954.06  1966.44
                             1976.20  1980.23  1989.40  1994.50  2021.13
                             2030.70  2034.67  2047.77  2052.46  2058.08
                             2074.19  2077.37  2081.33  2171.69  2176.17
                             2176.87  2187.65  2188.98  2190.43  2194.68
                             2206.30  2211.10  2212.75  2220.35  2225.85
                             2431.13  4208.30  4222.55  4333.66  4345.23
                             4355.00  4367.44  4371.31  4383.14  4385.21
                             4387.71  4392.65  4399.87  4418.05  4432.93
                             4459.31  4460.54  4462.98  4468.28  4469.94
                             4480.50  4486.06  4498.60  4503.09  4513.36
                             4525.76  4992.74  5119.16

 Zero-point correction=                           0.401432 (Hartree/Particle)
 Thermal correction to Energy=                    0.418277
 Thermal correction to Enthalpy=                  0.419221
 Thermal correction to Gibbs Free Energy=         0.357204
 Sum of electronic and zero-point Energies=           -675.551707
 Sum of electronic and thermal Energies=              -675.534861
 Sum of electronic and thermal Enthalpies=            -675.533917
 Sum of electronic and thermal Free Energies=         -675.595934

                     E (Thermal)             CV                S
                      KCal/Mol        Cal/Mol-Kelvin    Cal/Mol-Kelvin
 Total                  262.473             66.797            130.525
 Electronic               0.000              0.000              0.000
 Translational            0.889              2.981             42.138
 Rotational               0.889              2.981             32.760
 Vibrational            260.695             60.836             55.627
 Vibration     1          0.593              1.985              6.231
 Vibration     2          0.595              1.978              4.890
 Vibration     3          0.597              1.973              4.429
 Vibration     4          0.602              1.957              3.672
 Vibration     5          0.608              1.934              3.134
 Vibration     6          0.615              1.914              2.812
 Vibration     7          0.621              1.893              2.564
 Vibration     8          0.628              1.869              2.349
 Vibration     9          0.645              1.817              1.997
 Vibration    10          0.654              1.789              1.847
 Vibration    11          0.661              1.767              1.747
 Vibration    12          0.670              1.739              1.637
 Vibration    13          0.679              1.714              1.547
 Vibration    14          0.689              1.684              1.449
 Vibration    15          0.718              1.600              1.223
 Vibration    16          0.725              1.581              1.179
 Vibration    17          0.729              1.571              1.156
 Vibration    18          0.738              1.546              1.104
 Vibration    19          0.744              1.529              1.070
 Vibration    20          0.787              1.415              0.875
 Vibration    21          0.799              1.385              0.829
 Vibration    22          0.804              1.374              0.814
 Vibration    23          0.828              1.313              0.734
 Vibration    24          0.890              1.173              0.577
 Vibration    25          0.918              1.114              0.520
 Vibration    26          0.951              1.046              0.461

                           ! Non-Optimized Parameters !
 Normal termination of Gaussian 16 at Fri Dec 11 00:12:51 2020.

 ----------------------------------------------------------------------
 # B3LYP/6-311++G(d,p) empiricaldispersion=gd3bj scf=xqc pop=npa geom=c
 heck
 ----------------------------------------------------------------------

 --------------------------------------
 CID_79986732_JID_6605_Energie_neutraal
 --------------------------------------
 Structure from the checkpoint file:  "JID_6605.chk"
 Charge =  0 Multiplicity = 1

 SCF Done:  E(RB3LYP) =  -676.143716210     A.U. after   14 cycles
 Normal termination of Gaussian 16 at Fri Dec 11 00:20:47 2020.

 ----------------------------------------------------------------------
 # B3LYP/6-311++G(d,p) empiricaldispersion=gd3bj scf=xqc pop=npa geom=c
 heck
 ----------------------------------------------------------------------

 ------------------------------------
 CID_79986732_JID_6605_Energie_kation
 ------------------------------------
 Structure from the checkpoint file:  "JID_6605.chk"
 Charge =  1 Multiplicity = 2

 SCF Done:  E(UB3LYP) =  -675.875955287     A.U. after   22 cycles
 Normal termination of Gaussian 16 at Fri Dec 11 00:38:17 2020.
 Gaussian 16:  ES64L-G16RevA.03 25-Dec-2016

 ----------------------------------------------------------------------
 # B3LYP/6-311++G(d,p) empiricaldispersion=gd3bj scf=xqc pop=npa geom=c
 heck
 ----------------------------------------------------------------------

 -----------------------------------
 CID_79986732_JID_6605_Energie_anion
 -----------------------------------
 Structure from the checkpoint file:  "JID_6605.chk"
 Charge = -1 Multiplicity = 2

                         Standard orientation:
 ---------------------------------------------------------------------
 Center     Atomic      Atomic             Coordinates (Angstroms)
 Number     Number       Type             X           Y           Z
 ---------------------------------------------------------------------
      1          6           0       -2.725464    2.146715   -0.544999
      2          6           0       -2.800298    1.182785    0.647156
      3          6           0       -3.763517   -0.006576    0.450030
      4          6           0       -3.196650   -1.149963   -0.419454
      5          6           0       -1.789174   -1.511542    0.067153
      6          7           0       -0.939728   -0.321713    0.037431
      7          6           0       -1.409141    0.648580    1.026509
      8          6           0        0.494240   -0.614307    0.072907
      9          6           0        1.125891   -0.948694    1.459466
     10          6           0        2.144792    0.189302    1.693794
     11          7           0        2.539652    0.702348    0.377270
     12          6           0        1.341848    0.582806   -0.454862
     13          6           0        3.789154    0.158087   -0.178309
     14          6           0        3.744579   -1.316320   -0.625113
     15          6           0        4.287712    1.056890   -1.314909
     16          7           0       -3.119460   -0.894090   -1.863254
     17          1           0       -3.726615    2.438402   -0.883041
     18          1           0       -2.195148    1.703699   -1.391091
     19          1           0       -2.189071    3.060933   -0.263368
     20          1           0       -3.168167    1.759301    1.507444
     21          1           0       -3.994384   -0.426038    1.440275
     22          1           0       -4.718466    0.340901    0.032644
     23          1           0       -3.839964   -2.029186   -0.276138
     24          1           0       -1.365888   -2.265630   -0.603487
     25          1           0       -1.845734   -1.950991    1.082142
     26          1           0       -0.699191    1.478661    1.087810
     27          1           0       -1.463180    0.194768    2.035467
     28          1           0        0.634964   -1.468269   -0.596244
     29          1           0        1.626259   -1.920584    1.424352
     30          1           0        0.374113   -1.004058    2.252833
     31          1           0        1.664784    1.001062    2.258765
     32          1           0        3.026310   -0.122914    2.262088
     33          1           0        1.600226    0.458500   -1.508889
     34          1           0        0.748600    1.503072   -0.386358
     35          1           0        4.518511    0.234596    0.638412
     36          1           0        3.012589   -1.466674   -1.427481
     37          1           0        4.721884   -1.631045   -1.009263
     38          1           0        3.483579   -1.981455    0.203730
     39          1           0        4.325117    2.098598   -0.983371
     40          1           0        5.288474    0.749933   -1.638903
     41          1           0        3.628873    1.002164   -2.189592
     42          1           0       -3.949118   -0.393247   -2.176985
     43          1           0       -2.326432   -0.276903   -2.028095
 ---------------------------------------------------------------------

 SCF Done:  E(UB3LYP) =  -676.130997265     A.U. after   28 cycles

 The electronic state is 2-A.
 Alpha  occ. eigenvalues --  -14.20979 -14.20128 -14.19080 -10.10718 -10.10233
 Alpha  occ. eigenvalues --  -10.10019 -10.09459 -10.09444 -10.09386 -10.09081
 Alpha  occ. eigenvalues --  -10.07807 -10.06744 -10.06631 -10.06542 -10.06439
 Alpha  occ. eigenvalues --  -10.06106  -0.84719  -0.82764  -0.78330  -0.70830
 Alpha  occ. eigenvalues --   -0.69232  -0.65024  -0.63726  -0.62604  -0.59383
 Alpha  occ. eigenvalues --   -0.59306  -0.55179  -0.52176  -0.50880  -0.48313
 Alpha  occ. eigenvalues --   -0.45825  -0.43504  -0.41336  -0.40796  -0.38793
 Alpha  occ. eigenvalues --   -0.37423  -0.36410  -0.36139  -0.35778  -0.34953
 Alpha  occ. eigenvalues --   -0.33000  -0.32116  -0.31907  -0.30956  -0.30405
 Alpha  occ. eigenvalues --   -0.30139  -0.29880  -0.29422  -0.28890  -0.26857
 Alpha  occ. eigenvalues --   -0.26416  -0.26162  -0.25893  -0.25205  -0.24350
 Alpha  occ. eigenvalues --   -0.24131  -0.23603  -0.22816  -0.22204  -0.21515
 Alpha  occ. eigenvalues --   -0.14594  -0.12398  -0.11364   0.04049
 Alpha virt. eigenvalues --    0.05561   0.06858   0.07010   0.07806   0.07878
 Alpha virt. eigenvalues --    0.08240   0.09392   0.09519   0.09641   0.10130
 Alpha virt. eigenvalues --    0.10321   0.10880   0.11075   0.12032   0.12454

  Beta  occ. eigenvalues --  -14.20971 -14.20130 -14.19067 -10.10708 -10.10227
  Beta  occ. eigenvalues --  -10.10014 -10.09445 -10.09433 -10.09370 -10.09070
  Beta  occ. eigenvalues --  -10.07796 -10.06722 -10.06615 -10.06523 -10.06409
  Beta  occ. eigenvalues --  -10.06084  -0.84705  -0.82752  -0.78306  -0.70801
  Beta  occ. eigenvalues --   -0.69204  -0.64996  -0.63695  -0.62577  -0.59335
  Beta  occ. eigenvalues --   -0.59264  -0.55142  -0.52130  -0.50847  -0.48281
  Beta  occ. eigenvalues --   -0.45787  -0.43451  -0.41310  -0.40766  -0.38769
  Beta  occ. eigenvalues --   -0.37385  -0.36376  -0.36113  -0.35738  -0.34925
  Beta  occ. eigenvalues --   -0.32973  -0.32087  -0.31885  -0.30932  -0.30380
  Beta  occ. eigenvalues --   -0.30111  -0.29854  -0.29395  -0.28862  -0.26833
  Beta  occ. eigenvalues --   -0.26393  -0.26136  -0.25866  -0.25180  -0.24322
  Beta  occ. eigenvalues --   -0.24100  -0.23570  -0.22791  -0.22175  -0.21485
  Beta  occ. eigenvalues --   -0.14572  -0.12362  -0.11346
  Beta virt. eigenvalues --    0.05964   0.06497   0.07330   0.07410   0.08204
  Beta virt. eigenvalues --    0.08359   0.08627   0.09621   0.09730   0.10066
  Beta virt. eigenvalues --    0.10438   0.10572   0.11056   0.11386   0.12250

 Mulliken charges and spin densities:
               1          2
     1  C    0.879267  -1.497108
     2  C   -0.739562   1.104871
     3  C    0.940024  -1.734327
     4  C   -0.368569   0.488588
     5  C    0.068418  -0.527592
     6  N    0.427421   0.033222
     7  C   -0.112302  -0.396168
     8  C   -1.867710   0.877453
     9  C    0.634016  -0.732026
    10  C   -0.363513   0.029123
    11  N    0.313180   0.000989
    12  C    0.544594  -0.856454
    13  C   -1.226406   1.064472
    14  C    0.628939  -1.134573
    15  C    0.627735  -1.115475
    16  N   -0.228763  -0.089734
    17  H   -0.134931   0.295674
    18  H    0.039014   0.088244
    19  H   -0.075389   0.214971
    20  H   -0.417074   0.628375
    21  H   -0.089763   0.214251
    22  H   -0.329688   0.510749
    23  H   -0.041038   0.263208
    24  H   -0.039566   0.196886
    25  H    0.056362   0.076286
    26  H   -0.017720   0.155150
    27  H   -0.017106   0.151208
    28  H    0.284074  -0.134029
    29  H   -0.163579   0.346060
    30  H    0.003764   0.130468
    31  H   -0.063879   0.228300
    32  H   -0.062445   0.244040
    33  H    0.084996   0.056895
    34  H    0.342627  -0.106794
    35  H   -0.295855   0.437691
    36  H   -0.166989   0.327296
    37  H   -0.273491   0.427544
    38  H    0.020004   0.104384
    39  H    0.047539   0.102162
    40  H   -0.102835   0.234163
    41  H   -0.034111   0.156396
    42  H    0.087940   0.121396
    43  H    0.202369   0.013764
 Sum of Mulliken charges =  -1.00000   1.00000

 Dipole moment (field-independent basis, Debye):
    X=              0.6727    Y=              0.1034    Z=             -0.5085  Tot=              0.8496
 Quadrupole moment (field-independent basis, Debye-Ang):
   XX=           -205.5145   YY=           -147.0063   ZZ=           -143.8590
   XY=              7.4503   XZ=              2.4824   YZ=             -3.3340

 Summary of Natural Population Analysis:

                                       Natural Population
                Natural  -----------------------------------------------
    Atom  No    Charge         Core      Valence    Rydberg      Total
 -----------------------------------------------------------------------
      C    1   -0.28434      0.99964     2.27787    0.00683     3.28434
      C    2   -0.11739      0.99960     2.10543    0.01237     3.11739
      C    3   -0.19345      0.99959     2.18350    0.01036     3.19345
      C    4   -0.01797      0.99959     2.00479    0.01359     3.01797
      C    5   -0.08397      0.99959     2.07347    0.01091     3.08397
      N    6   -0.28821      0.99969     2.77609    0.01244     3.78821
      C    7   -0.08621      0.99958     2.07410    0.01252     3.08621
      C    8   -0.00737      0.99959     1.99526    0.01253     3.00737
      C    9   -0.21454      0.99962     2.20726    0.00766     3.21454
      C   10   -0.08520      0.99963     2.07457    0.01101     3.08520
      N   11   -0.28425      0.99972     2.77132    0.01320     3.78425
      C   12   -0.08998      0.99960     2.07976    0.01063     3.08998
      C   13   -0.00392      0.99960     1.99091    0.01341     3.00392
      C   14   -0.30020      0.99964     2.29424    0.00631     3.30020
      C   15   -0.28583      0.99964     2.28097    0.00522     3.28583
      N   16   -0.42473      0.99977     2.91550    0.00946     3.92473
      H   17    0.09864      0.00000     0.40035    0.00101     0.40136
      H   18    0.09695      0.00000     0.40158    0.00147     0.40305
      H   19    0.09769      0.00000     0.40146    0.00085     0.40231
      H   20    0.09762      0.00000     0.40054    0.00184     0.40238
      H   21    0.10095      0.00000     0.39750    0.00156     0.39905
      H   22    0.09920      0.00000     0.39936    0.00144     0.40080
      H   23    0.08946      0.00000     0.40914    0.00140     0.41054
      H   24    0.10139      0.00000     0.39727    0.00134     0.39861
      H   25    0.08443      0.00000     0.41421    0.00136     0.41557
      H   26    0.09880      0.00000     0.39950    0.00171     0.40120
      H   27    0.08429      0.00000     0.41399    0.00172     0.41571
      H   28    0.09731      0.00000     0.40116    0.00153     0.40269
      H   29    0.09947      0.00000     0.39920    0.00133     0.40053
      H   30    0.10319      0.00000     0.39565    0.00116     0.39681
      H   31    0.09046      0.00000     0.40808    0.00145     0.40954
      H   32    0.09695      0.00000     0.40181    0.00124     0.40305
      H   33    0.09871      0.00000     0.40012    0.00116     0.40129
      H   34    0.09597      0.00000     0.40252    0.00152     0.40403
      H   35    0.09263      0.00000     0.40588    0.00148     0.40737
      H   36    0.09668      0.00000     0.40234    0.00098     0.40332
      H   37    0.10113      0.00000     0.39779    0.00108     0.39887
      H   38    0.10064      0.00000     0.39810    0.00127     0.39936
      H   39    0.10275      0.00000     0.39590    0.00135     0.39725
      H   40    0.09820      0.00000     0.40092    0.00088     0.40180
      H   41    0.09513      0.00000     0.40378    0.00110     0.40487
      H   42    0.17221      0.00000     0.32605    0.00174     0.32779
      H   43    0.17672      0.00000     0.32066    0.00262     0.32328
 =======================================================================
   * Total *    0.00000     15.99409    46.79991    0.20600    63.00000

 Normal termination of Gaussian 16 at Fri Dec 11 01:01:04 2020.
