 Gaussian 16, Revision A.03,

 -----------------------------------------------------------
 # opt freq B3LYP/6-31G(d) empiricaldispersion=gd3bj scf=xqc
 -----------------------------------------------------------

 -------------------------------
 CID_116941344_JID_6865_neutraal
 -------------------------------
 Symbolic Z-matrix:
 Charge =  0 Multiplicity = 1

 SCF Done:  E(RB3LYP) =  -672.330050466     A.U. after   13 cycles
 SCF Done:  E(RB3LYP) =  -672.333865143     A.U. after   12 cycles
 SCF Done:  E(RB3LYP) =  -672.334374961     A.U. after   11 cycles
 SCF Done:  E(RB3LYP) =  -672.334466862     A.U. after   11 cycles
 SCF Done:  E(RB3LYP) =  -672.334473426     A.U. after   10 cycles
 SCF Done:  E(RB3LYP) =  -672.334476870     A.U. after    9 cycles
 SCF Done:  E(RB3LYP) =  -672.334477096     A.U. after    7 cycles
 Optimization completed.
    -- Stationary point found.
 Normal termination of Gaussian 16 at Fri Dec 11 00:50:26 2020.

 --------------------------------------------------------------------
 #N Geom=AllCheck Guess=TCheck SCRF=Check GenChk RB3LYP/6-31G(d) Freq
 --------------------------------------------------------------------

 Structure from the checkpoint file:  "JID_6865.chk"
 -------------------------------
 CID_116941344_JID_6865_neutraal
 -------------------------------
 Charge =  0 Multiplicity = 1

 SCF Done:  E(RB3LYP) =  -672.334477096     A.U. after    1 cycles

  Exact polarizability: 175.344  23.147 132.637   3.406  -4.441 148.878
 Approx polarizability: 229.103  46.047 197.613   6.583  -9.270 243.606

                      1                      2                      3
                      A                      A                      A
 Frequencies --     24.2347                34.4022                44.9431
 Red. masses --      1.0260                 3.2939                 3.8727
 Frc consts  --      0.0004                 0.0023                 0.0046
 IR Inten    --      0.1815                 0.2641                 0.5467

                      4                      5                      6
                      A                      A                      A
 Frequencies --     64.8923               119.7497               167.0207
 Red. masses --      3.5056                 3.0624                 2.9299
 Frc consts  --      0.0087                 0.0259                 0.0482
 IR Inten    --      0.2671                 2.6731                 0.3563

                      7                      8                      9
                      A                      A                      A
 Frequencies --    174.8919               180.4349               209.9780
 Red. masses --      3.3301                 3.4199                 3.7675
 Frc consts  --      0.0600                 0.0656                 0.0979
 IR Inten    --      0.2472                 0.0758                 2.3175

                     10                     11                     12
                      A                      A                      A
 Frequencies --    255.8891               260.1515               286.5954
 Red. masses --      1.0917                 1.1353                 2.2574
 Frc consts  --      0.0421                 0.0453                 0.1092
 IR Inten    --     52.2754                 7.3776                 4.9060

                     13                     14                     15
                      A                      A                      A
 Frequencies --    311.5930               330.3731               354.8753
 Red. masses --      2.7224                 4.0326                 2.6484
 Frc consts  --      0.1557                 0.2593                 0.1965
 IR Inten    --      9.8335                 4.1568                 2.0407

                     16                     17                     18
                      A                      A                      A
 Frequencies --    378.9606               405.4024               418.4202
 Red. masses --      2.7623                 2.3583                 2.9948
 Frc consts  --      0.2337                 0.2284                 0.3089
 IR Inten    --      0.5475                 1.9261                 0.3374

                     19                     20                     21
                      A                      A                      A
 Frequencies --    435.4094               443.2840               492.7864
 Red. masses --      3.0068                 4.6166                 3.0164
 Frc consts  --      0.3359                 0.5345                 0.4316
 IR Inten    --      1.7223                 2.2510                 8.5028

                     22                     23                     24
                      A                      A                      A
 Frequencies --    508.8128               562.3438               585.8500
 Red. masses --      2.8429                 2.8342                 2.2534
 Frc consts  --      0.4336                 0.5281                 0.4557
 IR Inten    --      4.2306                 9.3513                 3.8853

                     25                     26                     27
                      A                      A                      A
 Frequencies --    646.5651               663.7758               728.0435
 Red. masses --      3.5039                 5.2469                 3.1906
 Frc consts  --      0.8630                 1.3620                 0.9964
 IR Inten    --      6.1694                 0.8581                 1.0121

                     28                     29                     30
                      A                      A                      A
 Frequencies --    742.6342               815.8814               831.0157
 Red. masses --      2.6817                 2.2825                 3.2877
 Frc consts  --      0.8714                 0.8952                 1.3377
 IR Inten    --      6.3486                13.1294                15.6575

                     31                     32                     33
                      A                      A                      A
 Frequencies --    838.9784               847.4358               863.1023
 Red. masses --      1.7460                 1.7994                 1.5639
 Frc consts  --      0.7241                 0.7614                 0.6864
 IR Inten    --     67.6267                36.2588                14.1664

                     34                     35                     36
                      A                      A                      A
 Frequencies --    887.4642               924.1618               943.7500
 Red. masses --      1.8847                 1.6807                 1.7149
 Frc consts  --      0.8746                 0.8458                 0.8999
 IR Inten    --     57.6105               145.3267                11.5402

                     37                     38                     39
                      A                      A                      A
 Frequencies --    952.5022               971.0524               997.4371
 Red. masses --      1.3161                 1.2922                 2.4415
 Frc consts  --      0.7035                 0.7179                 1.4311
 IR Inten    --      1.2610                 1.3549                24.5193

                     40                     41                     42
                      A                      A                      A
 Frequencies --   1010.2448              1020.4697              1042.4742
 Red. masses --      2.1622                 1.4281                 2.0733
 Frc consts  --      1.3001                 0.8762                 1.3275
 IR Inten    --     21.2613                 2.2640                14.1447

                     43                     44                     45
                      A                      A                      A
 Frequencies --   1044.1292              1076.2206              1085.1259
 Red. masses --      2.9642                 1.5184                 1.8650
 Frc consts  --      1.9040                 1.0362                 1.2938
 IR Inten    --      2.7255                 9.0796                 4.6979

                     46                     47                     48
                      A                      A                      A
 Frequencies --   1094.9970              1119.6279              1138.5152
 Red. masses --      2.1455                 2.5339                 1.9373
 Frc consts  --      1.5157                 1.8715                 1.4795
 IR Inten    --      3.6709                 7.5643                 9.5824

                     49                     50                     51
                      A                      A                      A
 Frequencies --   1145.8231              1151.8143              1176.4689
 Red. masses --      2.3293                 1.5085                 1.7459
 Frc consts  --      1.8018                 1.1791                 1.4237
 IR Inten    --     37.6666                 7.2730                10.4040

                     52                     53                     54
                      A                      A                      A
 Frequencies --   1201.3897              1210.2297              1223.4708
 Red. masses --      1.8123                 1.7917                 1.2699
 Frc consts  --      1.5411                 1.5461                 1.1200
 IR Inten    --     30.0984                20.7168                11.4149

                     55                     56                     57
                      A                      A                      A
 Frequencies --   1228.9929              1242.6627              1250.0594
 Red. masses --      1.1781                 2.6029                 2.4630
 Frc consts  --      1.0484                 2.3682                 2.2677
 IR Inten    --      1.8501                 2.6435                 0.7147

                     58                     59                     60
                      A                      A                      A
 Frequencies --   1268.0450              1284.9568              1330.4809
 Red. masses --      1.7293                 1.7134                 1.5140
 Frc consts  --      1.6383                 1.6668                 1.5791
 IR Inten    --      3.2343                 3.3671                21.4187

                     61                     62                     63
                      A                      A                      A
 Frequencies --   1340.9093              1355.3965              1358.0382
 Red. masses --      1.4368                 2.7278                 1.3547
 Frc consts  --      1.5221                 2.9525                 1.4720
 IR Inten    --      7.1895                 1.3635                 1.6311

                     64                     65                     66
                      A                      A                      A
 Frequencies --   1364.6827              1380.9635              1406.7773
 Red. masses --      1.4824                 1.2997                 1.3850
 Frc consts  --      1.6266                 1.4603                 1.6149
 IR Inten    --      1.0493                 1.5990                 9.6566

                     67                     68                     69
                      A                      A                      A
 Frequencies --   1409.6070              1433.4803              1442.9689
 Red. masses --      1.3072                 1.4806                 1.2823
 Frc consts  --      1.5303                 1.7925                 1.5731
 IR Inten    --      8.8682                 2.4130                 1.5001

                     70                     71                     72
                      A                      A                      A
 Frequencies --   1443.4882              1469.2663              1483.3402
 Red. masses --      1.6895                 1.8817                 1.2012
 Frc consts  --      2.0742                 2.3934                 1.5572
 IR Inten    --      6.2754                 7.4832                 0.8856

                     73                     74                     75
                      A                      A                      A
 Frequencies --   1505.0564              1511.7063              1514.8912
 Red. masses --      1.0940                 1.1246                 1.0523
 Frc consts  --      1.4601                 1.5142                 1.4228
 IR Inten    --      6.0454                11.5817                14.0372

                     76                     77                     78
                      A                      A                      A
 Frequencies --   1518.5536              1522.6366              1523.7973
 Red. masses --      1.0487                 1.1152                 1.1283
 Frc consts  --      1.4248                 1.5234                 1.5435
 IR Inten    --      5.8124                 9.7505                31.2620

                     79                     80                     81
                      A                      A                      A
 Frequencies --   1534.8215              1536.8394              1569.9607
 Red. masses --      1.0948                 1.0692                 2.5105
 Frc consts  --      1.5195                 1.4879                 3.6458
 IR Inten    --      7.0944                 1.3707                15.8318

                     82                     83                     84
                      A                      A                      A
 Frequencies --   1633.8583              1679.6109              1700.8008
 Red. masses --      5.5400                 5.7944                 1.0881
 Frc consts  --      8.7134                 9.6310                 1.8544
 IR Inten    --      0.6595                 1.3208                29.2610

                     85                     86                     87
                      A                      A                      A
 Frequencies --   2891.8846              2926.2993              2938.7052
 Red. masses --      1.0728                 1.0684                 1.0636
 Frc consts  --      5.2861                 5.3904                 5.4119
 IR Inten    --     50.6160                35.3992               118.9050

                     88                     89                     90
                      A                      A                      A
 Frequencies --   3024.9967              3040.1995              3050.6946
 Red. masses --      1.0830                 1.0411                 1.0636
 Frc consts  --      5.8389                 5.6697                 5.8321
 IR Inten    --     31.8829                35.8817                36.3297

                     91                     92                     93
                      A                      A                      A
 Frequencies --   3056.3905              3068.0901              3069.9803
 Red. masses --      1.0880                 1.0828                 1.0854
 Frc consts  --      5.9883                 6.0054                 6.0272
 IR Inten    --     44.6035                52.8295                24.9757

                     94                     95                     96
                      A                      A                      A
 Frequencies --   3074.0195              3097.5809              3099.4488
 Red. masses --      1.0712                 1.0949                 1.1062
 Frc consts  --      5.9642                 6.1895                 6.2614
 IR Inten    --     72.0158                23.3288                32.9113

                     97                     98                     99
                      A                      A                      A
 Frequencies --   3117.5131              3125.0739              3175.2823
 Red. masses --      1.1040                 1.1027                 1.0875
 Frc consts  --      6.3215                 6.3451                 6.4602
 IR Inten    --     33.6651                16.3651                16.2094

                    100                    101                    102
                      A                      A                      A
 Frequencies --   3175.9698              3195.6561              3204.0642
 Red. masses --      1.0880                 1.0934                 1.0923
 Frc consts  --      6.4657                 6.5791                 6.6067
 IR Inten    --     19.5456                15.8998                15.5186

                    103                    104                    105
                      A                      A                      A
 Frequencies --   3460.5091              3469.3639              3552.3457
 Red. masses --      1.0727                 1.0495                 1.0916
 Frc consts  --      7.5687                 7.4428                 8.1159
 IR Inten    --      1.7859                 1.9581                 0.6118

 - Thermochemistry -
 -------------------
 Temperature   298.150 Kelvin.  Pressure   1.00000 Atm.
 Atom     1 has atomic number  6 and mass  12.00000

 Molecular mass:   219.17355 amu.
 Principal axes and moments of inertia in atomic units:
                           1         2         3
     Eigenvalues --  2187.546635910.201276163.21153
           X            0.99997   0.00620  -0.00379
           Y           -0.00618   0.99996   0.00569
           Z            0.00383  -0.00567   0.99998
 This molecule is an asymmetric top.
 Rotational symmetry number  1.
 Warning -- assumption of classical behavior for rotation
           may cause significant error
 Rotational temperatures (Kelvin)      0.03959     0.01465     0.01405
 Rotational constants (GHZ):           0.82501     0.30536     0.29282
 Zero-point vibrational energy     870324.0 (Joules/Mol)
                                  208.01243 (Kcal/Mol)
 Warning -- explicit consideration of  24 degrees of freedom as
           vibrations may cause significant error
 Vibrational temperatures:     34.87    49.50    64.66    93.37   172.29
          (Kelvin)            240.31   251.63   259.61   302.11   368.17
                              374.30   412.35   448.31   475.33   510.59
                              545.24   583.28   602.01   626.46   637.79
                              709.01   732.07   809.09   842.91   930.26
                              955.03  1047.49  1068.48  1173.87  1195.65
                             1207.10  1219.27  1241.81  1276.86  1329.66
                             1357.85  1370.44  1397.13  1435.09  1453.52
                             1468.23  1499.89  1502.27  1548.44  1561.25
                             1575.46  1610.89  1638.07  1648.58  1657.20
                             1692.68  1728.53  1741.25  1760.30  1768.25
                             1787.91  1798.56  1824.43  1848.77  1914.27
                             1929.27  1950.11  1953.91  1963.47  1986.90
                             2024.04  2028.11  2062.46  2076.11  2076.86
                             2113.95  2134.20  2165.44  2175.01  2179.59
                             2184.86  2190.73  2192.40  2208.27  2211.17
                             2258.82  2350.76  2416.59  2447.07  4160.78
                             4210.29  4228.14  4352.30  4374.17  4389.27
                             4397.46  4414.30  4417.02  4422.83  4456.73
                             4459.42  4485.41  4496.28  4568.52  4569.51
                             4597.84  4609.93  4978.90  4991.64  5111.03

 Zero-point correction=                           0.331489 (Hartree/Particle)
 Thermal correction to Energy=                    0.347234
 Thermal correction to Enthalpy=                  0.348178
 Thermal correction to Gibbs Free Energy=         0.287364
 Sum of electronic and zero-point Energies=           -672.002988
 Sum of electronic and thermal Energies=              -671.987244
 Sum of electronic and thermal Enthalpies=            -671.986299
 Sum of electronic and thermal Free Energies=         -672.047113

                     E (Thermal)             CV                S
                      KCal/Mol        Cal/Mol-Kelvin    Cal/Mol-Kelvin
 Total                  217.892             61.145            127.992
 Electronic               0.000              0.000              0.000
 Translational            0.889              2.981             42.057
 Rotational               0.889              2.981             32.744
 Vibrational            216.115             55.183             53.192
 Vibration     1          0.593              1.985              6.253
 Vibration     2          0.594              1.983              5.558
 Vibration     3          0.595              1.979              5.028
 Vibration     4          0.597              1.971              4.303
 Vibration     5          0.609              1.933              3.104
 Vibration     6          0.624              1.883              2.469
 Vibration     7          0.627              1.873              2.382
 Vibration     8          0.629              1.866              2.324
 Vibration     9          0.642              1.826              2.044
 Vibration    10          0.666              1.753              1.690
 Vibration    11          0.668              1.746              1.661
 Vibration    12          0.684              1.699              1.494
 Vibration    13          0.700              1.652              1.354
 Vibration    14          0.713              1.615              1.258
 Vibration    15          0.731              1.565              1.144
 Vibration    16          0.749              1.515              1.043
 Vibration    17          0.770              1.458              0.943
 Vibration    18          0.781              1.430              0.897
 Vibration    19          0.796              1.393              0.841
 Vibration    20          0.803              1.376              0.816
 Vibration    21          0.848              1.266              0.676
 Vibration    22          0.864              1.230              0.636
 Vibration    23          0.918              1.113              0.519
 Vibration    24          0.943              1.062              0.475

                           ! Non-Optimized Parameters !
 Normal termination of Gaussian 16 at Fri Dec 11 01:03:49 2020.

 ----------------------------------------------------------------------
 # B3LYP/6-311++G(d,p) empiricaldispersion=gd3bj scf=xqc pop=npa geom=c
 heck
 ----------------------------------------------------------------------

 ---------------------------------------
 CID_116941344_JID_6865_Energie_neutraal
 ---------------------------------------
 Structure from the checkpoint file:  "JID_6865.chk"
 Charge =  0 Multiplicity = 1

 SCF Done:  E(RB3LYP) =  -672.523829546     A.U. after   14 cycles
 Normal termination of Gaussian 16 at Fri Dec 11 01:09:38 2020.

 ----------------------------------------------------------------------
 # B3LYP/6-311++G(d,p) empiricaldispersion=gd3bj scf=xqc pop=npa geom=c
 heck
 ----------------------------------------------------------------------

 -------------------------------------
 CID_116941344_JID_6865_Energie_kation
 -------------------------------------
 Structure from the checkpoint file:  "JID_6865.chk"
 Charge =  1 Multiplicity = 2

 SCF Done:  E(UB3LYP) =  -672.245322201     A.U. after   23 cycles
 Normal termination of Gaussian 16 at Fri Dec 11 01:22:19 2020.
 Gaussian 16:  ES64L-G16RevA.03 25-Dec-2016

 ----------------------------------------------------------------------
 # B3LYP/6-311++G(d,p) empiricaldispersion=gd3bj scf=xqc pop=npa geom=c
 heck
 ----------------------------------------------------------------------

 ------------------------------------
 CID_116941344_JID_6865_Energie_anion
 ------------------------------------
 Structure from the checkpoint file:  "JID_6865.chk"
 Charge = -1 Multiplicity = 2

                         Standard orientation:
 ---------------------------------------------------------------------
 Center     Atomic      Atomic             Coordinates (Angstroms)
 Number     Number       Type             X           Y           Z
 ---------------------------------------------------------------------
      1          6           0       -4.594945   -1.651816   -0.349570
      2          6           0       -3.407669   -0.739145   -0.162428
      3          6           0       -2.781841   -0.132862   -1.257592
      4          6           0       -1.667727    0.687696   -1.091256
      5          6           0       -1.137053    0.933388    0.179852
      6          6           0       -1.773781    0.341408    1.278327
      7          6           0       -2.886239   -0.481670    1.109985
      8          6           0        0.107181    1.779083    0.394041
      9          6           0        1.397423    0.914942    0.486691
     10          6           0        1.738091    0.161821   -0.806780
     11          7           0        2.992754   -0.572921   -0.651785
     12          6           0        2.908910   -1.519125    0.457322
     13          6           0        2.554837   -0.784168    1.752698
     14          7           0        1.332734    0.016182    1.643864
     15          6           0        3.377023   -1.231997   -1.887893
     16          7           0        0.194110    2.864317   -0.592269
     17          1           0       -5.175175   -1.377040   -1.236650
     18          1           0       -4.278512   -2.695600   -0.478044
     19          1           0       -5.264334   -1.620202    0.516532
     20          1           0       -3.176551   -0.300451   -2.257121
     21          1           0       -1.225566    1.153315   -1.966453
     22          1           0       -1.394082    0.536672    2.277736
     23          1           0       -3.363575   -0.921173    1.982874
     24          1           0        0.010896    2.256539    1.375396
     25          1           0        2.226637    1.610085    0.682065
     26          1           0        1.862306    0.864765   -1.640317
     27          1           0        0.900072   -0.514995   -1.068762
     28          1           0        2.145732   -2.303373    0.262161
     29          1           0        3.876696   -2.026077    0.558309
     30          1           0        3.378519   -0.109466    2.016478
     31          1           0        2.434800   -1.500731    2.572971
     32          1           0        0.541209   -0.614831    1.510896
     33          1           0        4.343326   -1.730727   -1.754931
     34          1           0        2.642182   -1.991225   -2.222065
     35          1           0        3.481973   -0.488161   -2.685544
     36          1           0        0.981566    3.464153   -0.350069
     37          1           0        0.409426    2.490144   -1.514506
 ---------------------------------------------------------------------

 SCF Done:  E(UB3LYP) =  -672.510289092     A.U. after   33 cycles
 SCF Done:  E(UB3LYP) =  -672.510289092     a.u. after    1 cycles

 The electronic state is 2-A.
 Alpha  occ. eigenvalues --  -14.21238 -14.20521 -14.20254 -10.11205 -10.10358
 Alpha  occ. eigenvalues --  -10.10050 -10.09745 -10.09302 -10.09057 -10.09053
 Alpha  occ. eigenvalues --  -10.08656 -10.08050 -10.07990 -10.07944 -10.07872
 Alpha  occ. eigenvalues --  -10.07772  -0.85208  -0.81040  -0.79269  -0.76406
 Alpha  occ. eigenvalues --   -0.68972  -0.66984  -0.65389  -0.62130  -0.61296
 Alpha  occ. eigenvalues --   -0.57179  -0.54433  -0.51963  -0.51413  -0.48736
 Alpha  occ. eigenvalues --   -0.47548  -0.42078  -0.40278  -0.39207  -0.37482
 Alpha  occ. eigenvalues --   -0.36822  -0.36731  -0.36499  -0.36118  -0.35769
 Alpha  occ. eigenvalues --   -0.33086  -0.32772  -0.32131  -0.31887  -0.31135
 Alpha  occ. eigenvalues --   -0.29783  -0.29304  -0.28032  -0.27269  -0.27019
 Alpha  occ. eigenvalues --   -0.26022  -0.25496  -0.24816  -0.24508  -0.23512
 Alpha  occ. eigenvalues --   -0.16485  -0.15730  -0.14963  -0.13983  -0.12363
 Alpha  occ. eigenvalues --    0.04137
 Alpha virt. eigenvalues --    0.05836   0.06427   0.06789   0.07526   0.07570
 Alpha virt. eigenvalues --    0.07885   0.08086   0.09073   0.09272   0.09695
 Alpha virt. eigenvalues --    0.10198   0.10816   0.10983   0.11517   0.12190

  Beta  occ. eigenvalues --  -14.21229 -14.20517 -14.20223 -10.11199 -10.10352
  Beta  occ. eigenvalues --  -10.10040 -10.09728 -10.09281 -10.09053 -10.09028
  Beta  occ. eigenvalues --  -10.08656 -10.08044 -10.07979 -10.07931 -10.07859
  Beta  occ. eigenvalues --  -10.07743  -0.85188  -0.81009  -0.79238  -0.76388
  Beta  occ. eigenvalues --   -0.68946  -0.66958  -0.65367  -0.62095  -0.61255
  Beta  occ. eigenvalues --   -0.57137  -0.54387  -0.51926  -0.51380  -0.48694
  Beta  occ. eigenvalues --   -0.47520  -0.42045  -0.40243  -0.39174  -0.37450
  Beta  occ. eigenvalues --   -0.36784  -0.36698  -0.36465  -0.36092  -0.35743
  Beta  occ. eigenvalues --   -0.33057  -0.32747  -0.32097  -0.31861  -0.31108
  Beta  occ. eigenvalues --   -0.29752  -0.29271  -0.27993  -0.27245  -0.26987
  Beta  occ. eigenvalues --   -0.26001  -0.25475  -0.24790  -0.24486  -0.23487
  Beta  occ. eigenvalues --   -0.16468  -0.15703  -0.14951  -0.13950  -0.12321
  Beta virt. eigenvalues --    0.06088   0.06627   0.07000   0.07226   0.07597
  Beta virt. eigenvalues --    0.07843   0.08285   0.08518   0.09451   0.09511
  Beta virt. eigenvalues --    0.10102   0.10454   0.11132   0.11275   0.11767

 Mulliken charges and spin densities:
               1          2
     1  C    2.362725  -3.013608
     2  C    0.229541   0.093714
     3  C   -0.535115  -0.044948
     4  C   -0.603493   0.337845
     5  C    0.902572  -0.217300
     6  C   -1.041747   0.775088
     7  C   -0.541332   0.108346
     8  C    0.590138  -0.787280
     9  C   -0.139146   0.090013
    10  C   -0.928665  -0.053386
    11  N    0.020358   0.146867
    12  C    0.116272  -0.362950
    13  C   -0.124811  -0.219762
    14  N   -0.157296   0.059665
    15  C    0.513190  -0.776462
    16  N   -0.381937   0.006563
    17  H   -0.091551   0.229261
    18  H   -0.125991   0.302236
    19  H   -0.068327   0.201391
    20  H   -0.457856   0.643760
    21  H   -0.307683   0.442330
    22  H   -0.006286   0.159283
    23  H   -0.384864   0.564526
    24  H    0.216277   0.049276
    25  H    0.102694   0.101475
    26  H   -0.094601   0.257360
    27  H    0.702951  -0.527772
    28  H   -0.012384   0.106709
    29  H   -0.218952   0.378548
    30  H    0.088745   0.045709
    31  H   -0.154653   0.335369
    32  H    0.362975  -0.103417
    33  H   -0.189865   0.315172
    34  H   -0.203147   0.316977
    35  H   -0.396471   0.523181
    36  H   -0.032310   0.282455
    37  H   -0.009957   0.233767
 Sum of Mulliken charges =  -1.00000   1.00000

 Dipole moment (field-independent basis, Debye):
    X=              0.2691    Y=              0.6071    Z=              3.4834  Tot=              3.5461
 Quadrupole moment (field-independent basis, Debye-Ang):
   XX=           -179.8053   YY=           -146.9179   ZZ=           -144.8736
   XY=             -0.0652   XZ=              4.9010   YZ=              3.7668

 Summary of Natural Population Analysis:

                                       Natural Population
                Natural  -----------------------------------------------
    Atom  No    Charge         Core      Valence    Rydberg      Total
 -----------------------------------------------------------------------
      C    1   -0.29073      0.99964     2.28615    0.00494     3.29073
      C    2   -0.01994      0.99951     2.01037    0.01005     3.01994
      C    3   -0.09673      0.99951     2.08745    0.00976     3.09673
      C    4   -0.09398      0.99951     2.08476    0.00971     3.09398
      C    5   -0.01991      0.99949     2.00852    0.01191     3.01991
      C    6   -0.10390      0.99952     2.09507    0.00932     3.10390
      C    7   -0.10006      0.99951     2.09073    0.00981     3.10006
      C    8   -0.01874      0.99953     2.00514    0.01407     3.01874
      C    9   -0.01281      0.99956     1.99961    0.01365     3.01281
      C   10   -0.10010      0.99958     2.08762    0.01290     3.10010
      N   11   -0.27885      0.99972     2.76642    0.01271     3.77885
      C   12   -0.09267      0.99961     2.08227    0.01079     3.09267
      C   13   -0.09074      0.99962     2.07960    0.01152     3.09074
      N   14   -0.34133      0.99975     2.83019    0.01140     3.84133
      C   15   -0.17521      0.99965     2.16698    0.00858     3.17521
      N   16   -0.41537      0.99977     2.90578    0.00982     3.91537
      H   17    0.10265      0.00000     0.39618    0.00117     0.39735
      H   18    0.10550      0.00000     0.39316    0.00133     0.39450
      H   19    0.10180      0.00000     0.39707    0.00114     0.39820
      H   20    0.10024      0.00000     0.39866    0.00110     0.39976
      H   21    0.10224      0.00000     0.39595    0.00182     0.39776
      H   22    0.10388      0.00000     0.39455    0.00157     0.39612
      H   23    0.09936      0.00000     0.39966    0.00098     0.40064
      H   24    0.09959      0.00000     0.39861    0.00180     0.40041
      H   25    0.09352      0.00000     0.40425    0.00222     0.40648
      H   26    0.09853      0.00000     0.39903    0.00244     0.40147
      H   27    0.08494      0.00000     0.41273    0.00233     0.41506
      H   28    0.07794      0.00000     0.42031    0.00175     0.42206
      H   29    0.09724      0.00000     0.40124    0.00152     0.40276
      H   30    0.09147      0.00000     0.40713    0.00139     0.40853
      H   31    0.09470      0.00000     0.40454    0.00076     0.40530
      H   32    0.17487      0.00000     0.32178    0.00336     0.32513
      H   33    0.09466      0.00000     0.40404    0.00130     0.40534
      H   34    0.08111      0.00000     0.41748    0.00141     0.41889
      H   35    0.09753      0.00000     0.40110    0.00137     0.40247
      H   36    0.17548      0.00000     0.32292    0.00160     0.32452
      H   37    0.17383      0.00000     0.32388    0.00229     0.32617
 =======================================================================
   * Total *    0.00000     15.99346    43.80094    0.20560    60.00000

 Normal termination of Gaussian 16 at Fri Dec 11 01:40:13 2020.
