 Gaussian 16, Revision A.03,

 -----------------------------------------------------------
 # opt freq B3LYP/6-31G(d) empiricaldispersion=gd3bj scf=xqc
 -----------------------------------------------------------

 ------------------------------
 CID_76990839_JID_9653_neutraal
 ------------------------------
 Symbolic Z-matrix:
 Charge =  0 Multiplicity = 1

 SCF Done:  E(RB3LYP) =  -789.265307253     A.U. after   14 cycles
 SCF Done:  E(RB3LYP) =  -789.270099209     A.U. after   12 cycles
 SCF Done:  E(RB3LYP) =  -789.270391223     A.U. after   12 cycles
 SCF Done:  E(RB3LYP) =  -789.270603457     A.U. after   11 cycles
 SCF Done:  E(RB3LYP) =  -789.270743077     A.U. after   10 cycles
 SCF Done:  E(RB3LYP) =  -789.271375918     A.U. after   12 cycles
 SCF Done:  E(RB3LYP) =  -789.271754379     A.U. after   11 cycles
 SCF Done:  E(RB3LYP) =  -789.272323425     A.U. after   12 cycles
 SCF Done:  E(RB3LYP) =  -789.272138309     A.U. after   12 cycles
 SCF Done:  E(RB3LYP) =  -789.272417653     A.U. after   12 cycles
 SCF Done:  E(RB3LYP) =  -789.272500103     A.U. after    9 cycles
 SCF Done:  E(RB3LYP) =  -789.272500740     A.U. after    9 cycles
 SCF Done:  E(RB3LYP) =  -789.272501701     A.U. after    9 cycles
 SCF Done:  E(RB3LYP) =  -789.272502518     A.U. after    9 cycles
 SCF Done:  E(RB3LYP) =  -789.272502721     A.U. after    9 cycles
 SCF Done:  E(RB3LYP) =  -789.272502720     A.U. after    7 cycles
 Optimization completed.
    -- Stationary point found.
 Normal termination of Gaussian 16 at Sat Dec 12 10:15:46 2020.

 --------------------------------------------------------------------
 #N Geom=AllCheck Guess=TCheck SCRF=Check GenChk RB3LYP/6-31G(d) Freq
 --------------------------------------------------------------------

 Structure from the checkpoint file:  "JID_9653.chk"
 ------------------------------
 CID_76990839_JID_9653_neutraal
 ------------------------------
 Charge =  0 Multiplicity = 1

 SCF Done:  E(RB3LYP) =  -789.272502720     A.U. after    1 cycles

  Exact polarizability: 253.924 -27.277 177.310   3.541 -13.157 144.006
 Approx polarizability: 339.855 -56.711 285.239  14.888 -30.899 239.081

                      1                      2                      3
                      A                      A                      A
 Frequencies --     12.5629                15.8918                29.7462
 Red. masses --      3.6936                 4.9559                 4.3470
 Frc consts  --      0.0003                 0.0007                 0.0023
 IR Inten    --      0.0175                 0.1535                 0.0634

                      4                      5                      6
                      A                      A                      A
 Frequencies --     37.4071                79.8772                80.5840
 Red. masses --      1.0575                 3.9622                 2.8058
 Frc consts  --      0.0009                 0.0149                 0.0107
 IR Inten    --      0.1206                 1.0064                 0.7518

                      7                      8                      9
                      A                      A                      A
 Frequencies --     88.5350               125.5977               156.7530
 Red. masses --      2.8559                 4.1860                 3.3953
 Frc consts  --      0.0132                 0.0389                 0.0492
 IR Inten    --      0.5779                 1.2330                 0.7022

                     10                     11                     12
                      A                      A                      A
 Frequencies --    163.5259               179.8183               217.1056
 Red. masses --      3.8156                 2.2337                 3.1365
 Frc consts  --      0.0601                 0.0426                 0.0871
 IR Inten    --      1.2806                10.3447                 3.2909

                     13                     14                     15
                      A                      A                      A
 Frequencies --    270.6509               274.5256               290.9986
 Red. masses --      3.1534                 1.9256                 1.8771
 Frc consts  --      0.1361                 0.0855                 0.0937
 IR Inten    --      3.9139                21.4787                32.7540

                     16                     17                     18
                      A                      A                      A
 Frequencies --    344.8027               365.5390               366.7547
 Red. masses --      3.5577                 4.1278                 3.5359
 Frc consts  --      0.2492                 0.3250                 0.2802
 IR Inten    --      3.2240                 4.5294                 3.5748

                     19                     20                     21
                      A                      A                      A
 Frequencies --    399.4143               413.2841               453.6721
 Red. masses --      3.6610                 2.9634                 3.1267
 Frc consts  --      0.3441                 0.2982                 0.3792
 IR Inten    --      5.0234                 0.0397                 1.9245

                     22                     23                     24
                      A                      A                      A
 Frequencies --    463.0780               483.5026               533.4669
 Red. masses --      4.9643                 3.0365                 3.9432
 Frc consts  --      0.6272                 0.4182                 0.6612
 IR Inten    --      3.8231                 3.8428                 6.1108

                     25                     26                     27
                      A                      A                      A
 Frequencies --    564.0576               581.3979               616.0747
 Red. masses --      3.5810                 3.5390                 3.9289
 Frc consts  --      0.6713                 0.7048                 0.8786
 IR Inten    --      8.1984                 3.3978                 1.5907

                     28                     29                     30
                      A                      A                      A
 Frequencies --    629.3348               637.0171               703.7110
 Red. masses --      5.3336                 6.2303                 1.9878
 Frc consts  --      1.2446                 1.4896                 0.5800
 IR Inten    --      4.1629                 0.1596                13.8378

                     31                     32                     33
                      A                      A                      A
 Frequencies --    718.1514               723.4548               758.5579
 Red. masses --      4.9305                 3.4222                 1.6290
 Frc consts  --      1.4982                 1.0553                 0.5523
 IR Inten    --      6.4252                 0.3016                45.6592

                     34                     35                     36
                      A                      A                      A
 Frequencies --    782.9383               811.8812               835.8591
 Red. masses --      3.8350                 1.4604                 2.0347
 Frc consts  --      1.3851                 0.5671                 0.8376
 IR Inten    --      2.9349                32.7586                 2.9846

                     37                     38                     39
                      A                      A                      A
 Frequencies --    851.6381               859.5552               883.6493
 Red. masses --      1.6684                 2.1091                 1.2916
 Frc consts  --      0.7129                 0.9181                 0.5942
 IR Inten    --      0.7021                 3.8400                91.5469

                     40                     41                     42
                      A                      A                      A
 Frequencies --    920.2326               924.9736               936.3208
 Red. masses --      1.2567                 1.4602                 1.5138
 Frc consts  --      0.6270                 0.7361                 0.7819
 IR Inten    --      3.8709                 1.0722                10.7996

                     43                     44                     45
                      A                      A                      A
 Frequencies --    944.9956               963.2063               991.6942
 Red. masses --      2.3981                 1.3511                 1.2466
 Frc consts  --      1.2618                 0.7385                 0.7223
 IR Inten    --      2.6250                 0.0444                 1.8399

                     46                     47                     48
                      A                      A                      A
 Frequencies --   1013.1932              1018.4049              1018.8817
 Red. masses --      1.7592                 1.6912                 1.8500
 Frc consts  --      1.0640                 1.0334                 1.1315
 IR Inten    --      0.3998                 1.9496                32.0303

                     49                     50                     51
                      A                      A                      A
 Frequencies --   1021.5563              1040.5052              1058.6294
 Red. masses --      2.3802                 1.8367                 3.5769
 Frc consts  --      1.4635                 1.1716                 2.3618
 IR Inten    --     38.1727                46.6839                30.1691

                     52                     53                     54
                      A                      A                      A
 Frequencies --   1063.6222              1074.7111              1077.3664
 Red. masses --      2.3539                 2.4250                 1.5365
 Frc consts  --      1.5690                 1.6502                 1.0508
 IR Inten    --     11.9689                38.2559                 3.6041

                     55                     56                     57
                      A                      A                      A
 Frequencies --   1109.1295              1129.4678              1156.1095
 Red. masses --      2.0314                 2.1203                 2.2239
 Frc consts  --      1.4723                 1.5936                 1.7513
 IR Inten    --      9.9960                10.6533                53.4663

                     58                     59                     60
                      A                      A                      A
 Frequencies --   1185.7939              1194.7333              1198.5572
 Red. masses --      1.3156                 1.0964                 1.3642
 Frc consts  --      1.0899                 0.9221                 1.1546
 IR Inten    --     13.2833                 0.1246                 0.0448

                     61                     62                     63
                      A                      A                      A
 Frequencies --   1218.4256              1246.7928              1249.2771
 Red. masses --      1.1451                 1.8250                 1.9956
 Frc consts  --      1.0016                 1.6715                 1.8350
 IR Inten    --      1.1778                59.4383                90.9687

                     64                     65                     66
                      A                      A                      A
 Frequencies --   1269.5157              1283.4025              1316.7093
 Red. masses --      1.9074                 2.0614                 1.5026
 Frc consts  --      1.8112                 2.0005                 1.5348
 IR Inten    --     48.2612               111.3832                 7.1671

                     67                     68                     69
                      A                      A                      A
 Frequencies --   1328.5085              1340.1319              1341.9834
 Red. masses --      1.7270                 1.3126                 1.8322
 Frc consts  --      1.7959                 1.3890                 1.9441
 IR Inten    --     17.0085                20.6813                 2.5449

                     70                     71                     72
                      A                      A                      A
 Frequencies --   1369.9756              1374.6898              1384.2385
 Red. masses --      2.9215                 2.1104                 1.4863
 Frc consts  --      3.2306                 2.3498                 1.6780
 IR Inten    --     23.7940                10.7416                12.3745

                     73                     74                     75
                      A                      A                      A
 Frequencies --   1420.6139              1439.9207              1445.7816
 Red. masses --      1.3896                 1.4072                 1.3932
 Frc consts  --      1.6523                 1.7191                 1.7158
 IR Inten    --     36.0854                18.3689                12.1293

                     76                     77                     78
                      A                      A                      A
 Frequencies --   1468.6603              1500.6138              1515.2491
 Red. masses --      2.9409                 2.2404                 1.0448
 Frc consts  --      3.7375                 2.9724                 1.4133
 IR Inten    --      0.5825                 7.9645                 4.5343

                     79                     80                     81
                      A                      A                      A
 Frequencies --   1521.0261              1528.0222              1530.9595
 Red. masses --      1.0938                 1.0931                 1.1294
 Frc consts  --      1.4909                 1.5037                 1.5597
 IR Inten    --      4.3994                 7.2321                 9.1759

                     82                     83                     84
                      A                      A                      A
 Frequencies --   1548.2142              1549.7130              1639.2432
 Red. masses --      2.6266                 2.3377                 5.2366
 Frc consts  --      3.7094                 3.3078                 8.2906
 IR Inten    --    135.4447                27.9008                 2.3910

                     85                     86                     87
                      A                      A                      A
 Frequencies --   1648.1345              1665.7437              1672.4260
 Red. masses --      6.3106                 5.5027                 5.3160
 Frc consts  --     10.0996                 8.9959                 8.7605
 IR Inten    --      5.6747                 3.0936                18.2995

                     88                     89                     90
                      A                      A                      A
 Frequencies --   1693.3475              1734.3435              2989.4470
 Red. masses --      1.1169                 5.7689                 1.0715
 Frc consts  --      1.8869                10.2239                 5.6419
 IR Inten    --     39.9208                 8.3918                50.2075

                     91                     92                     93
                      A                      A                      A
 Frequencies --   3032.1688              3039.0516              3044.7784
 Red. masses --      1.0607                 1.0375                 1.0894
 Frc consts  --      5.7460                 5.6454                 5.9504
 IR Inten    --     47.8292                46.9243                27.4521

                     94                     95                     96
                      A                      A                      A
 Frequencies --   3079.3930              3089.1931              3119.4620
 Red. masses --      1.1030                 1.1007                 1.1008
 Frc consts  --      6.1627                 6.1888                 6.3112
 IR Inten    --     21.9877                24.3831                19.6303

                     97                     98                     99
                      A                      A                      A
 Frequencies --   3133.3142              3178.2183              3178.5565
 Red. masses --      1.0882                 1.0874                 1.0878
 Frc consts  --      6.2946                 6.4714                 6.4751
 IR Inten    --     19.6092                 2.1996                18.3128

                    100                    101                    102
                      A                      A                      A
 Frequencies --   3179.9477              3187.0366              3196.5901
 Red. masses --      1.0896                 1.0866                 1.0907
 Frc consts  --      6.4917                 6.5030                 6.5665
 IR Inten    --     18.3394                 0.9765                16.1681

                    103                    104                    105
                      A                      A                      A
 Frequencies --   3202.4951              3206.2381              3213.9686
 Red. masses --      1.0894                 1.0931                 1.0975
 Frc consts  --      6.5826                 6.6204                 6.6795
 IR Inten    --      4.3910                36.2183                19.2350

                    106                    107                    108
                      A                      A                      A
 Frequencies --   3248.6378              3465.6287              3553.3978
 Red. masses --      1.0905                 1.0505                 1.0919
 Frc consts  --      6.7807                 7.4336                 8.1228
 IR Inten    --     12.7711                 1.6884                 0.6769

 - Thermochemistry -
 -------------------
 Temperature   298.150 Kelvin.  Pressure   1.00000 Atm.
 Atom     1 has atomic number  6 and mass  12.00000

 Molecular mass:   253.14666 amu.
 Principal axes and moments of inertia in atomic units:
                           1         2         3
     Eigenvalues --  2648.94649********************
           X            1.00000   0.00087   0.00267
           Y           -0.00084   0.99994  -0.01077
           Z           -0.00268   0.01077   0.99994
 This molecule is an asymmetric top.
 Rotational symmetry number  1.
 Warning -- assumption of classical behavior for rotation
           may cause significant error
 Rotational temperatures (Kelvin)      0.03270     0.00729     0.00659
 Rotational constants (GHZ):           0.68131     0.15180     0.13730
 Zero-point vibrational energy     845937.1 (Joules/Mol)
                                  202.18383 (Kcal/Mol)
 Warning -- explicit consideration of  27 degrees of freedom as
           vibrations may cause significant error
 Vibrational temperatures:     18.08    22.86    42.80    53.82   114.93
          (Kelvin)            115.94   127.38   180.71   225.53   235.28
                              258.72   312.37   389.41   394.98   418.68
                              496.09   525.93   527.68   574.67   594.62
                              652.73   666.27   695.65   767.54   811.55
                              836.50   886.39   905.47   916.53  1012.48
                             1033.26  1040.89  1091.40  1126.47  1168.12
                             1202.61  1225.32  1236.71  1271.37  1324.01
                             1330.83  1347.16  1359.64  1385.84  1426.83
                             1457.76  1465.26  1465.94  1469.79  1497.05
                             1523.13  1530.32  1546.27  1550.09  1595.79
                             1625.05  1663.38  1706.09  1718.95  1724.46
                             1753.04  1793.86  1797.43  1826.55  1846.53
                             1894.45  1911.43  1928.15  1930.81  1971.09
                             1977.87  1991.61  2043.95  2071.72  2080.16
                             2113.07  2159.05  2180.11  2188.42  2198.48
                             2202.71  2227.53  2229.69  2358.51  2371.30
                             2396.63  2406.25  2436.35  2495.33  4301.15
                             4362.61  4372.52  4380.76  4430.56  4444.66
                             4488.21  4508.14  4572.75  4573.23  4575.24
                             4585.43  4599.18  4607.68  4613.06  4624.18
                             4674.07  4986.27  5112.55

 Zero-point correction=                           0.322200 (Hartree/Particle)
 Thermal correction to Energy=                    0.340406
 Thermal correction to Enthalpy=                  0.341350
 Thermal correction to Gibbs Free Energy=         0.272006
 Sum of electronic and zero-point Energies=           -788.950302
 Sum of electronic and thermal Energies=              -788.932097
 Sum of electronic and thermal Enthalpies=            -788.931153
 Sum of electronic and thermal Free Energies=         -789.000497

                     E (Thermal)             CV                S
                      KCal/Mol        Cal/Mol-Kelvin    Cal/Mol-Kelvin
 Total                  213.608             68.679            145.947
 Electronic               0.000              0.000              0.000
 Translational            0.889              2.981             42.487
 Rotational               0.889              2.981             34.381
 Vibrational            211.830             62.717             69.079
 Vibration     1          0.593              1.987              7.558
 Vibration     2          0.593              1.986              7.091
 Vibration     3          0.594              1.984              5.846
 Vibration     4          0.594              1.982              5.392
 Vibration     5          0.600              1.963              3.894
 Vibration     6          0.600              1.962              3.877
 Vibration     7          0.601              1.957              3.692
 Vibration     8          0.611              1.927              3.012
 Vibration     9          0.620              1.895              2.589
 Vibration    10          0.623              1.887              2.509
 Vibration    11          0.629              1.867              2.330
 Vibration    12          0.646              1.815              1.983
 Vibration    13          0.674              1.727              1.592
 Vibration    14          0.677              1.720              1.568
 Vibration    15          0.687              1.690              1.468
 Vibration    16          0.723              1.586              1.190
 Vibration    17          0.739              1.543              1.098
 Vibration    18          0.740              1.541              1.093
 Vibration    19          0.765              1.471              0.965
 Vibration    20          0.777              1.441              0.915
 Vibration    21          0.812              1.353              0.785
 Vibration    22          0.821              1.332              0.757
 Vibration    23          0.840              1.287              0.701
 Vibration    24          0.888              1.176              0.580
 Vibration    25          0.920              1.109              0.516
 Vibration    26          0.938              1.072              0.483
 Vibration    27          0.976              0.998              0.423

 Optimization completed.
    -- Stationary point found.
 Normal termination of Gaussian 16 at Sat Dec 12 10:32:02 2020.

 ----------------------------------------------------------------------
 # B3LYP/6-311++G(d,p) empiricaldispersion=gd3bj scf=xqc pop=npa geom=c
 heck
 ----------------------------------------------------------------------

 --------------------------------------
 CID_76990839_JID_9653_Energie_neutraal
 --------------------------------------
 Structure from the checkpoint file:  "JID_9653.chk"
 Charge =  0 Multiplicity = 1

 SCF Done:  E(RB3LYP) =  -789.487462987     A.U. after   14 cycles
 Normal termination of Gaussian 16 at Sat Dec 12 10:39:21 2020.

 ----------------------------------------------------------------------
 # B3LYP/6-311++G(d,p) empiricaldispersion=gd3bj scf=xqc pop=npa geom=c
 heck
 ----------------------------------------------------------------------

 ------------------------------------
 CID_76990839_JID_9653_Energie_kation
 ------------------------------------
 Structure from the checkpoint file:  "JID_9653.chk"
 Charge =  1 Multiplicity = 2

 SCF Done:  E(UB3LYP) =  -789.215823126     A.U. after   25 cycles
 Normal termination of Gaussian 16 at Sat Dec 12 10:57:51 2020.
 Gaussian 16:  ES64L-G16RevA.03 25-Dec-2016

 ----------------------------------------------------------------------
 # B3LYP/6-311++G(d,p) empiricaldispersion=gd3bj scf=xqc pop=npa geom=c
 heck
 ----------------------------------------------------------------------

 -----------------------------------
 CID_76990839_JID_9653_Energie_anion
 -----------------------------------
 Structure from the checkpoint file:  "JID_9653.chk"
 Charge = -1 Multiplicity = 2

                         Standard orientation:
 ---------------------------------------------------------------------
 Center     Atomic      Atomic             Coordinates (Angstroms)
 Number     Number       Type             X           Y           Z
 ---------------------------------------------------------------------
      1          6           0        3.820449    3.290556    0.322131
      2          6           0        3.103173    1.990897    0.047245
      3          6           0        3.658185    0.769424    0.458834
      4          6           0        3.028565   -0.447780    0.221256
      5          6           0        1.786001   -0.445929   -0.444028
      6          6           0        1.213041    0.754335   -0.860931
      7          6           0        1.877531    1.959891   -0.613954
      8          8           0        1.230177   -1.688330   -0.637620
      9          6           0       -0.012552   -1.794417   -1.330316
     10          6           0       -1.185747   -1.370601   -0.496009
     11          6           0       -2.196103   -0.623979   -0.960811
     12          6           0       -3.405054   -0.206295   -0.241275
     13          6           0       -4.316658    0.645517   -0.886248
     14          6           0       -5.475102    1.080386   -0.245635
     15          6           0       -5.747224    0.669094    1.058700
     16          6           0       -4.851469   -0.181340    1.713440
     17          6           0       -3.696589   -0.615744    1.072205
     18          6           0        3.635872   -1.765224    0.655413
     19          7           0        5.036635   -1.616010    1.064885
     20          1           0        4.008440    3.426634    1.394313
     21          1           0        4.795497    3.326874   -0.180318
     22          1           0        3.236052    4.148642   -0.025308
     23          1           0        4.606036    0.752609    0.988600
     24          1           0        0.248859    0.769503   -1.351109
     25          1           0        1.417716    2.889557   -0.940601
     26          1           0        0.021445   -1.241463   -2.279204
     27          1           0       -0.082533   -2.862223   -1.569130
     28          1           0       -1.177113   -1.740292    0.527481
     29          1           0       -2.134197   -0.268192   -1.990744
     30          1           0       -4.107449    0.970089   -1.902762
     31          1           0       -6.164112    1.740121   -0.765503
     32          1           0       -6.649130    1.004880    1.562267
     33          1           0       -5.057095   -0.508757    2.728786
     34          1           0       -3.015631   -1.280686    1.594332
     35          1           0        3.076764   -2.151533    1.518785
     36          1           0        3.479654   -2.501382   -0.149566
     37          1           0        5.376877   -2.506977    1.420747
     38          1           0        5.604149   -1.401437    0.245601
 ---------------------------------------------------------------------

 SCF Done:  E(UB3LYP) =  -789.487518072     A.U. after   32 cycles

 The electronic state is 2-A.
 Alpha  occ. eigenvalues --  -19.03991 -14.19954 -10.12550 -10.11334 -10.09587
 Alpha  occ. eigenvalues --  -10.08038 -10.07629 -10.07415 -10.07011 -10.06531
 Alpha  occ. eigenvalues --  -10.06466 -10.05253 -10.04940 -10.04702 -10.04627
 Alpha  occ. eigenvalues --  -10.04108 -10.04003 -10.03667 -10.02856  -0.95456
 Alpha  occ. eigenvalues --   -0.79237  -0.75226  -0.73271  -0.68530  -0.66692
 Alpha  occ. eigenvalues --   -0.65229  -0.62819  -0.62235  -0.59276  -0.56761
 Alpha  occ. eigenvalues --   -0.55350  -0.50033  -0.48738  -0.47903  -0.46720
 Alpha  occ. eigenvalues --   -0.43445  -0.42494  -0.39898  -0.39226  -0.38882
 Alpha  occ. eigenvalues --   -0.35706  -0.35116  -0.34631  -0.33591  -0.33413
 Alpha  occ. eigenvalues --   -0.33094  -0.32470  -0.31775  -0.30991  -0.30231
 Alpha  occ. eigenvalues --   -0.29931  -0.29246  -0.28719  -0.26568  -0.25752
 Alpha  occ. eigenvalues --   -0.25386  -0.24891  -0.24397  -0.22847  -0.21791
 Alpha  occ. eigenvalues --   -0.21474  -0.20452  -0.17749  -0.15581  -0.14377
 Alpha  occ. eigenvalues --   -0.13602  -0.11394  -0.10350   0.04229
 Alpha virt. eigenvalues --    0.05588   0.06924   0.07814   0.08357   0.08543
 Alpha virt. eigenvalues --    0.08927   0.09325   0.09523   0.09826   0.10085
 Alpha virt. eigenvalues --    0.10557   0.10695   0.10939   0.11432   0.11767

  Beta  occ. eigenvalues --  -19.03953 -14.19922 -10.12549 -10.11355 -10.09570
  Beta  occ. eigenvalues --  -10.08036 -10.07631 -10.07409 -10.06997 -10.06534
  Beta  occ. eigenvalues --  -10.06456 -10.05318 -10.04919 -10.04661 -10.04494
  Beta  occ. eigenvalues --  -10.03878 -10.03850 -10.03568 -10.02541  -0.95381
  Beta  occ. eigenvalues --   -0.79186  -0.75201  -0.72998  -0.68373  -0.66382
  Beta  occ. eigenvalues --   -0.65196  -0.62553  -0.62018  -0.59135  -0.56675
  Beta  occ. eigenvalues --   -0.55226  -0.49744  -0.48593  -0.47772  -0.46632
  Beta  occ. eigenvalues --   -0.43120  -0.42421  -0.39846  -0.39153  -0.38791
  Beta  occ. eigenvalues --   -0.35661  -0.34997  -0.34478  -0.33518  -0.33301
  Beta  occ. eigenvalues --   -0.33079  -0.32390  -0.31702  -0.30912  -0.30109
  Beta  occ. eigenvalues --   -0.29883  -0.29195  -0.28658  -0.26497  -0.25702
  Beta  occ. eigenvalues --   -0.25065  -0.24425  -0.24273  -0.22745  -0.21723
  Beta  occ. eigenvalues --   -0.21398  -0.20307  -0.16530  -0.15519  -0.14316
  Beta  occ. eigenvalues --   -0.13035  -0.11338  -0.08907
  Beta virt. eigenvalues --    0.06239   0.06995   0.07767   0.08295   0.08514
  Beta virt. eigenvalues --    0.08831   0.08973   0.09434   0.09584   0.09892
  Beta virt. eigenvalues --    0.10144   0.10644   0.10807   0.10979   0.11427

 Mulliken charges and spin densities:
               1          2
     1  C   -0.323453  -0.123030
     2  C    0.761629  -0.090775
     3  C    0.271381  -0.179981
     4  C   -0.427443   0.479764
     5  C   -0.474785   0.196427
     6  C    0.216151  -0.236712
     7  C   -1.226307   0.039730
     8  O   -0.046009   0.014791
     9  C   -0.517473  -0.013578
    10  C    0.245772   0.261930
    11  C   -0.056678   0.033214
    12  C    1.034690   0.068576
    13  C    0.023008   0.041823
    14  C   -0.477266   0.022340
    15  C   -0.383482   0.183674
    16  C   -0.337203  -0.038269
    17  C   -0.990605   0.153874
    18  C    0.543530  -0.908145
    19  N   -0.412542   0.034604
    20  H    0.134613   0.010786
    21  H    0.119562   0.026777
    22  H    0.140125  -0.004541
    23  H    0.165721   0.010680
    24  H    0.101801  -0.015948
    25  H    0.115596   0.003832
    26  H    0.132048  -0.002441
    27  H    0.071690   0.115614
    28  H    0.170252  -0.035962
    29  H    0.082132  -0.007834
    30  H    0.104342   0.002542
    31  H    0.112757  -0.002292
    32  H    0.098934  -0.014563
    33  H    0.134631   0.003692
    34  H    0.049060  -0.006924
    35  H    0.048004   0.147083
    36  H   -0.127088   0.296438
    37  H   -0.094867   0.346232
    38  H    0.017771   0.186571
 Sum of Mulliken charges =  -1.00000   1.00000

 Dipole moment (field-independent basis, Debye):
    X=              1.1691    Y=              3.0740    Z=             -1.8506  Tot=              3.7737
 Quadrupole moment (field-independent basis, Debye-Ang):
   XX=           -212.8760   YY=           -138.1966   ZZ=           -128.6467
   XY=             12.1820   XZ=             -4.3991   YZ=             -1.5742

 Summary of Natural Population Analysis:

                                       Natural Population
                Natural  -----------------------------------------------
    Atom  No    Charge         Core      Valence    Rydberg      Total
 -----------------------------------------------------------------------
      C    1   -0.28881      0.99964     2.28434    0.00482     3.28881
      C    2   -0.03622      0.99952     2.02900    0.00771     3.03622
      C    3   -0.10177      0.99948     2.09272    0.00957     3.10177
      C    4   -0.03334      0.99947     2.02437    0.00950     3.03334
      C    5    0.16509      0.99933     1.82287    0.01272     2.83491
      C    6   -0.13767      0.99952     2.12908    0.00906     3.13767
      C    7   -0.09559      0.99953     2.08847    0.00760     3.09559
      O    8   -0.27643      0.99986     3.26717    0.00940     4.27643
      C    9   -0.02556      0.99955     2.01267    0.01333     3.02556
      C   10   -0.04674      0.99952     2.04003    0.00718     3.04674
      C   11   -0.08550      0.99951     2.07773    0.00827     3.08550
      C   12   -0.01387      0.99951     2.00533    0.00903     3.01387
      C   13   -0.08889      0.99954     2.08100    0.00834     3.08889
      C   14   -0.10887      0.99957     2.09979    0.00951     3.10887
      C   15   -0.07380      0.99957     2.06425    0.00997     3.07380
      C   16   -0.11941      0.99958     2.11055    0.00929     3.11941
      C   17   -0.06502      0.99953     2.05741    0.00808     3.06502
      C   18   -0.09651      0.99960     2.08464    0.01228     3.09651
      N   19   -0.42330      0.99978     2.91329    0.01023     3.92330
      H   20    0.10012      0.00000     0.39876    0.00112     0.39988
      H   21    0.09867      0.00000     0.40011    0.00122     0.40133
      H   22    0.09795      0.00000     0.40124    0.00081     0.40205
      H   23    0.10706      0.00000     0.39165    0.00129     0.39294
      H   24    0.11190      0.00000     0.38676    0.00134     0.38810
      H   25    0.09438      0.00000     0.40452    0.00110     0.40562
      H   26    0.08144      0.00000     0.41739    0.00117     0.41856
      H   27    0.09490      0.00000     0.40392    0.00119     0.40510
      H   28    0.08854      0.00000     0.41007    0.00139     0.41146
      H   29    0.08282      0.00000     0.41575    0.00143     0.41718
      H   30    0.09052      0.00000     0.40808    0.00139     0.40948
      H   31    0.09059      0.00000     0.40834    0.00108     0.40941
      H   32    0.08846      0.00000     0.41051    0.00103     0.41154
      H   33    0.09181      0.00000     0.40717    0.00103     0.40819
      H   34    0.09397      0.00000     0.40469    0.00134     0.40603
      H   35    0.09837      0.00000     0.40041    0.00122     0.40163
      H   36    0.09223      0.00000     0.40575    0.00201     0.40777
      H   37    0.17677      0.00000     0.32120    0.00203     0.32323
      H   38    0.17172      0.00000     0.32650    0.00179     0.32828
 =======================================================================
   * Total *   -0.00000     18.99160    48.80753    0.20087    68.00000

 Normal termination of Gaussian 16 at Sat Dec 12 11:21:14 2020.
