 Gaussian 16, Revision A.03,

 -----------------------------------------------------------
 # opt freq B3LYP/6-31G(d) empiricaldispersion=gd3bj scf=xqc
 -----------------------------------------------------------

 -------------------------------
 CID_105737302_JID_5731_neutraal
 -------------------------------
 Symbolic Z-matrix:
 Charge =  0 Multiplicity = 1

 SCF Done:  E(RB3LYP) =  -677.550668330     A.U. after   13 cycles
 SCF Done:  E(RB3LYP) =  -677.556415638     A.U. after   11 cycles
 SCF Done:  E(RB3LYP) =  -677.557225806     A.U. after   10 cycles
 SCF Done:  E(RB3LYP) =  -677.558852695     A.U. after   11 cycles
 SCF Done:  E(RB3LYP) =  -677.555559177     A.U. after   13 cycles
 SCF Done:  E(RB3LYP) =  -677.560493226     A.U. after   11 cycles
 SCF Done:  E(RB3LYP) =  -677.562101734     A.U. after   10 cycles
 SCF Done:  E(RB3LYP) =  -677.562702847     A.U. after   11 cycles
 SCF Done:  E(RB3LYP) =  -677.562891896     A.U. after   10 cycles
 SCF Done:  E(RB3LYP) =  -677.563046909     A.U. after    9 cycles
 SCF Done:  E(RB3LYP) =  -677.563099215     A.U. after    8 cycles
 SCF Done:  E(RB3LYP) =  -677.563099789     A.U. after    7 cycles
 SCF Done:  E(RB3LYP) =  -677.563100112     A.U. after    6 cycles
 SCF Done:  E(RB3LYP) =  -677.563100318     A.U. after    7 cycles
 SCF Done:  E(RB3LYP) =  -677.563100406     A.U. after    6 cycles
 SCF Done:  E(RB3LYP) =  -677.563100433     A.U. after    6 cycles
 Optimization completed.
    -- Stationary point found.
 Normal termination of Gaussian 16 at Thu Dec 10 17:02:52 2020.

 --------------------------------------------------------------------
 #N Geom=AllCheck Guess=TCheck SCRF=Check GenChk RB3LYP/6-31G(d) Freq
 --------------------------------------------------------------------

 Structure from the checkpoint file:  "JID_5731.chk"
 -------------------------------
 CID_105737302_JID_5731_neutraal
 -------------------------------
 Charge =  0 Multiplicity = 1

 SCF Done:  E(RB3LYP) =  -677.563100433     A.U. after    1 cycles

  Exact polarizability: 153.458  -3.372 140.571  -1.217  -0.411 123.210
 Approx polarizability: 187.938   0.470 190.565  -0.231  -2.144 183.110

                      1                      2                      3
                      A                      A                      A
 Frequencies --     19.9479                35.0027                40.2060
 Red. masses --      3.5624                 3.6413                 4.1222
 Frc consts  --      0.0008                 0.0026                 0.0039
 IR Inten    --      0.2089                 0.1161                 0.5049

                      4                      5                      6
                      A                      A                      A
 Frequencies --     58.6092                77.5916               108.9039
 Red. masses --      3.8679                 3.2269                 2.3995
 Frc consts  --      0.0078                 0.0114                 0.0168
 IR Inten    --      0.1928                 1.0861                 1.3525

                      7                      8                      9
                      A                      A                      A
 Frequencies --    118.1949               125.1624               162.5647
 Red. masses --      2.3124                 2.0189                 2.5611
 Frc consts  --      0.0190                 0.0186                 0.0399
 IR Inten    --      0.6561                 4.6110                 4.0947

                     10                     11                     12
                      A                      A                      A
 Frequencies --    170.0386               200.8858               207.2889
 Red. masses --      2.6095                 1.9951                 1.1736
 Frc consts  --      0.0445                 0.0474                 0.0297
 IR Inten    --      1.5972                 0.3020                 1.9425

                     13                     14                     15
                      A                      A                      A
 Frequencies --    216.0859               257.7141               265.7869
 Red. masses --      1.8965                 1.4904                 2.8866
 Frc consts  --      0.0522                 0.0583                 0.1201
 IR Inten    --      1.8760                 0.6031                 0.8372

                     16                     17                     18
                      A                      A                      A
 Frequencies --    302.9679               321.2248               342.7086
 Red. masses --      3.2127                 2.1330                 2.2694
 Frc consts  --      0.1737                 0.1297                 0.1570
 IR Inten    --      1.4215                 1.0578                 0.7280

                     19                     20                     21
                      A                      A                      A
 Frequencies --    356.7927               397.0845               429.2573
 Red. masses --      2.2148                 2.4827                 3.7623
 Frc consts  --      0.1661                 0.2306                 0.4084
 IR Inten    --      2.8780                 0.6407                 2.2816

                     22                     23                     24
                      A                      A                      A
 Frequencies --    499.9745               524.9608               572.6117
 Red. masses --      2.1958                 2.4448                 2.3752
 Frc consts  --      0.3234                 0.3970                 0.4589
 IR Inten    --      3.4444                 7.5525                 0.5853

                     25                     26                     27
                      A                      A                      A
 Frequencies --    650.7525               670.6774               752.7699
 Red. masses --      4.6884                 2.9818                 1.5775
 Frc consts  --      1.1698                 0.7902                 0.5267
 IR Inten    --      8.8494                 0.2076                 1.9722

                     28                     29                     30
                      A                      A                      A
 Frequencies --    774.5795               819.0334               833.4516
 Red. masses --      1.5791                 1.3745                 1.7670
 Frc consts  --      0.5582                 0.5432                 0.7232
 IR Inten    --      5.0828                31.9781                 6.6382

                     31                     32                     33
                      A                      A                      A
 Frequencies --    855.8514               882.0753               896.6460
 Red. masses --      1.8056                 1.5813                 1.9694
 Frc consts  --      0.7793                 0.7249                 0.9329
 IR Inten    --     11.9689                14.1398                12.4565

                     34                     35                     36
                      A                      A                      A
 Frequencies --    904.1248               923.1338               947.1482
 Red. masses --      1.9491                 2.0796                 1.4760
 Frc consts  --      0.9387                 1.0441                 0.7801
 IR Inten    --      8.7945                 0.8262                 0.4064

                     37                     38                     39
                      A                      A                      A
 Frequencies --    947.2232               975.3767               986.3365
 Red. masses --      1.8863                 1.9221                 2.4420
 Frc consts  --      0.9972                 1.0774                 1.3997
 IR Inten    --     17.8724                 5.8514                 7.2798

                     40                     41                     42
                      A                      A                      A
 Frequencies --    990.9820              1041.5714              1056.7395
 Red. masses --      3.6876                 1.7630                 2.0752
 Frc consts  --      2.1337                 1.1269                 1.3653
 IR Inten    --     29.6213                 8.5128                 9.8139

                     43                     44                     45
                      A                      A                      A
 Frequencies --   1069.3012              1078.4700              1089.7116
 Red. masses --      2.3008                 2.2207                 2.4135
 Frc consts  --      1.5500                 1.5218                 1.6886
 IR Inten    --      0.3604                 5.4371                81.9221

                     46                     47                     48
                      A                      A                      A
 Frequencies --   1104.3687              1121.1769              1138.2849
 Red. masses --      1.8717                 1.9149                 2.7930
 Frc consts  --      1.3450                 1.4182                 2.1322
 IR Inten    --     18.5905                23.9864                39.9858

                     49                     50                     51
                      A                      A                      A
 Frequencies --   1146.3172              1161.7896              1165.2745
 Red. masses --      2.2495                 2.0566                 2.3502
 Frc consts  --      1.7416                 1.6355                 1.8802
 IR Inten    --     53.9634                 8.3141                 9.6972

                     52                     53                     54
                      A                      A                      A
 Frequencies --   1171.8344              1176.3632              1189.7789
 Red. masses --      2.5798                 2.4943                 2.4306
 Frc consts  --      2.0872                 2.0337                 2.0272
 IR Inten    --     19.6540                52.5892                21.7909

                     55                     56                     57
                      A                      A                      A
 Frequencies --   1243.2543              1249.0915              1255.8015
 Red. masses --      1.2723                 1.2039                 1.2880
 Frc consts  --      1.1586                 1.1067                 1.1967
 IR Inten    --      7.5610                 8.3453                14.7497

                     58                     59                     60
                      A                      A                      A
 Frequencies --   1289.8249              1292.5007              1308.9116
 Red. masses --      1.2392                 1.1900                 1.2738
 Frc consts  --      1.2146                 1.1713                 1.2858
 IR Inten    --      1.5104                 1.2986                11.0419

                     61                     62                     63
                      A                      A                      A
 Frequencies --   1323.0033              1335.2411              1341.0183
 Red. masses --      1.2384                 1.2158                 1.2332
 Frc consts  --      1.2771                 1.2771                 1.3066
 IR Inten    --     14.9822                 6.1815                 5.0922

                     64                     65                     66
                      A                      A                      A
 Frequencies --   1344.6648              1347.7307              1364.8280
 Red. masses --      1.2828                 1.2130                 1.3289
 Frc consts  --      1.3666                 1.2982                 1.4585
 IR Inten    --      7.8281                 2.9639                 0.2180

                     67                     68                     69
                      A                      A                      A
 Frequencies --   1382.0363              1384.0904              1392.1594
 Red. masses --      1.3825                 1.3712                 1.2995
 Frc consts  --      1.5557                 1.5477                 1.4839
 IR Inten    --      0.8631                 9.6623                17.1624

                     70                     71                     72
                      A                      A                      A
 Frequencies --   1414.5643              1421.9447              1430.0673
 Red. masses --      1.3653                 1.3206                 1.5034
 Frc consts  --      1.6096                 1.5732                 1.8115
 IR Inten    --     14.0210                 7.3268                 7.1349

                     73                     74                     75
                      A                      A                      A
 Frequencies --   1441.6691              1443.6368              1444.7720
 Red. masses --      1.2692                 1.4005                 1.2709
 Frc consts  --      1.5542                 1.7197                 1.5630
 IR Inten    --      1.0121                 2.7707                 3.1710

                     76                     77                     78
                      A                      A                      A
 Frequencies --   1453.4844              1508.1718              1512.3039
 Red. masses --      1.2421                 1.1146                 1.1068
 Frc consts  --      1.5461                 1.4938                 1.4914
 IR Inten    --      8.2492                 3.9310                16.4515

                     79                     80                     81
                      A                      A                      A
 Frequencies --   1516.3512              1519.6023              1520.9593
 Red. masses --      1.1296                 1.0639                 1.0896
 Frc consts  --      1.5303                 1.4475                 1.4851
 IR Inten    --     11.3069                 3.4758                23.8398

                     82                     83                     84
                      A                      A                      A
 Frequencies --   1525.7501              1529.0113              1531.6541
 Red. masses --      1.0871                 1.0549                 1.0443
 Frc consts  --      1.4910                 1.4530                 1.4434
 IR Inten    --     24.8126                12.9618                 5.4362

                     85                     86                     87
                      A                      A                      A
 Frequencies --   1538.2283              1540.0453              1543.6812
 Red. masses --      1.0780                 1.0937                 1.0696
 Frc consts  --      1.5029                 1.5283                 1.5017
 IR Inten    --      6.5904                 4.1681                10.0418

                     88                     89                     90
                      A                      A                      A
 Frequencies --   1545.3871              1550.6798              2932.6327
 Red. masses --      1.0752                 1.0991                 1.0801
 Frc consts  --      1.5129                 1.5571                 5.4730
 IR Inten    --      3.8512                 0.1743                65.9262

                     91                     92                     93
                      A                      A                      A
 Frequencies --   2940.4913              2956.5537              3001.0603
 Red. masses --      1.0744                 1.0715                 1.0711
 Frc consts  --      5.4733                 5.5186                 5.6839
 IR Inten    --     69.3467                89.9552                85.6451

                     94                     95                     96
                      A                      A                      A
 Frequencies --   3014.0359              3045.4366              3045.6858
 Red. masses --      1.0695                 1.0641                 1.0504
 Frc consts  --      5.7242                 5.8147                 5.7409
 IR Inten    --     75.1476                12.6119                 1.4074

                     97                     98                     99
                      A                      A                      A
 Frequencies --   3046.7903              3048.2086              3050.2703
 Red. masses --      1.0728                 1.0501                 1.0591
 Frc consts  --      5.8673                 5.7485                 5.8056
 IR Inten    --     26.6984                41.4974                30.9805

                    100                    101                    102
                      A                      A                      A
 Frequencies --   3050.9979              3058.8961              3060.6936
 Red. masses --      1.0659                 1.0789                 1.0769
 Frc consts  --      5.8460                 5.9481                 5.9439
 IR Inten    --     14.1145                27.4895                74.0693

                    103                    104                    105
                      A                      A                      A
 Frequencies --   3078.7100              3078.8703              3083.3894
 Red. masses --      1.0999                 1.0669                 1.1018
 Frc consts  --      6.1424                 5.9589                 6.1718
 IR Inten    --     18.9752                35.4209                10.2763

                    106                    107                    108
                      A                      A                      A
 Frequencies --   3097.9071              3105.1886              3111.5820
 Red. masses --      1.0922                 1.1032                 1.1001
 Frc consts  --      6.1757                 6.2675                 6.2755
 IR Inten    --     53.0204                46.8867                52.0353

                    109                    110                    111
                      A                      A                      A
 Frequencies --   3112.0454              3114.2308              3120.2604
 Red. masses --      1.1025                 1.0952                 1.1014
 Frc consts  --      6.2912                 6.2582                 6.3179
 IR Inten    --     50.8567                50.5134                44.5233

                    112                    113                    114
                      A                      A                      A
 Frequencies --   3132.9930              3135.7987              3509.0981
 Red. masses --      1.1010                 1.1039                 1.0725
 Frc consts  --      6.3676                 6.3958                 7.7813
 IR Inten    --     28.0786                28.1407                 0.1675

 - Thermochemistry -
 -------------------
 Temperature   298.150 Kelvin.  Pressure   1.00000 Atm.
 Atom     1 has atomic number  6 and mass  12.00000

 Molecular mass:   215.18853 amu.
 Principal axes and moments of inertia in atomic units:
                           1         2         3
     Eigenvalues --  2176.873765627.028636426.59109
           X            0.99957  -0.02880  -0.00581
           Y            0.02884   0.99956   0.00632
           Z            0.00563  -0.00649   0.99996
 This molecule is an asymmetric top.
 Rotational symmetry number  1.
 Warning -- assumption of classical behavior for rotation
           may cause significant error
 Rotational temperatures (Kelvin)      0.03979     0.01539     0.01348
 Rotational constants (GHZ):           0.82905     0.32073     0.28082
 Zero-point vibrational energy     969278.2 (Joules/Mol)
                                  231.66305 (Kcal/Mol)
 Warning -- explicit consideration of  24 degrees of freedom as
           vibrations may cause significant error
 Vibrational temperatures:     28.70    50.36    57.85    84.33   111.64
          (Kelvin)            156.69   170.06   180.08   233.89   244.65
                              289.03   298.24   310.90   370.79   382.41
                              435.90   462.17   493.08   513.35   571.32
                              617.61   719.35   755.30   823.86   936.29
                              964.96  1083.07  1114.45  1178.41  1199.15
                             1231.38  1269.11  1290.07  1300.83  1328.18
                             1362.73  1362.84  1403.35  1419.12  1425.80
                             1498.59  1520.41  1538.49  1551.68  1567.85
                             1588.94  1613.12  1637.74  1649.29  1671.56
                             1676.57  1686.01  1692.52  1711.83  1788.77
                             1797.16  1806.82  1855.77  1859.62  1883.23
                             1903.51  1921.11  1929.43  1934.67  1939.08
                             1963.68  1988.44  1991.40  2003.01  2035.24
                             2045.86  2057.55  2074.24  2077.07  2078.70
                             2091.24  2169.92  2175.87  2181.69  2186.37
                             2188.32  2195.21  2199.91  2203.71  2213.17
                             2215.78  2221.01  2223.47  2231.08  4219.40
                             4230.71  4253.82  4317.86  4336.53  4381.70
                             4382.06  4383.65  4385.69  4388.66  4389.71
                             4401.07  4403.66  4429.58  4429.81  4436.31
                             4457.20  4467.67  4476.87  4477.54  4480.68
                             4489.36  4507.68  4511.71  5048.81

 Zero-point correction=                           0.369179 (Hartree/Particle)
 Thermal correction to Energy=                    0.386534
 Thermal correction to Enthalpy=                  0.387478
 Thermal correction to Gibbs Free Energy=         0.322214
 Sum of electronic and zero-point Energies=           -677.193922
 Sum of electronic and thermal Energies=              -677.176567
 Sum of electronic and thermal Enthalpies=            -677.175623
 Sum of electronic and thermal Free Energies=         -677.240886

                     E (Thermal)             CV                S
                      KCal/Mol        Cal/Mol-Kelvin    Cal/Mol-Kelvin
 Total                  242.554             63.646            137.359
 Electronic               0.000              0.000              0.000
 Translational            0.889              2.981             42.002
 Rotational               0.889              2.981             32.732
 Vibrational            240.776             57.684             62.626
 Vibration     1          0.593              1.986              6.639
 Vibration     2          0.594              1.982              5.524
 Vibration     3          0.594              1.981              5.249
 Vibration     4          0.596              1.974              4.503
 Vibration     5          0.599              1.964              3.951
 Vibration     6          0.606              1.942              3.288
 Vibration     7          0.608              1.934              3.130
 Vibration     8          0.610              1.928              3.019
 Vibration     9          0.623              1.888              2.520
 Vibration    10          0.625              1.879              2.435
 Vibration    11          0.638              1.839              2.125
 Vibration    12          0.641              1.829              2.067
 Vibration    13          0.645              1.817              1.992
 Vibration    14          0.667              1.750              1.677
 Vibration    15          0.672              1.736              1.623
 Vibration    16          0.694              1.668              1.400
 Vibration    17          0.707              1.633              1.304
 Vibration    18          0.722              1.590              1.200
 Vibration    19          0.732              1.561              1.136
 Vibration    20          0.764              1.476              0.973
 Vibration    21          0.791              1.407              0.861
 Vibration    22          0.855              1.250              0.658
 Vibration    23          0.880              1.195              0.599
 Vibration    24          0.929              1.090              0.499

                           ! Non-Optimized Parameters !
 Normal termination of Gaussian 16 at Thu Dec 10 17:19:43 2020.

 ----------------------------------------------------------------------
 # B3LYP/6-311++G(d,p) empiricaldispersion=gd3bj scf=xqc pop=npa geom=c
 heck
 ----------------------------------------------------------------------

 ---------------------------------------
 CID_105737302_JID_5731_Energie_neutraal
 ---------------------------------------
 Structure from the checkpoint file:  "JID_5731.chk"
 Charge =  0 Multiplicity = 1

 SCF Done:  E(RB3LYP) =  -677.760020918     A.U. after   13 cycles
 Normal termination of Gaussian 16 at Thu Dec 10 17:28:14 2020.

 ----------------------------------------------------------------------
 # B3LYP/6-311++G(d,p) empiricaldispersion=gd3bj scf=xqc pop=npa geom=c
 heck
 ----------------------------------------------------------------------

 -------------------------------------
 CID_105737302_JID_5731_Energie_kation
 -------------------------------------
 Structure from the checkpoint file:  "JID_5731.chk"
 Charge =  1 Multiplicity = 2

 SCF Done:  E(UB3LYP) =  -677.456107381     A.U. after   23 cycles
 Normal termination of Gaussian 16 at Thu Dec 10 17:47:01 2020.
 Gaussian 16:  ES64L-G16RevA.03 25-Dec-2016

 ----------------------------------------------------------------------
 # B3LYP/6-311++G(d,p) empiricaldispersion=gd3bj scf=xqc pop=npa geom=c
 heck
 ----------------------------------------------------------------------

 ------------------------------------
 CID_105737302_JID_5731_Energie_anion
 ------------------------------------
 Structure from the checkpoint file:  "JID_5731.chk"
 Charge = -1 Multiplicity = 2

                         Standard orientation:
 ---------------------------------------------------------------------
 Center     Atomic      Atomic             Coordinates (Angstroms)
 Number     Number       Type             X           Y           Z
 ---------------------------------------------------------------------
      1          6           0       -2.969653    1.900194    0.439298
      2          6           0       -3.691874    1.081292   -0.638648
      3          6           0       -2.792204    0.082485   -1.391952
      4          8           0       -2.892497   -1.279894   -0.977832
      5          6           0       -2.752223   -1.590690    0.403058
      6          6           0       -1.330572   -1.975194    0.795453
      7          7           0       -0.401576   -0.856900    0.657770
      8          6           0        0.939337   -1.167313    1.149585
      9          6           0        1.913507    0.002441    0.969412
     10          6           0        1.371680    1.349637    1.508001
     11          6           0        1.077782    2.135145    0.227378
     12          8           0        2.074278    1.715637   -0.698251
     13          6           0        2.251907    0.310747   -0.520933
     14          6           0        3.670346   -0.048651   -0.947575
     15          6           0        3.933017   -1.556027   -0.958390
     16          1           0       -2.425836    1.263944    1.144227
     17          1           0       -3.673839    2.522468    1.003092
     18          1           0       -2.231721    2.568706   -0.019827
     19          1           0       -4.539225    0.528985   -0.213807
     20          1           0       -4.125665    1.773898   -1.371052
     21          1           0       -3.077098    0.043373   -2.447688
     22          1           0       -1.749648    0.435511   -1.354904
     23          1           0       -3.102528   -0.770616    1.038530
     24          1           0       -3.406956   -2.452410    0.581632
     25          1           0       -1.341583   -2.280734    1.850932
     26          1           0       -1.020671   -2.860510    0.209752
     27          1           0       -0.339959   -0.625516   -0.331143
     28          1           0        0.850070   -1.393598    2.220127
     29          1           0        1.364286   -2.072343    0.674157
     30          1           0        2.838393   -0.266439    1.493072
     31          1           0        2.139437    1.863876    2.094596
     32          1           0        0.481292    1.217934    2.127706
     33          1           0        0.072188    1.892337   -0.149194
     34          1           0        1.158812    3.220550    0.334188
     35          1           0        1.543211   -0.225213   -1.180293
     36          1           0        3.840203    0.368912   -1.947194
     37          1           0        4.370888    0.458293   -0.271367
     38          1           0        3.234897   -2.075651   -1.626026
     39          1           0        4.948836   -1.774296   -1.303942
     40          1           0        3.822705   -1.993521    0.040585
 ---------------------------------------------------------------------

 SCF Done:  E(UB3LYP) =  -677.744685390     A.U. after   28 cycles

 The electronic state is 2-A.
 Alpha  occ. eigenvalues --  -19.03111 -19.02825 -14.20663 -10.12669 -10.12635
 Alpha  occ. eigenvalues --  -10.12099 -10.11849 -10.09898 -10.09860 -10.08257
 Alpha  occ. eigenvalues --  -10.07931 -10.07535 -10.07124 -10.07028 -10.06665
 Alpha  occ. eigenvalues --   -0.94835  -0.93991  -0.81836  -0.71011  -0.69425
 Alpha  occ. eigenvalues --   -0.68742  -0.65141  -0.62672  -0.58955  -0.56632
 Alpha  occ. eigenvalues --   -0.52599  -0.52113  -0.50378  -0.48456  -0.47069
 Alpha  occ. eigenvalues --   -0.41986  -0.40514  -0.39933  -0.39438  -0.38011
 Alpha  occ. eigenvalues --   -0.37341  -0.35932  -0.34906  -0.34579  -0.33239
 Alpha  occ. eigenvalues --   -0.32549  -0.32404  -0.31262  -0.30373  -0.29070
 Alpha  occ. eigenvalues --   -0.29020  -0.27895  -0.27383  -0.27326  -0.26150
 Alpha  occ. eigenvalues --   -0.25778  -0.24906  -0.24721  -0.23677  -0.22942
 Alpha  occ. eigenvalues --   -0.21645  -0.21097  -0.16943  -0.16614  -0.13987
 Alpha  occ. eigenvalues --    0.04238
 Alpha virt. eigenvalues --    0.05738   0.06555   0.06810   0.07670   0.07916
 Alpha virt. eigenvalues --    0.08241   0.09142   0.09377   0.10000   0.10356
 Alpha virt. eigenvalues --    0.10411   0.11246   0.11332   0.12230   0.12328

  Beta  occ. eigenvalues --  -19.03109 -19.02823 -14.20656 -10.12664 -10.12632
  Beta  occ. eigenvalues --  -10.12083 -10.11843 -10.09880 -10.09843 -10.08247
  Beta  occ. eigenvalues --  -10.07913 -10.07524 -10.07112 -10.06997 -10.06644
  Beta  occ. eigenvalues --   -0.94829  -0.93983  -0.81818  -0.70988  -0.69400
  Beta  occ. eigenvalues --   -0.68718  -0.65113  -0.62643  -0.58922  -0.56591
  Beta  occ. eigenvalues --   -0.52551  -0.52061  -0.50349  -0.48411  -0.47037
  Beta  occ. eigenvalues --   -0.41968  -0.40480  -0.39918  -0.39414  -0.37990
  Beta  occ. eigenvalues --   -0.37320  -0.35894  -0.34884  -0.34558  -0.33214
  Beta  occ. eigenvalues --   -0.32517  -0.32376  -0.31231  -0.30353  -0.29038
  Beta  occ. eigenvalues --   -0.28991  -0.27862  -0.27351  -0.27285  -0.26117
  Beta  occ. eigenvalues --   -0.25749  -0.24881  -0.24697  -0.23661  -0.22914
  Beta  occ. eigenvalues --   -0.21629  -0.21079  -0.16929  -0.16603  -0.13953
  Beta virt. eigenvalues --    0.06207   0.06616   0.07217   0.07307   0.08056
  Beta virt. eigenvalues --    0.08368   0.08614   0.09490   0.09790   0.10275
  Beta virt. eigenvalues --    0.10583   0.10799   0.11480   0.11689   0.12470

 Mulliken charges and spin densities:
               1          2
     1  C    0.066313  -0.509979
     2  C    0.229182  -0.566701
     3  C   -0.207872   0.053398
     4  O   -0.114473   0.013524
     5  C    0.008557  -0.488301
     6  C    0.494524  -0.643141
     7  N   -0.089303   0.120588
     8  C    0.876913  -1.547112
     9  C   -0.020376   0.445364
    10  C   -0.526597  -0.031517
    11  C    0.481759  -0.591447
    12  O   -0.071664   0.002358
    13  C   -0.456102   0.025217
    14  C   -0.971561   0.755321
    15  C    0.786686  -1.394272
    16  H    0.261382  -0.125242
    17  H   -0.364438   0.507398
    18  H   -0.033273   0.174229
    19  H    0.003021   0.160930
    20  H   -0.176994   0.325251
    21  H   -0.037817   0.222677
    22  H   -0.098589   0.179698
    23  H   -0.014508   0.165907
    24  H   -0.259354   0.429191
    25  H   -0.290058   0.423482
    26  H    0.051868   0.106509
    27  H    0.167562  -0.056485
    28  H   -0.440130   0.605984
    29  H    0.347629  -0.188834
    30  H   -0.211934   0.456838
    31  H   -0.153594   0.310724
    32  H   -0.165451   0.334121
    33  H    0.467354  -0.333079
    34  H   -0.016639   0.203072
    35  H    0.087814   0.103271
    36  H   -0.017686   0.176715
    37  H    0.070434   0.080625
    38  H   -0.019757   0.151875
    39  H   -0.358376   0.511556
    40  H   -0.284451   0.430287
 Sum of Mulliken charges =  -1.00000   1.00000

 Dipole moment (field-independent basis, Debye):
    X=             -0.4228    Y=              1.2457    Z=             -2.3022  Tot=              2.6515
 Quadrupole moment (field-independent basis, Debye-Ang):
   XX=           -186.2668   YY=           -147.3342   ZZ=           -140.5324
   XY=              9.2040   XZ=              0.6735   YZ=              2.5156

 Summary of Natural Population Analysis:

                                       Natural Population
                Natural  -----------------------------------------------
    Atom  No    Charge         Core      Valence    Rydberg      Total
 -----------------------------------------------------------------------
      C    1   -0.29009      0.99966     2.28427    0.00615     3.29009
      C    2   -0.21168      0.99964     2.20456    0.00748     3.21168
      C    3   -0.00487      0.99956     1.99301    0.01230     3.00487
      O    4   -0.30545      0.99989     3.29633    0.00923     4.30545
      C    5   -0.01298      0.99955     2.00020    0.01322     3.01298
      C    6   -0.09432      0.99962     2.08363    0.01106     3.09432
      N    7   -0.34803      0.99973     2.83713    0.01117     3.84803
      C    8   -0.08082      0.99960     2.06962    0.01160     3.08082
      C    9   -0.12536      0.99958     2.11287    0.01292     3.12536
      C   10   -0.20277      0.99962     2.19434    0.00881     3.20277
      C   11   -0.01186      0.99959     2.00055    0.01172     3.01186
      O   12   -0.30320      0.99989     3.29538    0.00793     4.30320
      C   13    0.07117      0.99953     1.91538    0.01393     2.92883
      C   14   -0.19459      0.99961     2.18503    0.00996     3.19459
      C   15   -0.28771      0.99966     2.28307    0.00498     3.28771
      H   16    0.10271      0.00000     0.39547    0.00181     0.39729
      H   17    0.09883      0.00000     0.40011    0.00106     0.40117
      H   18    0.09554      0.00000     0.40319    0.00127     0.40446
      H   19    0.10042      0.00000     0.39842    0.00116     0.39958
      H   20    0.09950      0.00000     0.39929    0.00121     0.40050
      H   21    0.08879      0.00000     0.41006    0.00115     0.41121
      H   22    0.07275      0.00000     0.42524    0.00201     0.42725
      H   23    0.08460      0.00000     0.41367    0.00173     0.41540
      H   24    0.08846      0.00000     0.41029    0.00126     0.41154
      H   25    0.09564      0.00000     0.40267    0.00169     0.40436
      H   26    0.08069      0.00000     0.41788    0.00142     0.41931
      H   27    0.16959      0.00000     0.32602    0.00439     0.33041
      H   28    0.09616      0.00000     0.40231    0.00153     0.40384
      H   29    0.08298      0.00000     0.41538    0.00164     0.41702
      H   30    0.10538      0.00000     0.39301    0.00161     0.39462
      H   31    0.09859      0.00000     0.40026    0.00115     0.40141
      H   32    0.10894      0.00000     0.38959    0.00147     0.39106
      H   33    0.07887      0.00000     0.41892    0.00221     0.42113
      H   34    0.08850      0.00000     0.41037    0.00113     0.41150
      H   35    0.07310      0.00000     0.42492    0.00199     0.42690
      H   36    0.09901      0.00000     0.39981    0.00118     0.40099
      H   37    0.09733      0.00000     0.40122    0.00145     0.40267
      H   38    0.09625      0.00000     0.40272    0.00103     0.40375
      H   39    0.10090      0.00000     0.39812    0.00098     0.39910
      H   40    0.09904      0.00000     0.39963    0.00133     0.40096
 =======================================================================
   * Total *    0.00000     14.99474    44.81391    0.19135    60.00000

 Normal termination of Gaussian 16 at Thu Dec 10 18:07:31 2020.
