 Gaussian 16, Revision A.03,

 -----------------------------------------------------------
 # opt freq B3LYP/6-31G(d) empiricaldispersion=gd3bj scf=xqc
 -----------------------------------------------------------

 ------------------------------
 CID_43115199_JID_2546_neutraal
 ------------------------------
 Symbolic Z-matrix:
 Charge =  0 Multiplicity = 1

 SCF Done:  E(RB3LYP) =  -502.625232360     A.U. after   15 cycles
 SCF Done:  E(RB3LYP) =  -502.648935612     A.U. after   12 cycles
 SCF Done:  E(RB3LYP) =  -502.650289713     A.U. after   12 cycles
 SCF Done:  E(RB3LYP) =  -502.650737932     A.U. after   12 cycles
 SCF Done:  E(RB3LYP) =  -502.650975566     A.U. after   12 cycles
 SCF Done:  E(RB3LYP) =  -502.651226173     A.U. after   11 cycles
 SCF Done:  E(RB3LYP) =  -502.651319902     A.U. after   11 cycles
 SCF Done:  E(RB3LYP) =  -502.651344654     A.U. after   10 cycles
 SCF Done:  E(RB3LYP) =  -502.651350409     A.U. after    8 cycles
 SCF Done:  E(RB3LYP) =  -502.651352015     A.U. after    8 cycles
 SCF Done:  E(RB3LYP) =  -502.651352412     A.U. after    7 cycles
 SCF Done:  E(RB3LYP) =  -502.651352422     A.U. after    7 cycles
 Optimization completed.
    -- Stationary point found.
 Normal termination of Gaussian 16 at Wed Dec  9 17:38:42 2020.

 --------------------------------------------------------------------
 #N Geom=AllCheck Guess=TCheck SCRF=Check GenChk RB3LYP/6-31G(d) Freq
 --------------------------------------------------------------------

 Structure from the checkpoint file:  "JID_2546.chk"
 ------------------------------
 CID_43115199_JID_2546_neutraal
 ------------------------------
 Charge =  0 Multiplicity = 1

 SCF Done:  E(RB3LYP) =  -502.651352422     A.U. after    1 cycles

  Exact polarizability: 121.647  -0.054 114.174  -0.592  -4.489 108.525
 Approx polarizability: 151.642   3.462 162.216  -2.750 -15.879 162.066

                      1                      2                      3
                      A                      A                      A
 Frequencies --     36.4733                49.4874                75.1555
 Red. masses --      2.6859                 2.6119                 3.5980
 Frc consts  --      0.0021                 0.0038                 0.0120
 IR Inten    --      0.6733                 0.7399                 1.2875

                      4                      5                      6
                      A                      A                      A
 Frequencies --     87.9921               120.2161               141.8397
 Red. masses --      2.6559                 4.2794                 2.8365
 Frc consts  --      0.0121                 0.0364                 0.0336
 IR Inten    --      1.7191                 3.3088                 1.1790

                      7                      8                      9
                      A                      A                      A
 Frequencies --    187.5190               195.9294               218.2615
 Red. masses --      3.3935                 2.8671                 1.5641
 Frc consts  --      0.0703                 0.0648                 0.0439
 IR Inten    --      3.7559                 1.3251                 1.0356

                     10                     11                     12
                      A                      A                      A
 Frequencies --    240.8480               259.0869               267.1070
 Red. masses --      1.0511                 1.7274                 1.0911
 Frc consts  --      0.0359                 0.0683                 0.0459
 IR Inten    --      0.0450                 0.3493                 0.1484

                     13                     14                     15
                      A                      A                      A
 Frequencies --    273.6381               289.0539               319.9926
 Red. masses --      1.4524                 1.7105                 2.2160
 Frc consts  --      0.0641                 0.0842                 0.1337
 IR Inten    --      0.5125                 0.9224                 0.0728

                     16                     17                     18
                      A                      A                      A
 Frequencies --    334.8098               393.1638               411.9667
 Red. masses --      2.4556                 2.5331                 2.3644
 Frc consts  --      0.1622                 0.2307                 0.2364
 IR Inten    --      0.1408                 2.0624                 0.4042

                     19                     20                     21
                      A                      A                      A
 Frequencies --    442.8816               457.6526               475.7343
 Red. masses --      2.0637                 3.4824                 2.7660
 Frc consts  --      0.2385                 0.4297                 0.3688
 IR Inten    --      1.6248                 0.9186                 2.2941

                     22                     23                     24
                      A                      A                      A
 Frequencies --    601.9238               652.5445               715.2993
 Red. masses --      4.7730                 4.0011                 2.5891
 Frc consts  --      1.0189                 1.0038                 0.7805
 IR Inten    --      6.5681                 0.8904                16.0495

                     25                     26                     27
                      A                      A                      A
 Frequencies --    741.2176               788.7834               827.7818
 Red. masses --      1.7236                 1.2689                 2.6931
 Frc consts  --      0.5579                 0.4652                 1.0873
 IR Inten    --     50.1550                11.1555                 1.9363

                     28                     29                     30
                      A                      A                      A
 Frequencies --    882.7049               899.8433               929.1338
 Red. masses --      1.8868                 1.8491                 1.3786
 Frc consts  --      0.8662                 0.8821                 0.7012
 IR Inten    --      0.1559                 0.3267                 3.7684

                     31                     32                     33
                      A                      A                      A
 Frequencies --    934.5416               943.2086               978.3887
 Red. masses --      1.7790                 1.2058                 1.5542
 Frc consts  --      0.9154                 0.6320                 0.8766
 IR Inten    --      0.4927                 2.3955                 7.0046

                     34                     35                     36
                      A                      A                      A
 Frequencies --    981.2585               998.8811              1026.0978
 Red. masses --      1.6079                 1.7405                 1.7891
 Frc consts  --      0.9122                 1.0232                 1.1099
 IR Inten    --      0.3216                 8.2342                 6.4725

                     37                     38                     39
                      A                      A                      A
 Frequencies --   1070.0777              1097.3951              1125.6053
 Red. masses --      3.3275                 1.7729                 1.8198
 Frc consts  --      2.2449                 1.2579                 1.3585
 IR Inten    --     11.0869                 2.5340                12.8899

                     40                     41                     42
                      A                      A                      A
 Frequencies --   1148.0330              1165.0930              1173.5365
 Red. masses --      2.4503                 1.9556                 2.1750
 Frc consts  --      1.9028                 1.5640                 1.7648
 IR Inten    --      9.0447                12.1752                 5.7759

                     43                     44                     45
                      A                      A                      A
 Frequencies --   1211.1305              1218.8426              1235.7109
 Red. masses --      1.8048                 2.6809                 2.1980
 Frc consts  --      1.5598                 2.3466                 1.9775
 IR Inten    --      5.8178                17.8278                29.2425

                     46                     47                     48
                      A                      A                      A
 Frequencies --   1288.4833              1317.6384              1335.3461
 Red. masses --      1.2263                 1.2778                 1.2763
 Frc consts  --      1.1996                 1.3071                 1.3409
 IR Inten    --     22.9044                12.7066                 0.5788

                     49                     50                     51
                      A                      A                      A
 Frequencies --   1351.0055              1393.8757              1396.3224
 Red. masses --      1.4599                 1.3776                 1.3572
 Frc consts  --      1.5700                 1.5770                 1.5591
 IR Inten    --     10.4429                 1.0486                 2.3516

                     52                     53                     54
                      A                      A                      A
 Frequencies --   1409.9935              1415.6996              1430.2492
 Red. masses --      1.3788                 1.3791                 1.2471
 Frc consts  --      1.6150                 1.6285                 1.5030
 IR Inten    --      5.1001                 2.3131                 1.7639

                     55                     56                     57
                      A                      A                      A
 Frequencies --   1433.4728              1443.8025              1451.2932
 Red. masses --      1.2407                 1.2652                 1.2349
 Frc consts  --      1.5021                 1.5539                 1.5325
 IR Inten    --      8.0554                 8.0586                 3.7812

                     58                     59                     60
                      A                      A                      A
 Frequencies --   1498.5994              1506.6532              1511.4680
 Red. masses --      1.1533                 1.0831                 1.0799
 Frc consts  --      1.5260                 1.4487                 1.4535
 IR Inten    --     11.5007                 2.2405                 5.8578

                     61                     62                     63
                      A                      A                      A
 Frequencies --   1515.8142              1520.1940              1525.3327
 Red. masses --      1.0649                 1.0562                 1.0516
 Frc consts  --      1.4416                 1.4382                 1.4415
 IR Inten    --      1.0528                 1.0686                 2.8503

                     64                     65                     66
                      A                      A                      A
 Frequencies --   1528.3159              1534.6022              1535.2461
 Red. masses --      1.0507                 1.0825                 1.0597
 Frc consts  --      1.4460                 1.5021                 1.4716
 IR Inten    --      6.3140                13.4522                 2.3161

                     67                     68                     69
                      A                      A                      A
 Frequencies --   1543.3639              1545.1038              1547.5889
 Red. masses --      1.0766                 1.0555                 1.0739
 Frc consts  --      1.5109                 1.4846                 1.5154
 IR Inten    --     18.5550                 0.1573                 7.9407

                     70                     71                     72
                      A                      A                      A
 Frequencies --   2362.0396              2962.2910              3027.9331
 Red. masses --     12.6938                 1.0723                 1.0620
 Frc consts  --     41.7268                 5.5439                 5.7367
 IR Inten    --      3.4752                64.8009                17.7734

                     73                     74                     75
                      A                      A                      A
 Frequencies --   3037.8974              3041.2290              3047.4001
 Red. masses --      1.0372                 1.0380                 1.0677
 Frc consts  --      5.6398                 5.6564                 5.8421
 IR Inten    --     37.3704                20.7734                 4.1336

                     76                     77                     78
                      A                      A                      A
 Frequencies --   3049.0193              3051.0862              3058.1162
 Red. masses --      1.0615                 1.0545                 1.0364
 Frc consts  --      5.8142                 5.7839                 5.7104
 IR Inten    --     30.0428                22.0953                17.1187

                     79                     80                     81
                      A                      A                      A
 Frequencies --   3079.0443              3084.8625              3091.2704
 Red. masses --      1.0987                 1.0996                 1.0900
 Frc consts  --      6.1371                 6.1653                 6.1371
 IR Inten    --     15.3176                 1.9726                17.7292

                     82                     83                     84
                      A                      A                      A
 Frequencies --   3100.9682              3107.3867              3110.1030
 Red. masses --      1.1018                 1.1021                 1.1032
 Frc consts  --      6.2421                 6.2700                 6.2869
 IR Inten    --     33.7465                26.1077                61.5742

                     85                     86                     87
                      A                      A                      A
 Frequencies --   3114.5610              3117.3741              3129.9991
 Red. masses --      1.1012                 1.1004                 1.1022
 Frc consts  --      6.2940                 6.3008                 6.3622
 IR Inten    --     63.4354                43.1947                24.0900

                     88                     89                     90
                      A                      A                      A
 Frequencies --   3148.0564              3149.1502              3505.4030
 Red. masses --      1.1023                 1.0984                 1.0733
 Frc consts  --      6.4360                 6.4177                 7.7703
 IR Inten    --     14.4869                25.7190                 0.9576

 - Thermochemistry -
 -------------------
 Temperature   298.150 Kelvin.  Pressure   1.00000 Atm.
 Atom     1 has atomic number  6 and mass  12.00000

 Molecular mass:   168.16265 amu.
 Principal axes and moments of inertia in atomic units:
                           1         2         3
     Eigenvalues --  1740.080903070.447073665.63063
           X            0.99994  -0.01130   0.00072
           Y            0.01124   0.99818   0.05930
           Z           -0.00139  -0.05929   0.99824
 This molecule is an asymmetric top.
 Rotational symmetry number  1.
 Warning -- assumption of classical behavior for rotation
           may cause significant error
 Rotational temperatures (Kelvin)      0.04978     0.02821     0.02363
 Rotational constants (GHZ):           1.03716     0.58778     0.49234
 Zero-point vibrational energy     765493.4 (Joules/Mol)
                                  182.95731 (Kcal/Mol)
 Warning -- explicit consideration of  22 degrees of freedom as
           vibrations may cause significant error
 Vibrational temperatures:     52.48    71.20   108.13   126.60   172.96
          (Kelvin)            204.08   269.80   281.90   314.03   346.53
                              372.77   384.31   393.70   415.88   460.40
                              481.72   565.68   592.73   637.21   658.46
                              684.48   866.03   938.87  1029.16  1066.45
                             1134.88  1190.99  1270.02  1294.67  1336.82
                             1344.60  1357.07  1407.68  1411.81  1437.17
                             1476.33  1539.60  1578.91  1619.49  1651.76
                             1676.31  1688.46  1742.55  1753.64  1777.91
                             1853.84  1895.79  1921.27  1943.80  2005.48
                             2009.00  2028.67  2036.88  2057.81  2062.45
                             2077.31  2088.09  2156.15  2167.74  2174.67
                             2180.92  2187.22  2194.61  2198.91  2207.95
                             2208.88  2220.56  2223.06  2226.64  3398.45
                             4262.08  4356.52  4370.86  4375.65  4384.53
                             4386.86  4389.83  4399.95  4430.06  4438.43
                             4447.65  4461.60  4470.84  4474.74  4481.16
                             4485.21  4503.37  4529.35  4530.92  5043.49

 Zero-point correction=                           0.291561 (Hartree/Particle)
 Thermal correction to Energy=                    0.306532
 Thermal correction to Enthalpy=                  0.307476
 Thermal correction to Gibbs Free Energy=         0.249799
 Sum of electronic and zero-point Energies=           -502.359791
 Sum of electronic and thermal Energies=              -502.344820
 Sum of electronic and thermal Enthalpies=            -502.343876
 Sum of electronic and thermal Free Energies=         -502.401553

                     E (Thermal)             CV                S
                      KCal/Mol        Cal/Mol-Kelvin    Cal/Mol-Kelvin
 Total                  192.352             55.042            121.392
 Electronic               0.000              0.000              0.000
 Translational            0.889              2.981             41.267
 Rotational               0.889              2.981             31.349
 Vibrational            190.574             49.081             48.775
 Vibration     1          0.594              1.982              5.442
 Vibration     2          0.595              1.978              4.838
 Vibration     3          0.599              1.966              4.014
 Vibration     4          0.601              1.958              3.704
 Vibration     5          0.609              1.932              3.097
 Vibration     6          0.615              1.911              2.779
 Vibration     7          0.632              1.857              2.252
 Vibration     8          0.636              1.846              2.171
 Vibration     9          0.646              1.813              1.973
 Vibration    10          0.658              1.778              1.797
 Vibration    11          0.668              1.747              1.668
 Vibration    12          0.672              1.733              1.615
 Vibration    13          0.676              1.722              1.573
 Vibration    14          0.686              1.694              1.479
 Vibration    15          0.706              1.635              1.310
 Vibration    16          0.716              1.606              1.237
 Vibration    17          0.760              1.485              0.988
 Vibration    18          0.776              1.444              0.920
 Vibration    19          0.803              1.377              0.818
 Vibration    20          0.816              1.344              0.773
 Vibration    21          0.832              1.304              0.722
 Vibration    22          0.960              1.028              0.446

 Optimization completed.
    -- Stationary point found.
 Normal termination of Gaussian 16 at Wed Dec  9 17:48:24 2020.

 ----------------------------------------------------------------------
 # B3LYP/6-311++G(d,p) empiricaldispersion=gd3bj scf=xqc pop=npa geom=c
 heck
 ----------------------------------------------------------------------

 --------------------------------------
 CID_43115199_JID_2546_Energie_neutraal
 --------------------------------------
 Structure from the checkpoint file:  "JID_2546.chk"
 Charge =  0 Multiplicity = 1

 SCF Done:  E(RB3LYP) =  -502.795515578     A.U. after   14 cycles
 Normal termination of Gaussian 16 at Wed Dec  9 17:52:24 2020.

 ----------------------------------------------------------------------
 # B3LYP/6-311++G(d,p) empiricaldispersion=gd3bj scf=xqc pop=npa geom=c
 heck
 ----------------------------------------------------------------------

 ------------------------------------
 CID_43115199_JID_2546_Energie_kation
 ------------------------------------
 Structure from the checkpoint file:  "JID_2546.chk"
 Charge =  1 Multiplicity = 2

 SCF Done:  E(UB3LYP) =  -502.471894840     A.U. after   20 cycles
 Normal termination of Gaussian 16 at Wed Dec  9 18:00:48 2020.
 Gaussian 16:  ES64L-G16RevA.03 25-Dec-2016

 ----------------------------------------------------------------------
 # B3LYP/6-311++G(d,p) empiricaldispersion=gd3bj scf=xqc pop=npa geom=c
 heck
 ----------------------------------------------------------------------

 -----------------------------------
 CID_43115199_JID_2546_Energie_anion
 -----------------------------------
 Structure from the checkpoint file:  "JID_2546.chk"
 Charge = -1 Multiplicity = 2

                         Standard orientation:
 ---------------------------------------------------------------------
 Center     Atomic      Atomic             Coordinates (Angstroms)
 Number     Number       Type             X           Y           Z
 ---------------------------------------------------------------------
      1          6           0       -3.329301   -1.846384    0.196443
      2          6           0       -3.072064   -0.661582   -0.739535
      3          6           0       -2.174868    0.417342   -0.129819
      4          7           0       -0.843134   -0.120083    0.157649
      5          6           0        0.198091    0.845827    0.527846
      6          6           0       -0.171700    1.748640    1.732783
      7          6           0        1.500937    0.071611    0.866892
      8          6           0        1.899213   -1.093791   -0.055329
      9          6           0        2.124525   -0.673558   -1.511344
     10          6           0        3.150920   -1.773901    0.516509
     11          6           0        0.423462    1.748885   -0.625959
     12          7           0        0.583322    2.509017   -1.488060
     13          1           0       -2.406005   -2.398135    0.409110
     14          1           0       -4.032508   -2.556902   -0.250648
     15          1           0       -3.754718   -1.513260    1.151880
     16          1           0       -2.608241   -1.015898   -1.667599
     17          1           0       -4.028274   -0.196801   -1.011961
     18          1           0       -2.051804    1.234571   -0.848936
     19          1           0       -2.670658    0.844159    0.760364
     20          1           0       -0.900751   -0.808352    0.905327
     21          1           0       -0.405919    1.115545    2.596022
     22          1           0        0.663269    2.404454    1.998673
     23          1           0       -1.039765    2.374705    1.511877
     24          1           0        2.322146    0.797166    0.924051
     25          1           0        1.369709   -0.321350    1.885145
     26          1           0        1.078963   -1.822221   -0.045622
     27          1           0        2.870614    0.127094   -1.584665
     28          1           0        2.488020   -1.525170   -2.098175
     29          1           0        1.201114   -0.317377   -1.973470
     30          1           0        2.995387   -2.106869    1.549980
     31          1           0        3.426093   -2.649727   -0.081511
     32          1           0        4.006725   -1.086711    0.512112
 ---------------------------------------------------------------------

 SCF Done:  E(UB3LYP) =  -502.784328655     A.U. after   30 cycles

 The electronic state is 2-A.
 Alpha  occ. eigenvalues --  -14.21723 -14.20978 -10.15390 -10.11394 -10.09649
 Alpha  occ. eigenvalues --  -10.08018 -10.07688 -10.07474 -10.07054 -10.06114
 Alpha  occ. eigenvalues --  -10.05897 -10.05750  -0.83882  -0.80655  -0.72306
 Alpha  occ. eigenvalues --   -0.69080  -0.65710  -0.59790  -0.58792  -0.57435
 Alpha  occ. eigenvalues --   -0.54938  -0.48910  -0.47032  -0.41736  -0.39842
 Alpha  occ. eigenvalues --   -0.37339  -0.36125  -0.35169  -0.33480  -0.32634
 Alpha  occ. eigenvalues --   -0.31821  -0.31481  -0.30595  -0.29659  -0.29100
 Alpha  occ. eigenvalues --   -0.28470  -0.27772  -0.26686  -0.25400  -0.24882
 Alpha  occ. eigenvalues --   -0.24439  -0.24153  -0.23834  -0.23268  -0.22807
 Alpha  occ. eigenvalues --   -0.21546  -0.14159   0.04339
 Alpha virt. eigenvalues --    0.06766   0.07208   0.07858   0.08869   0.09068
 Alpha virt. eigenvalues --    0.09547   0.09968   0.10488   0.11161   0.11473
 Alpha virt. eigenvalues --    0.11766   0.12183   0.12395   0.12539   0.13237

  Beta  occ. eigenvalues --  -14.21721 -14.20954 -10.15386 -10.11392 -10.09635
  Beta  occ. eigenvalues --  -10.07992 -10.07679 -10.07434 -10.07044 -10.06086
  Beta  occ. eigenvalues --  -10.05851 -10.05741  -0.83857  -0.80645  -0.72275
  Beta  occ. eigenvalues --   -0.69052  -0.65665  -0.59730  -0.58754  -0.57365
  Beta  occ. eigenvalues --   -0.54879  -0.48837  -0.46982  -0.41697  -0.39802
  Beta  occ. eigenvalues --   -0.37302  -0.36075  -0.35128  -0.33442  -0.32582
  Beta  occ. eigenvalues --   -0.31784  -0.31444  -0.30544  -0.29617  -0.29074
  Beta  occ. eigenvalues --   -0.28443  -0.27745  -0.26661  -0.25370  -0.24841
  Beta  occ. eigenvalues --   -0.24407  -0.24121  -0.23816  -0.23235  -0.22772
  Beta  occ. eigenvalues --   -0.21526  -0.14130
  Beta virt. eigenvalues --    0.06690   0.07362   0.07873   0.08547   0.09240
  Beta virt. eigenvalues --    0.09296   0.09961   0.10496   0.10908   0.11358
  Beta virt. eigenvalues --    0.11528   0.12060   0.12318   0.12743   0.13001

 Mulliken charges and spin densities:
               1          2
     1  C    1.138192  -1.668792
     2  C   -0.788162   0.562483
     3  C    0.156798  -0.485195
     4  N    0.225663  -0.080789
     5  C   -0.846288   1.686585
     6  C    0.941947  -1.424489
     7  C    0.278522  -1.044789
     8  C   -0.815417   1.327651
     9  C   -0.408436  -0.289878
    10  C    0.698085  -1.320841
    11  C    0.395807  -1.128904
    12  N   -0.298770   0.052429
    13  H   -0.379572   0.521797
    14  H   -0.319333   0.463527
    15  H   -0.314272   0.461569
    16  H    0.101975   0.027555
    17  H   -0.033061   0.158778
    18  H    0.074493   0.097733
    19  H   -0.084535   0.215791
    20  H    0.309818  -0.058544
    21  H   -0.731083   0.927848
    22  H   -0.105059   0.256660
    23  H    0.023282   0.155858
    24  H    0.098488   0.078094
    25  H   -0.170415   0.379983
    26  H    0.130009   0.007282
    27  H    0.091817   0.056864
    28  H    0.003406   0.130536
    29  H    0.170241  -0.018722
    30  H   -0.364699   0.506463
    31  H   -0.143215   0.284983
    32  H   -0.036226   0.160476
 Sum of Mulliken charges =  -1.00000   1.00000

 Dipole moment (field-independent basis, Debye):
    X=              1.5085    Y=              2.1410    Z=             -4.3358  Tot=              5.0654
 Quadrupole moment (field-independent basis, Debye-Ang):
   XX=           -134.2460   YY=           -126.7314   ZZ=           -126.3496
   XY=             -4.5076   XZ=              4.3362   YZ=              8.5920

 Summary of Natural Population Analysis:

                                       Natural Population
                Natural  -----------------------------------------------
    Atom  No    Charge         Core      Valence    Rydberg      Total
 -----------------------------------------------------------------------
      C    1   -0.28912      0.99967     2.28422    0.00523     3.28912
      C    2   -0.19040      0.99964     2.18200    0.00876     3.19040
      C    3   -0.08840      0.99961     2.07767    0.01111     3.08840
      N    4   -0.34412      0.99972     2.83242    0.01198     3.84412
      C    5    0.01282      0.99949     1.97287    0.01482     2.98718
      C    6   -0.28339      0.99963     2.27666    0.00710     3.28339
      C    7   -0.18073      0.99958     2.16969    0.01146     3.18073
      C    8   -0.11763      0.99961     2.10795    0.01007     3.11763
      C    9   -0.28682      0.99964     2.28143    0.00575     3.28682
      C   10   -0.28135      0.99965     2.27591    0.00579     3.28135
      C   11    0.16919      0.99961     1.80913    0.02208     2.83081
      N   12   -0.18809      0.99979     2.67726    0.01104     3.68809
      H   13    0.09860      0.00000     0.39994    0.00146     0.40140
      H   14    0.09918      0.00000     0.39970    0.00112     0.40082
      H   15    0.09898      0.00000     0.39926    0.00176     0.40102
      H   16    0.09628      0.00000     0.40248    0.00124     0.40372
      H   17    0.09410      0.00000     0.40498    0.00092     0.40590
      H   18    0.09567      0.00000     0.40261    0.00171     0.40433
      H   19    0.08237      0.00000     0.41595    0.00168     0.41763
      H   20    0.18296      0.00000     0.31243    0.00461     0.31704
      H   21    0.10922      0.00000     0.38850    0.00228     0.39078
      H   22    0.10388      0.00000     0.39485    0.00127     0.39612
      H   23    0.10369      0.00000     0.39497    0.00134     0.39631
      H   24    0.10102      0.00000     0.39728    0.00170     0.39898
      H   25    0.10777      0.00000     0.39003    0.00220     0.39223
      H   26    0.10039      0.00000     0.39721    0.00240     0.39961
      H   27    0.09584      0.00000     0.40346    0.00071     0.40416
      H   28    0.09704      0.00000     0.40223    0.00072     0.40296
      H   29    0.10697      0.00000     0.39206    0.00097     0.39303
      H   30    0.10239      0.00000     0.39637    0.00125     0.39761
      H   31    0.09821      0.00000     0.40092    0.00087     0.40179
      H   32    0.09347      0.00000     0.40562    0.00090     0.40653
 =======================================================================
   * Total *   -0.00000     11.99563    34.84807    0.15629    47.00000

 Normal termination of Gaussian 16 at Wed Dec  9 18:12:28 2020.
