 Gaussian 16, Revision A.03,

 -----------------------------------------------------------
 # opt freq B3LYP/6-31G(d) empiricaldispersion=gd3bj scf=xqc
 -----------------------------------------------------------

 -------------------------------
 CID_123737735_JID_5392_neutraal
 -------------------------------
 Symbolic Z-matrix:
 Charge =  0 Multiplicity = 1

 SCF Done:  E(RB3LYP) =  -1421.38750160     A.U. after   16 cycles
 SCF Done:  E(RB3LYP) =  -1421.33862696     A.U. after   16 cycles
 SCF Done:  E(RB3LYP) =  -1421.39824195     A.U. after   14 cycles
 SCF Done:  E(RB3LYP) =  -1421.39935067     A.U. after   14 cycles
 SCF Done:  E(RB3LYP) =  -1421.39978025     A.U. after   14 cycles
 SCF Done:  E(RB3LYP) =  -1421.40226729     A.U. after   14 cycles
 SCF Done:  E(RB3LYP) =  -1421.40370074     A.U. after   13 cycles
 SCF Done:  E(RB3LYP) =  -1421.40533723     A.U. after   13 cycles
 SCF Done:  E(RB3LYP) =  -1421.40633185     A.U. after   13 cycles
 SCF Done:  E(RB3LYP) =  -1421.40676039     A.U. after   13 cycles
 SCF Done:  E(RB3LYP) =  -1421.40711732     A.U. after   12 cycles
 SCF Done:  E(RB3LYP) =  -1421.40712141     A.U. after    9 cycles
 SCF Done:  E(RB3LYP) =  -1421.40712253     A.U. after    9 cycles
 SCF Done:  E(RB3LYP) =  -1421.40712443     A.U. after    9 cycles
 SCF Done:  E(RB3LYP) =  -1421.40712459     A.U. after    8 cycles
 Optimization completed.
    -- Stationary point found.
 Normal termination of Gaussian 16 at Thu Dec 10 15:53:13 2020.

 --------------------------------------------------------------------
 #N Geom=AllCheck Guess=TCheck SCRF=Check GenChk RB3LYP/6-31G(d) Freq
 --------------------------------------------------------------------

 Structure from the checkpoint file:  "JID_5392.chk"
 -------------------------------
 CID_123737735_JID_5392_neutraal
 -------------------------------
 Charge =  0 Multiplicity = 1

 SCF Done:  E(RB3LYP) =  -1421.40712459     A.U. after    1 cycles

  Exact polarizability: 173.220  -4.506 134.450  20.772  17.447 105.848
 Approx polarizability: 273.004  -3.014 244.224  51.373  47.305 185.338

                      1                      2                      3
                      A                      A                      A
 Frequencies --     35.5725                49.3635                75.3458
 Red. masses --      8.3806                 6.6537                 8.8508
 Frc consts  --      0.0062                 0.0096                 0.0296
 IR Inten    --      0.3124                 0.5220                 1.2729

                      4                      5                      6
                      A                      A                      A
 Frequencies --     88.4381               112.3378               130.5946
 Red. masses --      5.7939                10.2663                 6.2806
 Frc consts  --      0.0267                 0.0763                 0.0631
 IR Inten    --      2.0565                 1.5085                 5.1803

                      7                      8                      9
                      A                      A                      A
 Frequencies --    180.9652               203.8785               229.4757
 Red. masses --      7.5413                 5.9522                 6.0259
 Frc consts  --      0.1455                 0.1458                 0.1870
 IR Inten    --      6.8186                 8.5452                 2.8926

                     10                     11                     12
                      A                      A                      A
 Frequencies --    276.9097               277.7597               324.7971
 Red. masses --      5.9753                 4.3431                 1.6019
 Frc consts  --      0.2700                 0.1974                 0.0996
 IR Inten    --      4.9862                 4.4315                44.0740

                     13                     14                     15
                      A                      A                      A
 Frequencies --    360.4877               378.8788               386.1239
 Red. masses --      2.2313                 1.7169                 3.3792
 Frc consts  --      0.1708                 0.1452                 0.2968
 IR Inten    --     21.2899               145.8045                54.7531

                     16                     17                     18
                      A                      A                      A
 Frequencies --    420.0207               458.0683               472.3054
 Red. masses --      4.5737                 4.7824                 3.8637
 Frc consts  --      0.4754                 0.5912                 0.5078
 IR Inten    --     17.2913                 9.1910                 6.8633

                     19                     20                     21
                      A                      A                      A
 Frequencies --    510.6893               542.7601               586.1867
 Red. masses --      3.8955                 2.0542                 6.1793
 Frc consts  --      0.5986                 0.3565                 1.2510
 IR Inten    --      6.5572                45.8549                 3.8864

                     22                     23                     24
                      A                      A                      A
 Frequencies --    598.0460               624.2607               630.7501
 Red. masses --      3.6861                 4.1008                 2.2460
 Frc consts  --      0.7768                 0.9416                 0.5265
 IR Inten    --      1.7567                 7.6384                63.6040

                     25                     26                     27
                      A                      A                      A
 Frequencies --    656.9543               666.5796               701.3184
 Red. masses --      2.8513                 2.0248                 2.9201
 Frc consts  --      0.7250                 0.5301                 0.8462
 IR Inten    --      4.0763                 6.5992                 7.3840

                     28                     29                     30
                      A                      A                      A
 Frequencies --    703.6222               744.2229               816.3358
 Red. masses --      1.2967                 3.1211                 1.7605
 Frc consts  --      0.3782                 1.0185                 0.6912
 IR Inten    --     14.9041               149.2138                29.5626

                     31                     32                     33
                      A                      A                      A
 Frequencies --    827.6277               844.8337               864.4332
 Red. masses --      4.3990                 2.3187                 2.4760
 Frc consts  --      1.7753                 0.9751                 1.0901
 IR Inten    --     16.7981                50.0686                63.2118

                     34                     35                     36
                      A                      A                      A
 Frequencies --    884.7207               904.8718               938.1501
 Red. masses --      4.4619                 1.3124                 4.3585
 Frc consts  --      2.0577                 0.6331                 2.2601
 IR Inten    --     18.3746                 1.0360                 5.9980

                     37                     38                     39
                      A                      A                      A
 Frequencies --    964.7320              1074.1211              1108.5427
 Red. masses --      2.9576                 4.2236                 2.2419
 Frc consts  --      1.6218                 2.8710                 1.6232
 IR Inten    --     38.9117                14.7836                79.2974

                     40                     41                     42
                      A                      A                      A
 Frequencies --   1117.8815              1131.6845              1156.4720
 Red. masses --      1.3523                 2.0496                 1.8041
 Frc consts  --      0.9956                 1.5466                 1.4216
 IR Inten    --    108.0831                 3.8150                17.4057

                     43                     44                     45
                      A                      A                      A
 Frequencies --   1215.8088              1226.6781              1285.1356
 Red. masses --      1.3708                 1.4748                 2.0415
 Frc consts  --      1.1939                 1.3075                 1.9866
 IR Inten    --     43.0368                70.5780               238.0672

                     46                     47                     48
                      A                      A                      A
 Frequencies --   1323.9400              1345.8595              1382.1249
 Red. masses --      1.6027                 2.0054                 1.5899
 Frc consts  --      1.6552                 2.1402                 1.7894
 IR Inten    --      5.3261                94.1608                29.7164

                     49                     50                     51
                      A                      A                      A
 Frequencies --   1399.3100              1438.9648              1480.8760
 Red. masses --      2.4797                 4.1372                 6.4667
 Frc consts  --      2.8608                 5.0472                 8.3555
 IR Inten    --     50.7786                31.5672                65.1753

                     52                     53                     54
                      A                      A                      A
 Frequencies --   1516.7932              1583.9347              1638.8360
 Red. masses --      2.3090                 5.8619                 1.2780
 Frc consts  --      3.1299                 8.6649                 2.0224
 IR Inten    --    293.2878                16.4163               114.3861

                     55                     56                     57
                      A                      A                      A
 Frequencies --   1664.2603              1808.9041              1811.1115
 Red. masses --      1.1289                11.5403                 7.2583
 Frc consts  --      1.8423                22.2484                14.0273
 IR Inten    --    115.4695               369.3291               216.0052

                     58                     59                     60
                      A                      A                      A
 Frequencies --   3027.2011              3246.8807              3277.0791
 Red. masses --      1.0827                 1.0903                 1.0984
 Frc consts  --      5.8455                 6.7721                 6.9502
 IR Inten    --     12.3672                 0.6831                 0.3313

                     61                     62                     63
                      A                      A                      A
 Frequencies --   3285.4237              3477.9731              3538.2756
 Red. masses --      1.0940                 1.0524                 1.0499
 Frc consts  --      6.9572                 7.5003                 7.7439
 IR Inten    --      1.2765                23.2857                54.0909

                     64                     65                     66
                      A                      A                      A
 Frequencies --   3566.8835              3594.5373              3687.8171
 Red. masses --      1.0761                 1.0914                 1.1016
 Frc consts  --      8.0662                 8.3083                 8.8270
 IR Inten    --     52.4192                17.1785                85.1681

 - Thermochemistry -
 -------------------
 Temperature   298.150 Kelvin.  Pressure   1.00000 Atm.
 Atom     1 has atomic number  6 and mass  12.00000

 Molecular mass:   243.01362 amu.
 Principal axes and moments of inertia in atomic units:
                           1         2         3
     Eigenvalues --  2561.723034244.573065251.04536
           X            0.99987   0.01611   0.00304
           Y           -0.01615   0.99976   0.01477
           Z           -0.00281  -0.01482   0.99989
 This molecule is an asymmetric top.
 Rotational symmetry number  1.
 Warning -- assumption of classical behavior for rotation
           may cause significant error
 Rotational temperatures (Kelvin)      0.03381     0.02041     0.01649
 Rotational constants (GHZ):           0.70450     0.42519     0.34369
 Zero-point vibrational energy     459878.8 (Joules/Mol)
                                  109.91367 (Kcal/Mol)
 Warning -- explicit consideration of  22 degrees of freedom as
           vibrations may cause significant error
 Vibrational temperatures:     51.18    71.02   108.41   127.24   161.63
          (Kelvin)            187.90   260.37   293.34   330.16   398.41
                              399.63   467.31   518.66   545.12   555.55
                              604.32   659.06   679.54   734.77   780.91
                              843.39   860.45   898.17   907.51   945.21
                              959.06  1009.04  1012.36  1070.77  1174.53
                             1190.77  1215.53  1243.73  1272.92  1301.91
                             1349.79  1388.03  1545.42  1594.95  1608.38
                             1628.24  1663.91  1749.28  1764.92  1849.02
                             1904.85  1936.39  1988.57  2013.30  2070.35
                             2130.65  2182.33  2278.93  2357.92  2394.50
                             2602.61  2605.79  4355.47  4671.54  4714.99
                             4726.99  5004.03  5090.79  5131.95  5171.74
                             5305.95

 Zero-point correction=                           0.175159 (Hartree/Particle)
 Thermal correction to Energy=                    0.189670
 Thermal correction to Enthalpy=                  0.190614
 Thermal correction to Gibbs Free Energy=         0.132878
 Sum of electronic and zero-point Energies=          -1421.231966
 Sum of electronic and thermal Energies=             -1421.217455
 Sum of electronic and thermal Enthalpies=           -1421.216510
 Sum of electronic and thermal Free Energies=        -1421.274246

                     E (Thermal)             CV                S
                      KCal/Mol        Cal/Mol-Kelvin    Cal/Mol-Kelvin
 Total                  119.020             54.569            121.515
 Electronic               0.000              0.000              0.000
 Translational            0.889              2.981             42.365
 Rotational               0.889              2.981             32.412
 Vibrational            117.242             48.608             46.738
 Vibration     1          0.594              1.982              5.492
 Vibration     2          0.595              1.978              4.843
 Vibration     3          0.599              1.965              4.009
 Vibration     4          0.601              1.957              3.694
 Vibration     5          0.607              1.939              3.228
 Vibration     6          0.612              1.923              2.937
 Vibration     7          0.630              1.866              2.318
 Vibration     8          0.640              1.834              2.098
 Vibration     9          0.652              1.796              1.883
 Vibration    10          0.678              1.716              1.553
 Vibration    11          0.679              1.715              1.547
 Vibration    12          0.709              1.626              1.286
 Vibration    13          0.735              1.554              1.120
 Vibration    14          0.749              1.515              1.044
 Vibration    15          0.755              1.500              1.015
 Vibration    16          0.783              1.427              0.892
 Vibration    17          0.816              1.343              0.772
 Vibration    18          0.829              1.311              0.731
 Vibration    19          0.866              1.226              0.632
 Vibration    20          0.898              1.156              0.559
 Vibration    21          0.943              1.061              0.474
 Vibration    22          0.956              1.036              0.453

 Optimization completed.
    -- Stationary point found.
 Normal termination of Gaussian 16 at Thu Dec 10 16:01:46 2020.

 ----------------------------------------------------------------------
 # B3LYP/6-311++G(d,p) empiricaldispersion=gd3bj scf=xqc pop=npa geom=c
 heck
 ----------------------------------------------------------------------

 ---------------------------------------
 CID_123737735_JID_5392_Energie_neutraal
 ---------------------------------------
 Structure from the checkpoint file:  "JID_5392.chk"
 Charge =  0 Multiplicity = 1

 SCF Done:  E(RB3LYP) =  -1421.65401848     A.U. after   18 cycles
 Normal termination of Gaussian 16 at Thu Dec 10 16:06:22 2020.

 ----------------------------------------------------------------------
 # B3LYP/6-311++G(d,p) empiricaldispersion=gd3bj scf=xqc pop=npa geom=c
 heck
 ----------------------------------------------------------------------

 -------------------------------------
 CID_123737735_JID_5392_Energie_kation
 -------------------------------------
 Structure from the checkpoint file:  "JID_5392.chk"
 Charge =  1 Multiplicity = 2

 SCF Done:  E(UB3LYP) =  -1421.34419361     A.U. after   33 cycles
 SCF Done:  E(UB3LYP) =  -1421.34419361     a.u. after    1 cycles
 Normal termination of Gaussian 16 at Thu Dec 10 16:19:23 2020.
 Gaussian 16:  ES64L-G16RevA.03 25-Dec-2016

 ----------------------------------------------------------------------
 # B3LYP/6-311++G(d,p) empiricaldispersion=gd3bj scf=xqc pop=npa geom=c
 heck
 ----------------------------------------------------------------------

 ------------------------------------
 CID_123737735_JID_5392_Energie_anion
 ------------------------------------
 Structure from the checkpoint file:  "JID_5392.chk"
 Charge = -1 Multiplicity = 2

                         Standard orientation:
 ---------------------------------------------------------------------
 Center     Atomic      Atomic             Coordinates (Angstroms)
 Number     Number       Type             X           Y           Z
 ---------------------------------------------------------------------
      1          6           0        2.452133    1.017756    0.511527
      2          6           0        3.314898    0.019628    0.171756
      3         16           0        2.651709   -1.016807   -1.059791
      4          6           0        1.191097   -0.102361   -1.105700
      5          6           0        1.216615    0.939901   -0.209589
      6          6           0        0.138823    1.932025   -0.061504
      7          8           0        0.311322    3.099605    0.212527
      8          7           0       -1.170838    1.502118   -0.501780
      9          6           0       -1.888190    0.415196   -0.148605
     10         16           0       -3.304380    0.012097   -0.936555
     11          6           0       -1.414696   -0.373615    1.079852
     12          6           0       -0.643605   -1.688602    0.754332
     13          8           0        0.321939   -2.010817    1.432435
     14          7           0       -1.146832   -2.430793   -0.255558
     15          7           0       -0.597124    0.433721    1.959543
     16          1           0        2.651729    1.781513    1.252657
     17          1           0        4.302119   -0.176570    0.566758
     18          1           0        0.394487   -0.376654   -1.781589
     19          1           0       -1.650646    2.171747   -1.095535
     20          1           0       -2.349515   -0.713425    1.547615
     21          1           0       -2.010800   -2.165256   -0.714382
     22          1           0       -0.745998   -3.343212   -0.419795
     23          1           0       -1.145217    0.852537    2.703525
     24          1           0        0.131593   -0.160525    2.354732
 ---------------------------------------------------------------------

 SCF Done:  E(UB3LYP) =  -1421.68363543     A.U. after   27 cycles

 The electronic state is 2-A.
 Alpha  occ. eigenvalues --  -88.76319 -88.64540 -18.98276 -18.95012 -14.22077
 Alpha  occ. eigenvalues --  -14.20416 -14.17492 -10.16370 -10.12721 -10.09408
 Alpha  occ. eigenvalues --  -10.08939 -10.08291 -10.07663 -10.06401 -10.06124
 Alpha  occ. eigenvalues --   -7.84945  -7.73313  -5.81230  -5.80864  -5.80559
 Alpha  occ. eigenvalues --   -5.69647  -5.69218  -5.68903  -0.93404  -0.90509
 Alpha  occ. eigenvalues --   -0.80843  -0.79783  -0.76771  -0.76449  -0.63719
 Alpha  occ. eigenvalues --   -0.62198  -0.61486  -0.56083  -0.49485  -0.48127
 Alpha  occ. eigenvalues --   -0.46032  -0.45533  -0.43020  -0.42278  -0.40428
 Alpha  occ. eigenvalues --   -0.39249  -0.34177  -0.33885  -0.32188  -0.31843
 Alpha  occ. eigenvalues --   -0.30767  -0.29184  -0.28612  -0.27803  -0.27148
 Alpha  occ. eigenvalues --   -0.26164  -0.24890  -0.24108  -0.22110  -0.21230
 Alpha  occ. eigenvalues --   -0.16961  -0.15546  -0.14702  -0.13205  -0.12638
 Alpha  occ. eigenvalues --   -0.12103  -0.09723  -0.07273   0.02782
 Alpha virt. eigenvalues --    0.08003   0.08239   0.08528   0.09550   0.10718
 Alpha virt. eigenvalues --    0.11246   0.11623   0.12015   0.12721   0.13135
 Alpha virt. eigenvalues --    0.13506   0.13885   0.14398   0.14498   0.15521

  Beta  occ. eigenvalues --  -88.76312 -88.64489 -18.98267 -18.94646 -14.22071
  Beta  occ. eigenvalues --  -14.20475 -14.17479 -10.16301 -10.12430 -10.09459
  Beta  occ. eigenvalues --  -10.08968 -10.07551 -10.07486 -10.06373 -10.06170
  Beta  occ. eigenvalues --   -7.84938  -7.73267  -5.81225  -5.80863  -5.80532
  Beta  occ. eigenvalues --   -5.69644  -5.69035  -5.68870  -0.93364  -0.89862
  Beta  occ. eigenvalues --   -0.80452  -0.79701  -0.76682  -0.76368  -0.63349
  Beta  occ. eigenvalues --   -0.61909  -0.61213  -0.55801  -0.48981  -0.47800
  Beta  occ. eigenvalues --   -0.45838  -0.45340  -0.42870  -0.42159  -0.40331
  Beta  occ. eigenvalues --   -0.39105  -0.34086  -0.33758  -0.31991  -0.31545
  Beta  occ. eigenvalues --   -0.30270  -0.28739  -0.28451  -0.27512  -0.26902
  Beta  occ. eigenvalues --   -0.25955  -0.24037  -0.23899  -0.21386  -0.19658
  Beta  occ. eigenvalues --   -0.16951  -0.15373  -0.14413  -0.12864  -0.12213
  Beta  occ. eigenvalues --   -0.11781  -0.08674  -0.07073
  Beta virt. eigenvalues --    0.08070   0.08449   0.08764   0.09139   0.09989
  Beta virt. eigenvalues --    0.10765   0.11307   0.11870   0.12728   0.13125
  Beta virt. eigenvalues --    0.13230   0.13568   0.13942   0.14417   0.14679

 Mulliken charges and spin densities:
               1          2
     1  C    0.387372   0.032314
     2  C   -0.619450  -0.026075
     3  S   -0.222584   0.025366
     4  C    1.110839   0.099774
     5  C   -0.807045  -0.030756
     6  C   -0.461937   0.152148
     7  O   -0.373218   0.138759
     8  N   -0.150873  -0.052225
     9  C   -0.121854   0.400005
    10  S   -1.095175   0.212746
    11  C    0.871995  -0.097359
    12  C   -0.602348  -0.003997
    13  O   -0.341215   0.004092
    14  N   -0.241142   0.005005
    15  N   -0.383194   0.012295
    16  H    0.184523  -0.000306
    17  H    0.219166   0.000614
    18  H    0.324018   0.018495
    19  H    0.263519   0.039902
    20  H    0.189125   0.034324
    21  H    0.168858   0.023119
    22  H    0.251791   0.011576
    23  H    0.256340   0.000122
    24  H    0.192487   0.000060
 Sum of Mulliken charges =  -1.00000   1.00000

 Dipole moment (field-independent basis, Debye):
    X=              4.4660    Y=             -3.9459    Z=              1.2858  Tot=              6.0966
 Quadrupole moment (field-independent basis, Debye-Ang):
   XX=           -140.9302   YY=           -127.8099   ZZ=           -110.9911
   XY=              1.4884   XZ=             -6.3628   YZ=              4.5881

 Summary of Natural Population Analysis:

                                       Natural Population
                Natural  -----------------------------------------------
    Atom  No    Charge         Core      Valence    Rydberg      Total
 -----------------------------------------------------------------------
      C    1   -0.10054      0.99949     2.09178    0.00926     3.10054
      C    2   -0.20621      0.99955     2.19641    0.01026     3.20621
      S    3    0.19575      4.99944     2.78162    0.02319     7.80425
      C    4   -0.14600      0.99949     2.13717    0.00934     3.14600
      C    5   -0.09783      0.99943     2.08257    0.01582     3.09783
      C    6    0.39023      0.99959     1.58802    0.02217     2.60977
      O    7   -0.26624      0.99987     3.26061    0.00576     4.26624
      N    8   -0.32572      0.99961     2.81326    0.01285     3.82572
      C    9    0.18394      0.99962     1.79574    0.02070     2.81606
      S   10   -0.14501      4.99956     3.13081    0.01465     8.14501
      C   11   -0.08559      0.99950     2.07191    0.01419     3.08559
      C   12    0.35033      0.99968     1.62500    0.02499     2.64967
      O   13   -0.33195      0.99987     3.32530    0.00678     4.33195
      N   14   -0.40925      0.99968     2.90192    0.00765     3.90925
      N   15   -0.41875      0.99975     2.90741    0.01159     3.91875
      H   16    0.11080      0.00000     0.38814    0.00106     0.38920
      H   17    0.10343      0.00000     0.39569    0.00089     0.39657
      H   18    0.11735      0.00000     0.38132    0.00133     0.38265
      H   19    0.20213      0.00000     0.29591    0.00196     0.29787
      H   20    0.11203      0.00000     0.38644    0.00153     0.38797
      H   21    0.21081      0.00000     0.28669    0.00250     0.28919
      H   22    0.18819      0.00000     0.30924    0.00257     0.31181
      H   23    0.17661      0.00000     0.32229    0.00110     0.32339
      H   24    0.19149      0.00000     0.30695    0.00156     0.30851
 =======================================================================
   * Total *   -0.00000     22.99414    39.78219    0.22367    63.00000

 Normal termination of Gaussian 16 at Thu Dec 10 16:28:23 2020.
