 Gaussian 16, Revision A.03,

 -----------------------------------------------------------
 # opt freq B3LYP/6-31G(d) empiricaldispersion=gd3bj scf=xqc
 -----------------------------------------------------------

 -------------------------------
 CID_116190346_JID_5954_neutraal
 -------------------------------
 Symbolic Z-matrix:
 Charge =  0 Multiplicity = 1

 SCF Done:  E(RB3LYP) =  -655.282525274     A.U. after   14 cycles
 SCF Done:  E(RB3LYP) =  -655.290588312     A.U. after   12 cycles
 SCF Done:  E(RB3LYP) =  -655.284407613     A.U. after   12 cycles
 SCF Done:  E(RB3LYP) =  -655.288329032     A.U. after   12 cycles
 SCF Done:  E(RB3LYP) =  -655.292254107     A.U. after   10 cycles
 SCF Done:  E(RB3LYP) =  -655.291782162     A.U. after   12 cycles
 SCF Done:  E(RB3LYP) =  -655.293761652     A.U. after   12 cycles
 SCF Done:  E(RB3LYP) =  -655.294072011     A.U. after   11 cycles
 SCF Done:  E(RB3LYP) =  -655.294511075     A.U. after   11 cycles
 SCF Done:  E(RB3LYP) =  -655.294866056     A.U. after   12 cycles
 SCF Done:  E(RB3LYP) =  -655.298835382     A.U. after   10 cycles
 SCF Done:  E(RB3LYP) =  -655.298836640     A.U. after    7 cycles
 SCF Done:  E(RB3LYP) =  -655.298836785     A.U. after    7 cycles
 SCF Done:  E(RB3LYP) =  -655.298836849     A.U. after    7 cycles
 SCF Done:  E(RB3LYP) =  -655.298836861     A.U. after    6 cycles
 Optimization completed.
    -- Stationary point found.
 Normal termination of Gaussian 16 at Thu Dec 10 18:19:42 2020.

 --------------------------------------------------------------------
 #N Geom=AllCheck Guess=TCheck SCRF=Check GenChk RB3LYP/6-31G(d) Freq
 --------------------------------------------------------------------

 Structure from the checkpoint file:  "JID_5954.chk"
 -------------------------------
 CID_116190346_JID_5954_neutraal
 -------------------------------
 Charge =  0 Multiplicity = 1

 SCF Done:  E(RB3LYP) =  -655.298836861     A.U. after    1 cycles

  Exact polarizability: 164.033   0.370 123.934  -1.303  -1.245 121.157
 Approx polarizability: 203.841   3.664 177.263  -8.144  -2.954 194.971

                      1                      2                      3
                      A                      A                      A
 Frequencies --     19.7522                65.1248                82.3232
 Red. masses --      3.1823                 3.5884                 3.7216
 Frc consts  --      0.0007                 0.0090                 0.0149
 IR Inten    --      0.6124                 1.5025                 1.2867

                      4                      5                      6
                      A                      A                      A
 Frequencies --    110.1368               146.2413               168.0879
 Red. masses --      3.6921                 2.8369                 2.6750
 Frc consts  --      0.0264                 0.0357                 0.0445
 IR Inten    --      1.6369                 0.2177                 0.4007

                      7                      8                      9
                      A                      A                      A
 Frequencies --    194.5475               220.7268               246.0135
 Red. masses --      4.2560                 2.0558                 1.4816
 Frc consts  --      0.0949                 0.0590                 0.0528
 IR Inten    --      0.8350                 0.7362                 0.7486

                     10                     11                     12
                      A                      A                      A
 Frequencies --    267.7550               273.3764               307.2434
 Red. masses --      1.8127                 2.2665                 2.0945
 Frc consts  --      0.0766                 0.0998                 0.1165
 IR Inten    --      1.1781                 0.6901                 5.2689

                     13                     14                     15
                      A                      A                      A
 Frequencies --    313.2356               340.4022               364.7948
 Red. masses --      1.2426                 2.3890                 2.0901
 Frc consts  --      0.0718                 0.1631                 0.1639
 IR Inten    --      2.1671                 0.9891                15.6305

                     16                     17                     18
                      A                      A                      A
 Frequencies --    367.7709               390.4550               424.4892
 Red. masses --      1.2806                 2.4460                 3.7126
 Frc consts  --      0.1021                 0.2197                 0.3942
 IR Inten    --     37.5403                 7.8265                 3.4527

                     19                     20                     21
                      A                      A                      A
 Frequencies --    428.2071               461.3054               498.3248
 Red. masses --      2.3357                 2.7851                 2.7799
 Frc consts  --      0.2523                 0.3492                 0.4067
 IR Inten    --      0.1367                 4.7646                 5.9943

                     22                     23                     24
                      A                      A                      A
 Frequencies --    526.3885               550.8650               594.0925
 Red. masses --      4.0653                 2.2795                 3.7008
 Frc consts  --      0.6637                 0.4076                 0.7696
 IR Inten    --      9.2494                 0.5149                 9.5247

                     25                     26                     27
                      A                      A                      A
 Frequencies --    638.8261               684.0822               707.0383
 Red. masses --      2.2571                 2.2671                 1.7475
 Frc consts  --      0.5427                 0.6251                 0.5147
 IR Inten    --     27.2608                15.3124                 4.4934

                     28                     29                     30
                      A                      A                      A
 Frequencies --    770.9205               795.0442               821.3661
 Red. masses --      3.1285                 2.1398                 1.2760
 Frc consts  --      1.0955                 0.7969                 0.5072
 IR Inten    --     21.6046                19.2628                 0.6676

                     31                     32                     33
                      A                      A                      A
 Frequencies --    860.9313               866.9413               882.9282
 Red. masses --      2.1175                 2.0231                 1.9081
 Frc consts  --      0.9247                 0.8959                 0.8764
 IR Inten    --      6.0788                 2.1004                23.1715

                     34                     35                     36
                      A                      A                      A
 Frequencies --    886.3360               912.8815               929.5825
 Red. masses --      1.9164                 1.7459                 1.9290
 Frc consts  --      0.8870                 0.8572                 0.9821
 IR Inten    --      0.7853                10.8510                 2.3669

                     37                     38                     39
                      A                      A                      A
 Frequencies --    935.7898               938.5220               963.8264
 Red. masses --      2.2036                 1.9932                 2.3221
 Frc consts  --      1.1370                 1.0344                 1.2709
 IR Inten    --      6.3276                 1.0968                 2.1110

                     40                     41                     42
                      A                      A                      A
 Frequencies --    969.9327              1006.4780              1008.2938
 Red. masses --      1.5294                 2.0751                 1.7235
 Frc consts  --      0.8477                 1.2385                 1.0324
 IR Inten    --     81.5308                 3.1036                 6.1347

                     43                     44                     45
                      A                      A                      A
 Frequencies --   1020.8912              1025.6523              1054.5258
 Red. masses --      1.9266                 1.7671                 1.5355
 Frc consts  --      1.1830                 1.0952                 1.0061
 IR Inten    --      4.0657                20.9910                 0.5820

                     46                     47                     48
                      A                      A                      A
 Frequencies --   1097.9276              1108.2260              1121.9896
 Red. masses --      1.3259                 2.1628                 1.6910
 Frc consts  --      0.9417                 1.5651                 1.2542
 IR Inten    --      1.1383                16.4653                25.9081

                     49                     50                     51
                      A                      A                      A
 Frequencies --   1165.3801              1179.7870              1190.1203
 Red. masses --      2.6102                 1.9494                 1.8721
 Frc consts  --      2.0886                 1.5986                 1.5623
 IR Inten    --      2.6876                 2.5217                 3.6715

                     52                     53                     54
                      A                      A                      A
 Frequencies --   1197.1747              1206.7257              1222.3488
 Red. masses --      1.6370                 2.1667                 1.7179
 Frc consts  --      1.3824                 1.8589                 1.5123
 IR Inten    --     14.7560                 3.8867                 1.1342

                     55                     56                     57
                      A                      A                      A
 Frequencies --   1225.1059              1244.0509              1283.2008
 Red. masses --      1.6163                 1.9671                 1.3612
 Frc consts  --      1.4293                 1.7938                 1.3205
 IR Inten    --     11.6364                16.5754                 1.4200

                     58                     59                     60
                      A                      A                      A
 Frequencies --   1286.1973              1294.1562              1295.3827
 Red. masses --      1.3151                 1.5529                 1.7068
 Frc consts  --      1.2818                 1.5324                 1.6875
 IR Inten    --      2.2495                 9.4682                 4.6327

                     61                     62                     63
                      A                      A                      A
 Frequencies --   1307.7519              1333.2101              1340.4203
 Red. masses --      1.7413                 1.4005                 1.4710
 Frc consts  --      1.7545                 1.4667                 1.5572
 IR Inten    --      8.6460                22.4181                40.8953

                     64                     65                     66
                      A                      A                      A
 Frequencies --   1355.2770              1363.5482              1367.6242
 Red. masses --      1.4438                 1.4690                 1.4152
 Frc consts  --      1.5625                 1.6092                 1.5596
 IR Inten    --     24.1421                54.2868                37.1543

                     67                     68                     69
                      A                      A                      A
 Frequencies --   1400.9909              1432.7478              1438.7676
 Red. masses --      2.6055                 1.2835                 1.2641
 Frc consts  --      3.0131                 1.5523                 1.5417
 IR Inten    --    149.8545                 4.3242                25.5347

                     70                     71                     72
                      A                      A                      A
 Frequencies --   1449.6558              1485.0709              1505.0909
 Red. masses --      1.3741                 1.3802                 1.1032
 Frc consts  --      1.7014                 1.7935                 1.4724
 IR Inten    --     57.2254                 8.3110                 0.5716

                     73                     74                     75
                      A                      A                      A
 Frequencies --   1512.5850              1517.1089              1519.8506
 Red. masses --      1.0906                 1.0808                 1.0803
 Frc consts  --      1.4701                 1.4656                 1.4702
 IR Inten    --      2.3666                 3.6956                 2.9583

                     76                     77                     78
                      A                      A                      A
 Frequencies --   1524.1255              1529.0327              1534.7323
 Red. masses --      1.0806                 1.0637                 1.0596
 Frc consts  --      1.4789                 1.4652                 1.4704
 IR Inten    --      4.3532                 1.6923                 2.9234

                     79                     80                     81
                      A                      A                      A
 Frequencies --   1540.4850              1544.0251              1549.4172
 Red. masses --      1.0985                 1.0823                 1.0925
 Frc consts  --      1.5360                 1.5202                 1.5453
 IR Inten    --      3.5186                11.7037                 6.1638

                     82                     83                     84
                      A                      A                      A
 Frequencies --   1678.6267              1728.4681              3038.7334
 Red. masses --      1.2751                 3.2617                 1.0702
 Frc consts  --      2.1169                 5.7413                 5.8222
 IR Inten    --    144.4799               158.6020                19.1572

                     85                     86                     87
                      A                      A                      A
 Frequencies --   3041.5828              3046.7826              3054.0309
 Red. masses --      1.0674                 1.0764                 1.0387
 Frc consts  --      5.8181                 5.8873                 5.7081
 IR Inten    --     20.5915                25.8836                17.2645

                     88                     89                     90
                      A                      A                      A
 Frequencies --   3060.9315              3064.5982              3069.3682
 Red. masses --      1.0451                 1.0567                 1.0585
 Frc consts  --      5.7689                 5.8474                 5.8756
 IR Inten    --     24.0820                45.2133                11.4634

                     91                     92                     93
                      A                      A                      A
 Frequencies --   3075.0593              3079.5079              3092.3026
 Red. masses --      1.0654                 1.0621                 1.0991
 Frc consts  --      5.9354                 5.9343                 6.1921
 IR Inten    --     45.3078                49.5791                48.7020

                     94                     95                     96
                      A                      A                      A
 Frequencies --   3099.2194              3114.2211              3115.5047
 Red. masses --      1.1006                 1.1082                 1.1024
 Frc consts  --      6.2284                 6.3325                 6.3047
 IR Inten    --     45.1632                13.4356                24.5543

                     97                     98                     99
                      A                      A                      A
 Frequencies --   3117.5154              3127.9076              3140.0307
 Red. masses --      1.0997                 1.1098                 1.1088
 Frc consts  --      6.2971                 6.3976                 6.4411
 IR Inten    --     42.0655                51.5657                26.8951

                    100                    101                    102
                      A                      A                      A
 Frequencies --   3142.7491              3153.5375              3188.7445
 Red. masses --      1.0994                 1.0979                 1.0941
 Frc consts  --      6.3976                 6.4331                 6.5548
 IR Inten    --     14.1933                20.0475                12.0373

                    103                    104                    105
                      A                      A                      A
 Frequencies --   3456.1272              3542.6279              3545.1814
 Red. masses --      1.0495                 1.0927                 1.0742
 Frc consts  --      7.3859                 8.0800                 7.9541
 IR Inten    --      2.9054                 1.5835                13.0785

 - Thermochemistry -
 -------------------
 Temperature   298.150 Kelvin.  Pressure   1.00000 Atm.
 Atom     1 has atomic number  6 and mass  12.00000

 Molecular mass:   210.17321 amu.
 Principal axes and moments of inertia in atomic units:
                           1         2         3
     Eigenvalues --  1595.836004568.488654767.04475
           X            0.99999   0.00270   0.00228
           Y           -0.00247   0.99556  -0.09412
           Z           -0.00252   0.09411   0.99556
 This molecule is an asymmetric top.
 Rotational symmetry number  1.
 Warning -- assumption of classical behavior for rotation
           may cause significant error
 Rotational temperatures (Kelvin)      0.05427     0.01896     0.01817
 Rotational constants (GHZ):           1.13091     0.39504     0.37859
 Zero-point vibrational energy     882156.8 (Joules/Mol)
                                  210.84054 (Kcal/Mol)
 Warning -- explicit consideration of  24 degrees of freedom as
           vibrations may cause significant error
 Vibrational temperatures:     28.42    93.70   118.44   158.46   210.41
          (Kelvin)            241.84   279.91   317.58   353.96   385.24
                              393.33   442.05   450.68   489.76   524.86
                              529.14   561.78   610.75   616.09   663.72
                              716.98   757.36   792.57   854.77   919.13
                              984.24  1017.27  1109.18  1143.89  1181.76
                             1238.69  1247.34  1270.34  1275.24  1313.43
                             1337.46  1346.39  1350.32  1386.73  1395.52
                             1448.10  1450.71  1468.83  1475.68  1517.23
                             1579.67  1594.49  1614.29  1676.72  1697.45
                             1712.32  1722.47  1736.21  1758.69  1762.65
                             1789.91  1846.24  1850.55  1862.00  1863.77
                             1881.56  1918.19  1928.57  1949.94  1961.84
                             1967.71  2015.71  2061.40  2070.07  2085.73
                             2136.69  2165.49  2176.27  2182.78  2186.73
                             2192.88  2199.94  2208.14  2216.41  2221.51
                             2229.27  2415.17  2486.88  4372.06  4376.16
                             4383.64  4394.07  4404.00  4409.27  4416.14
                             4424.32  4430.72  4449.13  4459.09  4480.67
                             4482.52  4485.41  4500.36  4517.80  4521.72
                             4537.24  4587.89  4972.60  5097.05  5100.73

 Zero-point correction=                           0.335996 (Hartree/Particle)
 Thermal correction to Energy=                    0.351265
 Thermal correction to Enthalpy=                  0.352209
 Thermal correction to Gibbs Free Energy=         0.294052
 Sum of electronic and zero-point Energies=           -654.962841
 Sum of electronic and thermal Energies=              -654.947572
 Sum of electronic and thermal Enthalpies=            -654.946628
 Sum of electronic and thermal Free Energies=         -655.004785

                     E (Thermal)             CV                S
                      KCal/Mol        Cal/Mol-Kelvin    Cal/Mol-Kelvin
 Total                  220.422             60.980            122.402
 Electronic               0.000              0.000              0.000
 Translational            0.889              2.981             41.932
 Rotational               0.889              2.981             31.919
 Vibrational            218.645             55.018             48.551
 Vibration     1          0.593              1.986              6.659
 Vibration     2          0.597              1.971              4.296
 Vibration     3          0.600              1.961              3.835
 Vibration     4          0.606              1.941              3.267
 Vibration     5          0.617              1.907              2.721
 Vibration     6          0.625              1.882              2.457
 Vibration     7          0.635              1.847              2.184
 Vibration     8          0.647              1.810              1.953
 Vibration     9          0.660              1.769              1.759
 Vibration    10          0.673              1.732              1.611
 Vibration    11          0.676              1.722              1.575
 Vibration    12          0.697              1.660              1.377
 Vibration    13          0.701              1.648              1.345
 Vibration    14          0.720              1.595              1.210
 Vibration    15          0.738              1.545              1.102
 Vibration    16          0.740              1.539              1.089
 Vibration    17          0.758              1.491              0.998
 Vibration    18          0.786              1.417              0.877
 Vibration    19          0.790              1.409              0.865
 Vibration    20          0.819              1.336              0.762
 Vibration    21          0.854              1.254              0.662
 Vibration    22          0.881              1.192              0.595
 Vibration    23          0.906              1.138              0.542
 Vibration    24          0.952              1.044              0.460

 Optimization completed.
    -- Stationary point found.
 Normal termination of Gaussian 16 at Thu Dec 10 18:34:42 2020.

 ----------------------------------------------------------------------
 # B3LYP/6-311++G(d,p) empiricaldispersion=gd3bj scf=xqc pop=npa geom=c
 heck
 ----------------------------------------------------------------------

 ---------------------------------------
 CID_116190346_JID_5954_Energie_neutraal
 ---------------------------------------
 Structure from the checkpoint file:  "JID_5954.chk"
 Charge =  0 Multiplicity = 1

 SCF Done:  E(RB3LYP) =  -655.488830180     A.U. after   14 cycles
 Normal termination of Gaussian 16 at Thu Dec 10 18:41:49 2020.

 ----------------------------------------------------------------------
 # B3LYP/6-311++G(d,p) empiricaldispersion=gd3bj scf=xqc pop=npa geom=c
 heck
 ----------------------------------------------------------------------

 -------------------------------------
 CID_116190346_JID_5954_Energie_kation
 -------------------------------------
 Structure from the checkpoint file:  "JID_5954.chk"
 Charge =  1 Multiplicity = 2

 SCF Done:  E(UB3LYP) =  -655.184698756     A.U. after   25 cycles
 Normal termination of Gaussian 16 at Thu Dec 10 18:59:48 2020.
 Gaussian 16:  ES64L-G16RevA.03 25-Dec-2016

 ----------------------------------------------------------------------
 # B3LYP/6-311++G(d,p) empiricaldispersion=gd3bj scf=xqc pop=npa geom=c
 heck
 ----------------------------------------------------------------------

 ------------------------------------
 CID_116190346_JID_5954_Energie_anion
 ------------------------------------
 Structure from the checkpoint file:  "JID_5954.chk"
 Charge = -1 Multiplicity = 2

                         Standard orientation:
 ---------------------------------------------------------------------
 Center     Atomic      Atomic             Coordinates (Angstroms)
 Number     Number       Type             X           Y           Z
 ---------------------------------------------------------------------
      1          6           0       -2.673045   -1.704505    0.527483
      2          6           0       -2.158263   -0.389401   -0.060740
      3          6           0       -2.016820    0.758468    0.988265
      4          6           0       -3.422847    1.269248    0.589561
      5          6           0       -3.322477    0.428459   -0.704841
      6          7           0       -1.072934   -0.620650   -1.032474
      7          6           0        0.282021   -0.403346   -1.070779
      8          8           0        0.796544   -0.174045   -2.170557
      9          6           0        1.196552   -0.476578    0.163779
     10          6           0        2.517346   -1.204418   -0.240070
     11          6           0        3.634122   -0.435828    0.477768
     12          6           0        3.191214    1.015976    0.288835
     13          6           0        1.667748    0.990986    0.543545
     14          7           0        0.887007    2.034055   -0.130143
     15          6           0        0.615054   -1.195098    1.385962
     16          1           0       -1.914761   -2.196220    1.140787
     17          1           0       -3.553902   -1.525638    1.154861
     18          1           0       -2.960886   -2.390918   -0.276729
     19          1           0       -1.888573    0.450638    2.030234
     20          1           0       -1.219786    1.451150    0.704783
     21          1           0       -3.537962    2.349017    0.464247
     22          1           0       -4.209567    0.911361    1.260573
     23          1           0       -2.960738    1.029762   -1.544854
     24          1           0       -4.202325   -0.141470   -1.022147
     25          1           0       -1.409521   -0.557384   -1.988363
     26          1           0        2.483307   -2.268332    0.018517
     27          1           0        2.652349   -1.118749   -1.319874
     28          1           0        4.625871   -0.646232    0.063775
     29          1           0        3.666032   -0.690619    1.545751
     30          1           0        3.366201    1.317567   -0.752451
     31          1           0        3.709408    1.732904    0.936530
     32          1           0        1.484313    1.116991    1.617619
     33          1           0        1.232073    2.948688    0.157692
     34          1           0        1.043351    1.961486   -1.135820
     35          1           0        0.267764   -2.198402    1.120276
     36          1           0        1.399249   -1.308405    2.143216
     37          1           0       -0.206393   -0.652446    1.851546
 ---------------------------------------------------------------------

 SCF Done:  E(UB3LYP) =  -655.473352682     A.U. after   33 cycles
 SCF Done:  E(UB3LYP) =  -655.473352681     a.u. after    1 cycles

 The electronic state is 2-A.
 Alpha  occ. eigenvalues --  -18.98791 -14.23360 -14.19570 -10.17561 -10.12610
 Alpha  occ. eigenvalues --  -10.10435 -10.09522 -10.07492 -10.07047 -10.06992
 Alpha  occ. eigenvalues --  -10.06604 -10.06524 -10.06335 -10.06335 -10.06297
 Alpha  occ. eigenvalues --   -0.94076  -0.82462  -0.79786  -0.74064  -0.73048
 Alpha  occ. eigenvalues --   -0.66071  -0.63033  -0.59563  -0.57114  -0.56587
 Alpha  occ. eigenvalues --   -0.54307  -0.50627  -0.48485  -0.46467  -0.43097
 Alpha  occ. eigenvalues --   -0.41321  -0.40255  -0.38779  -0.38117  -0.36470
 Alpha  occ. eigenvalues --   -0.35335  -0.33759  -0.33272  -0.32283  -0.31946
 Alpha  occ. eigenvalues --   -0.30100  -0.29883  -0.29691  -0.29223  -0.28255
 Alpha  occ. eigenvalues --   -0.27744  -0.25668  -0.24670  -0.24509  -0.23925
 Alpha  occ. eigenvalues --   -0.23282  -0.23090  -0.22630  -0.21764  -0.20879
 Alpha  occ. eigenvalues --   -0.16196  -0.15141  -0.14382   0.04432
 Alpha virt. eigenvalues --    0.06137   0.07009   0.07669   0.08165   0.08454
 Alpha virt. eigenvalues --    0.08653   0.09737   0.10008   0.10273   0.10624
 Alpha virt. eigenvalues --    0.10911   0.11117   0.11435   0.11983   0.13374

  Beta  occ. eigenvalues --  -18.98785 -14.23357 -14.19551 -10.17560 -10.12610
  Beta  occ. eigenvalues --  -10.10421 -10.09521 -10.07473 -10.07032 -10.06970
  Beta  occ. eigenvalues --  -10.06600 -10.06505 -10.06316 -10.06304 -10.06281
  Beta  occ. eigenvalues --   -0.94069  -0.82455  -0.79755  -0.74047  -0.73024
  Beta  occ. eigenvalues --   -0.66045  -0.62995  -0.59528  -0.57071  -0.56545
  Beta  occ. eigenvalues --   -0.54263  -0.50593  -0.48436  -0.46427  -0.43071
  Beta  occ. eigenvalues --   -0.41291  -0.40213  -0.38760  -0.38069  -0.36432
  Beta  occ. eigenvalues --   -0.35309  -0.33733  -0.33249  -0.32260  -0.31914
  Beta  occ. eigenvalues --   -0.30070  -0.29861  -0.29666  -0.29196  -0.28230
  Beta  occ. eigenvalues --   -0.27714  -0.25642  -0.24638  -0.24480  -0.23897
  Beta  occ. eigenvalues --   -0.23256  -0.23059  -0.22608  -0.21744  -0.20853
  Beta  occ. eigenvalues --   -0.16186  -0.15121  -0.14363
  Beta virt. eigenvalues --    0.06632   0.07159   0.07557   0.08203   0.08570
  Beta virt. eigenvalues --    0.08896   0.09116   0.09837   0.10424   0.10562
  Beta virt. eigenvalues --    0.11013   0.11221   0.11516   0.11707   0.12359

 Mulliken charges and spin densities:
               1          2
     1  C    1.606076  -2.290140
     2  C   -1.363070   1.548170
     3  C   -0.718568   0.439329
     4  C    1.297268  -1.910704
     5  C   -0.445863   0.181121
     6  N   -0.197504   0.076652
     7  C   -0.565327   0.217670
     8  O   -0.307819   0.014903
     9  C    0.889064   0.582955
    10  C   -0.939298   0.563569
    11  C    0.599607  -0.972702
    12  C   -0.394076  -0.070105
    13  C   -0.554669  -0.139432
    14  N   -0.320074   0.001278
    15  C    1.046207  -1.853813
    16  H    0.219271  -0.103079
    17  H   -0.370406   0.532876
    18  H   -0.207685   0.374266
    19  H   -0.473367   0.621578
    20  H    0.735319  -0.429276
    21  H   -0.159223   0.297814
    22  H   -0.041617   0.197200
    23  H    0.092083   0.039694
    24  H   -0.430890   0.607861
    25  H    0.238498   0.079305
    26  H    0.035931   0.099815
    27  H    0.168520   0.041189
    28  H   -0.021197   0.185432
    29  H    0.041330   0.079430
    30  H    0.245868  -0.114471
    31  H   -0.575207   0.754761
    32  H   -0.172892   0.399327
    33  H   -0.154307   0.407935
    34  H    0.246367  -0.018623
    35  H    0.062241   0.106166
    36  H   -0.325476   0.481176
    37  H    0.214887  -0.029127
 Sum of Mulliken charges =  -1.00000   1.00000

 Dipole moment (field-independent basis, Debye):
    X=              2.2155    Y=             -1.2252    Z=             -3.3566  Tot=              4.2043
 Quadrupole moment (field-independent basis, Debye-Ang):
   XX=           -173.0057   YY=           -135.1473   ZZ=           -139.6011
   XY=             -9.3397   XZ=             -1.4601   YZ=             -4.5346

 Summary of Natural Population Analysis:

                                       Natural Population
                Natural  -----------------------------------------------
    Atom  No    Charge         Core      Valence    Rydberg      Total
 -----------------------------------------------------------------------
      C    1   -0.28526      0.99960     2.27889    0.00677     3.28526
      C    2    0.05790      0.99954     1.92752    0.01504     2.94210
      C    3   -0.20093      0.99958     2.19236    0.00899     3.20093
      C    4   -0.18934      0.99965     2.18145    0.00825     3.18934
      C    5   -0.18369      0.99960     2.17577    0.00832     3.18369
      N    6   -0.31984      0.99963     2.80913    0.01108     3.81984
      C    7    0.36133      0.99959     1.61539    0.02369     2.63867
      O    8   -0.34378      0.99988     3.33889    0.00500     4.34378
      C    9   -0.07418      0.99951     2.06168    0.01299     3.07418
      C   10   -0.18571      0.99961     2.17689    0.00920     3.18571
      C   11   -0.19270      0.99963     2.18494    0.00812     3.19270
      C   12   -0.19716      0.99961     2.18819    0.00935     3.19716
      C   13   -0.00195      0.99956     1.98727    0.01512     3.00195
      N   14   -0.42611      0.99976     2.91589    0.01045     3.92611
      C   15   -0.28737      0.99963     2.27994    0.00781     3.28737
      H   16    0.10263      0.00000     0.39620    0.00116     0.39737
      H   17    0.10219      0.00000     0.39623    0.00157     0.39781
      H   18    0.10009      0.00000     0.39870    0.00121     0.39991
      H   19    0.09737      0.00000     0.40110    0.00153     0.40263
      H   20    0.12377      0.00000     0.37364    0.00259     0.37623
      H   21    0.09726      0.00000     0.40180    0.00093     0.40274
      H   22    0.09752      0.00000     0.40068    0.00181     0.40248
      H   23    0.09851      0.00000     0.40005    0.00144     0.40149
      H   24    0.09908      0.00000     0.39956    0.00135     0.40092
      H   25    0.19033      0.00000     0.30704    0.00262     0.30967
      H   26    0.09706      0.00000     0.40211    0.00083     0.40294
      H   27    0.11216      0.00000     0.38650    0.00134     0.38784
      H   28    0.09838      0.00000     0.40087    0.00075     0.40162
      H   29    0.09452      0.00000     0.40404    0.00144     0.40548
      H   30    0.09540      0.00000     0.40324    0.00136     0.40460
      H   31    0.10248      0.00000     0.39590    0.00163     0.39752
      H   32    0.09393      0.00000     0.40351    0.00255     0.40607
      H   33    0.17831      0.00000     0.32005    0.00164     0.32169
      H   34    0.18049      0.00000     0.31754    0.00198     0.31951
      H   35    0.10000      0.00000     0.39888    0.00112     0.40000
      H   36    0.10234      0.00000     0.39636    0.00130     0.39766
      H   37    0.10494      0.00000     0.39320    0.00186     0.39506
 =======================================================================
   * Total *   -0.00000     14.99437    42.81141    0.19421    58.00000

 Normal termination of Gaussian 16 at Thu Dec 10 19:23:24 2020.
