 Gaussian 16, Revision A.03,

 -----------------------------------------------------------
 # opt freq B3LYP/6-31G(d) empiricaldispersion=gd3bj scf=xqc
 -----------------------------------------------------------

 -----------------------------
 CID_57239963_JID_555_neutraal
 -----------------------------
 Symbolic Z-matrix:
 Charge =  0 Multiplicity = 1

 SCF Done:  E(RB3LYP) =  -820.009463548     A.U. after   15 cycles
 SCF Done:  E(RB3LYP) =  -820.014392117     A.U. after   13 cycles
 SCF Done:  E(RB3LYP) =  -820.011744927     A.U. after   13 cycles
 SCF Done:  E(RB3LYP) =  -820.015591336     A.U. after   12 cycles
 SCF Done:  E(RB3LYP) =  -820.016131900     A.U. after   12 cycles
 SCF Done:  E(RB3LYP) =  -820.016381044     A.U. after   11 cycles
 SCF Done:  E(RB3LYP) =  -820.016492265     A.U. after   11 cycles
 SCF Done:  E(RB3LYP) =  -820.016738340     A.U. after   13 cycles
 SCF Done:  E(RB3LYP) =  -820.016518432     A.U. after   14 cycles
 SCF Done:  E(RB3LYP) =  -820.017396230     A.U. after   12 cycles
 SCF Done:  E(RB3LYP) =  -820.018986811     A.U. after   12 cycles
 SCF Done:  E(RB3LYP) =  -820.019038188     A.U. after   12 cycles
 SCF Done:  E(RB3LYP) =  -820.019050677     A.U. after   11 cycles
 SCF Done:  E(RB3LYP) =  -820.019053674     A.U. after    9 cycles
 SCF Done:  E(RB3LYP) =  -820.019053843     A.U. after    8 cycles
 SCF Done:  E(RB3LYP) =  -820.019053858     A.U. after    7 cycles
 Optimization completed.
    -- Stationary point found.
 Normal termination of Gaussian 16 at Tue Dec  8 12:28:05 2020.

 --------------------------------------------------------------------
 #N Geom=AllCheck Guess=TCheck SCRF=Check GenChk RB3LYP/6-31G(d) Freq
 --------------------------------------------------------------------

 Structure from the checkpoint file:  "JID_555.chk"
 -----------------------------
 CID_57239963_JID_555_neutraal
 -----------------------------
 Charge =  0 Multiplicity = 1

 SCF Done:  E(RB3LYP) =  -820.019053858     A.U. after    1 cycles

  Exact polarizability: 113.424   3.697  89.155  -2.059   1.570  80.293
 Approx polarizability: 146.235  12.381 135.172  -4.568   6.986 118.592

                      1                      2                      3
                      A                      A                      A
 Frequencies --     23.3844                68.9580                95.4697
 Red. masses --      4.7698                 3.9883                 4.4838
 Frc consts  --      0.0015                 0.0112                 0.0241
 IR Inten    --      0.9700                 0.5973                 4.4364

                      4                      5                      6
                      A                      A                      A
 Frequencies --    137.0793               226.2148               229.2207
 Red. masses --      2.0683                 1.8770                 2.1690
 Frc consts  --      0.0229                 0.0566                 0.0671
 IR Inten    --      3.4598                 0.6615                 6.1522

                      7                      8                      9
                      A                      A                      A
 Frequencies --    245.9974               262.3006               277.0925
 Red. masses --      1.1888                 1.6847                 2.4849
 Frc consts  --      0.0424                 0.0683                 0.1124
 IR Inten    --      1.8343                 6.5784                 1.2289

                     10                     11                     12
                      A                      A                      A
 Frequencies --    291.6968               318.0549               325.9414
 Red. masses --      1.0970                 1.3982                 1.3123
 Frc consts  --      0.0550                 0.0833                 0.0821
 IR Inten    --      0.8936                 4.2322                 3.2225

                     13                     14                     15
                      A                      A                      A
 Frequencies --    347.6488               364.1628               392.9419
 Red. masses --      1.9964                 2.5920                 2.5094
 Frc consts  --      0.1422                 0.2025                 0.2283
 IR Inten    --      2.5139                 0.0404                 1.1380

                     16                     17                     18
                      A                      A                      A
 Frequencies --    406.5697               459.8542               535.1706
 Red. masses --      2.9614                 2.5339                 2.8722
 Frc consts  --      0.2884                 0.3157                 0.4847
 IR Inten    --      5.6921                 5.2933                20.5016

                     19                     20                     21
                      A                      A                      A
 Frequencies --    602.5493               654.2879               735.2761
 Red. masses --      5.2380                 4.5924                 2.4939
 Frc consts  --      1.1205                 1.1583                 0.7944
 IR Inten    --      7.5090                15.8259                31.1177

                     22                     23                     24
                      A                      A                      A
 Frequencies --    812.7567               835.7337               901.3963
 Red. masses --      3.3265                 3.4167                 2.7040
 Frc consts  --      1.2947                 1.4060                 1.2945
 IR Inten    --     11.8421                28.5452                45.1890

                     25                     26                     27
                      A                      A                      A
 Frequencies --    936.0041               942.8728               976.0213
 Red. masses --      1.7154                 1.7377                 1.2284
 Frc consts  --      0.8855                 0.9102                 0.6895
 IR Inten    --      0.1051                15.9069                15.1018

                     28                     29                     30
                      A                      A                      A
 Frequencies --    977.9062              1007.5152              1067.6457
 Red. masses --      1.2008                 2.0144                 1.4177
 Frc consts  --      0.6766                 1.2047                 0.9521
 IR Inten    --      8.4376                10.4039                 3.5443

                     31                     32                     33
                      A                      A                      A
 Frequencies --   1072.1742              1119.7145              1162.2973
 Red. masses --      1.4364                 4.3403                 1.3117
 Frc consts  --      0.9729                 3.2062                 1.0441
 IR Inten    --      2.7317                55.5011                 8.8098

                     34                     35                     36
                      A                      A                      A
 Frequencies --   1211.2071              1245.2739              1263.7081
 Red. masses --      2.2868                 2.2465                 2.8106
 Frc consts  --      1.9766                 2.0525                 2.6445
 IR Inten    --     61.9322                44.0983               108.1374

                     37                     38                     39
                      A                      A                      A
 Frequencies --   1273.8918              1352.1811              1424.4584
 Red. masses --      2.7982                 4.4365                 1.2502
 Frc consts  --      2.6754                 4.7793                 1.4946
 IR Inten    --     14.0596               279.8227                11.0205

                     40                     41                     42
                      A                      A                      A
 Frequencies --   1427.7380              1453.9556              1474.3856
 Red. masses --      1.2439                 1.2380                 1.1826
 Frc consts  --      1.4939                 1.5419                 1.5146
 IR Inten    --      7.7012                16.0125                19.9602

                     43                     44                     45
                      A                      A                      A
 Frequencies --   1492.2908              1506.7402              1514.5915
 Red. masses --      1.2448                 1.0518                 1.0496
 Frc consts  --      1.6333                 1.4068                 1.4186
 IR Inten    --      2.1718                 1.1909                11.5456

                     46                     47                     48
                      A                      A                      A
 Frequencies --   1517.6161              1529.5452              1534.1591
 Red. masses --      1.0487                 1.0579                 1.0643
 Frc consts  --      1.4231                 1.4582                 1.4759
 IR Inten    --      0.1573                 6.5447                 3.2333

                     49                     50                     51
                      A                      A                      A
 Frequencies --   1538.2164              1541.4180              1557.5181
 Red. masses --      1.0510                 1.0869                 1.0547
 Frc consts  --      1.4652                 1.5216                 1.5075
 IR Inten    --     12.3427                 2.4198                 6.5311

                     52                     53                     54
                      A                      A                      A
 Frequencies --   1794.6846              2587.5658              3035.5435
 Red. masses --      8.6012                 1.0392                 1.0497
 Frc consts  --     16.3225                 4.0994                 5.6987
 IR Inten    --    289.1822                38.8134                50.9615

                     55                     56                     57
                      A                      A                      A
 Frequencies --   3046.8801              3053.0508              3063.3767
 Red. masses --      1.0368                 1.0356                 1.0382
 Frc consts  --      5.6711                 5.6871                 5.7402
 IR Inten    --     19.5259                21.7680                12.5321

                     58                     59                     60
                      A                      A                      A
 Frequencies --   3113.9723              3120.9184              3123.9681
 Red. masses --      1.1007                 1.1022                 1.1023
 Frc consts  --      6.2887                 6.3252                 6.3379
 IR Inten    --     14.4759                19.8066                28.5926

                     61                     62                     63
                      A                      A                      A
 Frequencies --   3129.9658              3133.5792              3136.9583
 Red. masses --      1.0881                 1.1027                 1.1020
 Frc consts  --      6.2805                 6.3794                 6.3894
 IR Inten    --     21.0510                16.2481                44.7001

                     64                     65                     66
                      A                      A                      A
 Frequencies --   3161.9928              3186.8052              3545.2436
 Red. masses --      1.1001                 1.1019                 1.0742
 Frc consts  --      6.4802                 6.5935                 7.9550
 IR Inten    --     17.7478                 8.8342                 9.9865

 - Thermochemistry -
 -------------------
 Temperature   298.150 Kelvin.  Pressure   1.00000 Atm.
 Atom     1 has atomic number  6 and mass  12.00000

 Molecular mass:   162.08268 amu.
 Principal axes and moments of inertia in atomic units:
                           1         2         3
     Eigenvalues --   952.980972515.414462704.54645
           X            0.99979  -0.00558   0.01976
           Y            0.00764   0.99437  -0.10568
           Z           -0.01906   0.10581   0.99420
 This molecule is an asymmetric top.
 Rotational symmetry number  1.
 Warning -- assumption of classical behavior for rotation
           may cause significant error
 Rotational temperatures (Kelvin)      0.09089     0.03443     0.03203
 Rotational constants (GHZ):           1.89379     0.71747     0.66730
 Zero-point vibrational energy     537753.2 (Joules/Mol)
                                  128.52609 (Kcal/Mol)
 Warning -- explicit consideration of  19 degrees of freedom as
           vibrations may cause significant error
 Vibrational temperatures:     33.64    99.22   137.36   197.23   325.47
          (Kelvin)            329.80   353.94   377.39   398.67   419.69
                              457.61   468.96   500.19   523.95   565.36
                              584.96   661.63   769.99   866.93   941.37
                             1057.90  1169.38  1202.43  1296.91  1346.70
                             1356.58  1404.28  1406.99  1449.59  1536.10
                             1542.62  1611.02  1672.29  1742.66  1791.67
                             1818.19  1832.85  1945.49  2049.48  2054.20
                             2091.92  2121.31  2147.07  2167.86  2179.16
                             2183.51  2200.67  2207.31  2213.15  2217.76
                             2240.92  2582.15  3722.93  4367.47  4383.78
                             4392.66  4407.52  4480.31  4490.31  4494.69
                             4503.32  4508.52  4513.38  4549.40  4585.10
                             5100.81

 Zero-point correction=                           0.204819 (Hartree/Particle)
 Thermal correction to Energy=                    0.217225
 Thermal correction to Enthalpy=                  0.218169
 Thermal correction to Gibbs Free Energy=         0.166208
 Sum of electronic and zero-point Energies=           -819.814234
 Sum of electronic and thermal Energies=              -819.801829
 Sum of electronic and thermal Enthalpies=            -819.800885
 Sum of electronic and thermal Free Energies=         -819.852846

                     E (Thermal)             CV                S
                      KCal/Mol        Cal/Mol-Kelvin    Cal/Mol-Kelvin
 Total                  136.311             45.586            109.362
 Electronic               0.000              0.000              0.000
 Translational            0.889              2.981             41.158
 Rotational               0.889              2.981             30.251
 Vibrational            134.533             39.625             37.953
 Vibration     1          0.593              1.985              6.324
 Vibration     2          0.598              1.969              4.183
 Vibration     3          0.603              1.952              3.545
 Vibration     4          0.614              1.916              2.844
 Vibration     5          0.650              1.801              1.909
 Vibration     6          0.652              1.796              1.885
 Vibration     7          0.660              1.769              1.759
 Vibration     8          0.670              1.742              1.646
 Vibration     9          0.678              1.716              1.552
 Vibration    10          0.687              1.689              1.464
 Vibration    11          0.704              1.639              1.320
 Vibration    12          0.710              1.624              1.280
 Vibration    13          0.725              1.580              1.177
 Vibration    14          0.738              1.546              1.104
 Vibration    15          0.760              1.485              0.989
 Vibration    16          0.771              1.456              0.939
 Vibration    17          0.818              1.339              0.767
 Vibration    18          0.890              1.172              0.576
 Vibration    19          0.961              1.026              0.445

 Optimization completed.
    -- Stationary point found.
 Normal termination of Gaussian 16 at Tue Dec  8 12:40:05 2020.

 ----------------------------------------------------------------------
 # B3LYP/6-311++G(d,p) empiricaldispersion=gd3bj scf=xqc pop=npa geom=c
 heck
 ----------------------------------------------------------------------

 -------------------------------------
 CID_57239963_JID_555_Energie_neutraal
 -------------------------------------
 Structure from the checkpoint file:  "JID_555.chk"
 Charge =  0 Multiplicity = 1

 SCF Done:  E(RB3LYP) =  -820.177525561     A.U. after   14 cycles
 Normal termination of Gaussian 16 at Tue Dec  8 12:48:48 2020.

 ----------------------------------------------------------------------
 # B3LYP/6-311++G(d,p) empiricaldispersion=gd3bj scf=xqc pop=npa geom=c
 heck
 ----------------------------------------------------------------------

 -----------------------------------
 CID_57239963_JID_555_Energie_kation
 -----------------------------------
 Structure from the checkpoint file:  "JID_555.chk"
 Charge =  1 Multiplicity = 2

 SCF Done:  E(UB3LYP) =  -819.851229709     A.U. after   27 cycles
 Normal termination of Gaussian 16 at Tue Dec  8 13:04:53 2020.
 Gaussian 16:  ES64L-G16RevA.03 25-Dec-2016

 ----------------------------------------------------------------------
 # B3LYP/6-311++G(d,p) empiricaldispersion=gd3bj scf=xqc pop=npa geom=c
 heck
 ----------------------------------------------------------------------

 ----------------------------------
 CID_57239963_JID_555_Energie_anion
 ----------------------------------
 Structure from the checkpoint file:  "JID_555.chk"
 Charge = -1 Multiplicity = 2

                         Standard orientation:
 ---------------------------------------------------------------------
 Center     Atomic      Atomic             Coordinates (Angstroms)
 Number     Number       Type             X           Y           Z
 ---------------------------------------------------------------------
      1          6           0        1.664680    1.583243    0.318662
      2          6           0        1.804561    0.064398    0.163449
      3          6           0        3.203514   -0.256082   -0.381808
      4          6           0        1.594721   -0.626323    1.521329
      5          7           0        0.850761   -0.487488   -0.852020
      6          6           0       -0.485863   -0.749561   -0.573740
      7          8           0       -1.000734   -1.836803   -0.769587
      8          7           0       -1.207811    0.374271   -0.085999
      9          6           0       -1.298000    1.535916   -0.988546
     10         16           0       -2.659313    0.010574    0.772179
     11          1           0        2.446349    1.951823    0.991782
     12          1           0        0.697258    1.851229    0.747154
     13          1           0        1.780921    2.087727   -0.645912
     14          1           0        3.971368    0.129511    0.295606
     15          1           0        3.353478   -1.338829   -0.474772
     16          1           0        3.349978    0.200564   -1.366526
     17          1           0        0.595258   -0.412429    1.912565
     18          1           0        1.700925   -1.712405    1.425783
     19          1           0        2.330286   -0.271950    2.252090
     20          1           0        1.231323   -1.329832   -1.273463
     21          1           0       -2.099847    1.399172   -1.727032
     22          1           0       -1.502459    2.437018   -0.406709
     23          1           0       -0.349752    1.648457   -1.513406
     24          1           0       -3.352540   -0.631843   -0.205255
 ---------------------------------------------------------------------

 SCF Done:  E(UB3LYP) =  -820.163638175     A.U. after   31 cycles

 The electronic state is 2-A.
 Alpha  occ. eigenvalues --  -88.76919 -18.99822 -14.25347 -14.22349 -10.19786
 Alpha  occ. eigenvalues --  -10.12039 -10.09987 -10.05836 -10.05462 -10.05048
 Alpha  occ. eigenvalues --   -7.85399  -5.81929  -5.81397  -5.80670  -0.95858
 Alpha  occ. eigenvalues --   -0.84030  -0.81400  -0.69010  -0.63439  -0.59644
 Alpha  occ. eigenvalues --   -0.58533  -0.58300  -0.49035  -0.45441  -0.40416
 Alpha  occ. eigenvalues --   -0.38864  -0.38319  -0.34825  -0.34116  -0.33519
 Alpha  occ. eigenvalues --   -0.32755  -0.30888  -0.30157  -0.28575  -0.27979
 Alpha  occ. eigenvalues --   -0.27088  -0.26494  -0.25727  -0.24111  -0.23293
 Alpha  occ. eigenvalues --   -0.19228  -0.16205  -0.15469  -0.14835   0.04673
 Alpha virt. eigenvalues --    0.06989   0.08201   0.08417   0.08428   0.09783
 Alpha virt. eigenvalues --    0.10067   0.10201   0.10822   0.11305   0.11879
 Alpha virt. eigenvalues --    0.13077   0.13275   0.13705   0.14648   0.15171

  Beta  occ. eigenvalues --  -88.76907 -18.99803 -14.25344 -14.22325 -10.19777
  Beta  occ. eigenvalues --  -10.12032 -10.09944 -10.05785 -10.05428 -10.05006
  Beta  occ. eigenvalues --   -7.85386  -5.81901  -5.81390  -5.80660  -0.95828
  Beta  occ. eigenvalues --   -0.84007  -0.81374  -0.68975  -0.63375  -0.59575
  Beta  occ. eigenvalues --   -0.58463  -0.58220  -0.48963  -0.45373  -0.40370
  Beta  occ. eigenvalues --   -0.38808  -0.38255  -0.34781  -0.34069  -0.33476
  Beta  occ. eigenvalues --   -0.32710  -0.30833  -0.30108  -0.28518  -0.27926
  Beta  occ. eigenvalues --   -0.27033  -0.26450  -0.25668  -0.24062  -0.23247
  Beta  occ. eigenvalues --   -0.19182  -0.16174  -0.15420  -0.14801
  Beta virt. eigenvalues --    0.07062   0.07773   0.08493   0.09070   0.09274
  Beta virt. eigenvalues --    0.10376   0.10533   0.10835   0.11364   0.11738
  Beta virt. eigenvalues --    0.12274   0.13626   0.13655   0.14049   0.14918

 Mulliken charges and spin densities:
               1          2
     1  C    1.294112  -1.885815
     2  C   -2.229114   2.320025
     3  C    0.815150  -1.262156
     4  C    1.363898  -1.809256
     5  N   -0.016772  -0.052478
     6  C   -0.202788   0.019623
     7  O   -0.306116   0.001431
     8  N   -0.068576   0.107735
     9  C    0.910111  -1.184442
    10  S    0.103022  -0.098739
    11  H   -0.323066   0.475295
    12  H   -0.265351   0.419937
    13  H   -0.193786   0.342457
    14  H   -0.252603   0.406914
    15  H   -0.470004   0.611074
    16  H   -0.333552   0.504532
    17  H   -0.085513   0.215238
    18  H   -0.038485   0.187993
    19  H   -0.199573   0.372300
    20  H    0.179012   0.107267
    21  H   -0.249642   0.382680
    22  H   -0.318314   0.491722
    23  H   -0.063655   0.223639
    24  H   -0.048395   0.103023
 Sum of Mulliken charges =  -1.00000   1.00000

 Dipole moment (field-independent basis, Debye):
    X=             -4.4473    Y=             -1.6710    Z=             -0.0288  Tot=              4.7510
 Quadrupole moment (field-independent basis, Debye-Ang):
   XX=           -128.2166   YY=           -113.1722   ZZ=           -103.7025
   XY=             -1.9803   XZ=             -3.7442   YZ=             -0.8036

 Summary of Natural Population Analysis:

                                       Natural Population
                Natural  -----------------------------------------------
    Atom  No    Charge         Core      Valence    Rydberg      Total
 -----------------------------------------------------------------------
      C    1   -0.29116      0.99960     2.28357    0.00799     3.29116
      C    2    0.05677      0.99958     1.92976    0.01389     2.94323
      C    3   -0.28769      0.99961     2.28044    0.00763     3.28769
      C    4   -0.29398      0.99961     2.28750    0.00688     3.29398
      N    5   -0.33976      0.99965     2.82823    0.01189     3.83976
      C    6    0.42342      0.99966     1.55181    0.02511     2.57658
      O    7   -0.31420      0.99987     3.30842    0.00591     4.31420
      N    8   -0.34559      0.99970     2.83380    0.01209     3.84559
      C    9   -0.17341      0.99962     2.16434    0.00945     3.17341
      S   10    0.08912      4.99964     2.89362    0.01762     7.91088
      H   11    0.10444      0.00000     0.39393    0.00164     0.39556
      H   12    0.10598      0.00000     0.39174    0.00227     0.39402
      H   13    0.10246      0.00000     0.39587    0.00166     0.39754
      H   14    0.10752      0.00000     0.39056    0.00192     0.39248
      H   15    0.09902      0.00000     0.39934    0.00163     0.40098
      H   16    0.10450      0.00000     0.39397    0.00153     0.39550
      H   17    0.10470      0.00000     0.39383    0.00147     0.39530
      H   18    0.10128      0.00000     0.39765    0.00107     0.39872
      H   19    0.10478      0.00000     0.39406    0.00116     0.39522
      H   20    0.19054      0.00000     0.30690    0.00256     0.30946
      H   21    0.08997      0.00000     0.40846    0.00157     0.41003
      H   22    0.10101      0.00000     0.39741    0.00158     0.39899
      H   23    0.10800      0.00000     0.39024    0.00176     0.39200
      H   24    0.05228      0.00000     0.44392    0.00380     0.44772
 =======================================================================
   * Total *    0.00000     13.99654    29.85938    0.14408    44.00000

 Normal termination of Gaussian 16 at Tue Dec  8 13:17:05 2020.
