 Gaussian 16, Revision A.03,

 -----------------------------------------------------------
 # opt freq B3LYP/6-31G(d) empiricaldispersion=gd3bj scf=xqc
 -----------------------------------------------------------

 -------------------------------
 CID_148369765_JID_6428_neutraal
 -------------------------------
 Symbolic Z-matrix:
 Charge =  0 Multiplicity = 1

 SCF Done:  E(RB3LYP) =  -705.822098254     A.U. after   14 cycles
 SCF Done:  E(RB3LYP) =  -705.824724103     A.U. after   12 cycles
 SCF Done:  E(RB3LYP) =  -705.825435786     A.U. after   12 cycles
 SCF Done:  E(RB3LYP) =  -705.825929264     A.U. after   12 cycles
 SCF Done:  E(RB3LYP) =  -705.826657637     A.U. after   15 cycles
 SCF Done:  E(RB3LYP) =  -705.827764840     A.U. after   13 cycles
 SCF Done:  E(RB3LYP) =  -705.829342253     A.U. after   15 cycles
 SCF Done:  E(RB3LYP) =  -705.829664010     A.U. after   12 cycles
 SCF Done:  E(RB3LYP) =  -705.828594251     A.U. after   14 cycles
 SCF Done:  E(RB3LYP) =  -705.830001964     A.U. after   12 cycles
 SCF Done:  E(RB3LYP) =  -705.830101403     A.U. after    7 cycles
 SCF Done:  E(RB3LYP) =  -705.830101464     A.U. after    7 cycles
 SCF Done:  E(RB3LYP) =  -705.830101524     A.U. after    7 cycles
 SCF Done:  E(RB3LYP) =  -705.830101579     A.U. after    7 cycles
 SCF Done:  E(RB3LYP) =  -705.830101614     A.U. after    7 cycles
 Optimization completed.
    -- Stationary point found.
 Normal termination of Gaussian 16 at Thu Dec 10 22:53:54 2020.

 --------------------------------------------------------------------
 #N Geom=AllCheck Guess=TCheck SCRF=Check GenChk RB3LYP/6-31G(d) Freq
 --------------------------------------------------------------------

 Structure from the checkpoint file:  "JID_6428.chk"
 -------------------------------
 CID_148369765_JID_6428_neutraal
 -------------------------------
 Charge =  0 Multiplicity = 1

 SCF Done:  E(RB3LYP) =  -705.830101614     A.U. after    1 cycles

  Exact polarizability: 168.992   6.798 122.024 -12.545   5.294 126.298
 Approx polarizability: 243.556  19.729 176.866 -28.303  12.068 226.822

                      1                      2                      3
                      A                      A                      A
 Frequencies --     24.2164                48.3681                51.9179
 Red. masses --      3.7518                 3.7872                 4.9687
 Frc consts  --      0.0013                 0.0052                 0.0079
 IR Inten    --      6.5086                 0.1074                 0.5521

                      4                      5                      6
                      A                      A                      A
 Frequencies --     79.5238                87.3872               127.5686
 Red. masses --      2.6760                 1.2198                 2.3396
 Frc consts  --      0.0100                 0.0055                 0.0224
 IR Inten    --      0.1204                 1.1693                 0.6999

                      7                      8                      9
                      A                      A                      A
 Frequencies --    139.6639               187.6190               205.2780
 Red. masses --      3.4034                 3.0605                 3.1995
 Frc consts  --      0.0391                 0.0635                 0.0794
 IR Inten    --      5.2492                 0.2175                 0.5394

                     10                     11                     12
                      A                      A                      A
 Frequencies --    236.9590               255.9693               285.0909
 Red. masses --      3.8708                 1.3868                 3.9904
 Frc consts  --      0.1281                 0.0535                 0.1911
 IR Inten    --      1.0466                 0.4611                 0.9962

                     13                     14                     15
                      A                      A                      A
 Frequencies --    311.4258               349.0319               361.6625
 Red. masses --      5.4802                 3.3006                 1.1391
 Frc consts  --      0.3132                 0.2369                 0.0878
 IR Inten    --      3.4722                 1.9248               116.4043

                     16                     17                     18
                      A                      A                      A
 Frequencies --    410.4090               423.0028               427.1651
 Red. masses --      3.9008                 3.5819                 3.5180
 Frc consts  --      0.3871                 0.3776                 0.3782
 IR Inten    --      5.2091                 6.6310                 2.3601

                     19                     20                     21
                      A                      A                      A
 Frequencies --    484.8563               538.7843               563.7570
 Red. masses --      3.9950                 3.9033                 2.5638
 Frc consts  --      0.5533                 0.6676                 0.4801
 IR Inten    --      2.5648                 7.2913                11.4684

                     22                     23                     24
                      A                      A                      A
 Frequencies --    647.5966               665.3200               683.0629
 Red. masses --      5.5265                 5.0429                 5.7875
 Frc consts  --      1.3655                 1.3152                 1.5910
 IR Inten    --      1.7360                 1.4428                 5.5968

                     25                     26                     27
                      A                      A                      A
 Frequencies --    710.6618               728.7786               752.2765
 Red. masses --      5.1546                 3.2164                 2.7589
 Frc consts  --      1.5338                 1.0065                 0.9199
 IR Inten    --      5.4229                 3.8177                12.9862

                     28                     29                     30
                      A                      A                      A
 Frequencies --    808.0570               811.2072               830.6981
 Red. masses --      1.3467                 1.4773                 2.0221
 Frc consts  --      0.5181                 0.5728                 0.8221
 IR Inten    --      7.3007                22.7304                 0.2810

                     31                     32                     33
                      A                      A                      A
 Frequencies --    844.7314               855.8672               872.9086
 Red. masses --      2.2578                 2.0565                 3.0367
 Frc consts  --      0.9492                 0.8875                 1.3633
 IR Inten    --     12.1473                13.5909                13.6938

                     34                     35                     36
                      A                      A                      A
 Frequencies --    925.7534               941.5423               979.0004
 Red. masses --      1.5099                 1.7606                 1.8486
 Frc consts  --      0.7624                 0.9196                 1.0439
 IR Inten    --      2.7070                 1.5340                 0.2071

                     37                     38                     39
                      A                      A                      A
 Frequencies --    981.9483              1036.0113              1051.8792
 Red. masses --      2.6241                 2.7560                 4.5012
 Frc consts  --      1.4908                 1.7428                 2.9343
 IR Inten    --      0.4635                 0.9556                 2.1945

                     40                     41                     42
                      A                      A                      A
 Frequencies --   1054.7027              1084.8599              1113.5211
 Red. masses --      2.3853                 1.6056                 1.8449
 Frc consts  --      1.5633                 1.1133                 1.3478
 IR Inten    --      1.6738                17.3434                 2.0592

                     43                     44                     45
                      A                      A                      A
 Frequencies --   1119.1441              1143.8087              1162.8226
 Red. masses --      1.9676                 1.4405                 1.3040
 Frc consts  --      1.4520                 1.1104                 1.0388
 IR Inten    --      2.3535                10.7056                 0.1926

                     46                     47                     48
                      A                      A                      A
 Frequencies --   1207.9713              1210.4432              1220.1283
 Red. masses --      1.2230                 1.3202                 2.1400
 Frc consts  --      1.0515                 1.1397                 1.8771
 IR Inten    --    107.5734                81.5236                 4.4642

                     49                     50                     51
                      A                      A                      A
 Frequencies --   1227.2466              1231.6150              1275.5959
 Red. masses --      2.8771                 1.6393                 1.4436
 Frc consts  --      2.5531                 1.4651                 1.3839
 IR Inten    --      4.4666                17.0990                 1.2927

                     52                     53                     54
                      A                      A                      A
 Frequencies --   1311.6761              1313.2766              1340.4113
 Red. masses --      1.7694                 3.5632                 1.3767
 Frc consts  --      1.7936                 3.6208                 1.4573
 IR Inten    --      6.9169               105.9202                 6.7453

                     55                     56                     57
                      A                      A                      A
 Frequencies --   1377.9218              1384.5961              1387.2113
 Red. masses --      1.9771                 1.7590                 2.5039
 Frc consts  --      2.2117                 1.9868                 2.8389
 IR Inten    --      4.9125                32.4445                17.2182

                     58                     59                     60
                      A                      A                      A
 Frequencies --   1398.0540              1438.8307              1442.7581
 Red. masses --      2.1107                 4.2563                 1.2789
 Frc consts  --      2.4307                 5.1917                 1.5685
 IR Inten    --      4.4637                16.3474                 2.7457

                     61                     62                     63
                      A                      A                      A
 Frequencies --   1478.8217              1491.1650              1511.8223
 Red. masses --      1.3858                 2.6437                 1.0414
 Frc consts  --      1.7856                 3.4635                 1.4024
 IR Inten    --      5.4908                28.2833                 8.2846

                     64                     65                     66
                      A                      A                      A
 Frequencies --   1512.3798              1529.1109              1532.9493
 Red. masses --      1.0777                 1.0435                 1.4621
 Frc consts  --      1.4524                 1.4375                 2.0244
 IR Inten    --      2.4164                 4.1035                 6.6320

                     67                     68                     69
                      A                      A                      A
 Frequencies --   1537.4362              1553.1192              1563.3066
 Red. masses --      1.0603                 2.9927                 3.0720
 Frc consts  --      1.4766                 4.2533                 4.4235
 IR Inten    --      3.9137                51.2405                51.5679

                     70                     71                     72
                      A                      A                      A
 Frequencies --   1566.7937              1651.6504              1678.6643
 Red. masses --      2.6783                 5.8449                 5.9199
 Frc consts  --      3.8738                 9.3943                 9.8286
 IR Inten    --     73.5266                17.7229                47.9603

                     73                     74                     75
                      A                      A                      A
 Frequencies --   3008.1223              3044.5684              3069.3016
 Red. masses --      1.0821                 1.0397                 1.0341
 Frc consts  --      5.7693                 5.6779                 5.7399
 IR Inten    --     17.8891                26.9395                24.3069

                     76                     77                     78
                      A                      A                      A
 Frequencies --   3072.8419              3100.3380              3118.3088
 Red. masses --      1.0615                 1.0984                 1.1017
 Frc consts  --      5.9053                 6.2203                 6.3115
 IR Inten    --     17.4538                 8.0057                31.2706

                     79                     80                     81
                      A                      A                      A
 Frequencies --   3129.1607              3137.2997              3164.8687
 Red. masses --      1.1028                 1.1038                 1.1046
 Frc consts  --      6.3620                 6.4009                 6.5187
 IR Inten    --     46.3422                10.9238                11.9250

                     82                     83                     84
                      A                      A                      A
 Frequencies --   3166.3086              3185.9675              3194.7582
 Red. masses --      1.0878                 1.0936                 1.0890
 Frc consts  --      6.4256                 6.5404                 6.5485
 IR Inten    --     18.3675                17.4275                 1.9757

                     85                     86                     87
                      A                      A                      A
 Frequencies --   3219.3127              3271.7345              3751.3271
 Red. masses --      1.0935                 1.0979                 1.0659
 Frc consts  --      6.6773                 6.9243                 8.8378
 IR Inten    --      5.7213                 2.0741                47.5726

 - Thermochemistry -
 -------------------
 Temperature   298.150 Kelvin.  Pressure   1.00000 Atm.
 Atom     1 has atomic number  6 and mass  12.00000

 Molecular mass:   217.12151 amu.
 Principal axes and moments of inertia in atomic units:
                           1         2         3
     Eigenvalues --  2221.246825010.159085931.28922
           X            0.99998  -0.00488   0.00407
           Y            0.00495   0.99985  -0.01657
           Z           -0.00399   0.01658   0.99985
 This molecule is an asymmetric top.
 Rotational symmetry number  1.
 Warning -- assumption of classical behavior for rotation
           may cause significant error
 Rotational temperatures (Kelvin)      0.03899     0.01729     0.01460
 Rotational constants (GHZ):           0.81249     0.36022     0.30427
 Zero-point vibrational energy     678372.3 (Joules/Mol)
                                  162.13487 (Kcal/Mol)
 Warning -- explicit consideration of  21 degrees of freedom as
           vibrations may cause significant error
 Vibrational temperatures:     34.84    69.59    74.70   114.42   125.73
          (Kelvin)            183.54   200.95   269.94   295.35   340.93
                              368.28   410.18   448.07   502.18   520.35
                              590.49   608.61   614.60   697.60   775.19
                              811.12   931.75   957.25   982.78  1022.48
                             1048.55  1082.36  1162.61  1167.15  1195.19
                             1215.38  1231.40  1255.92  1331.95  1354.67
                             1408.56  1412.80  1490.59  1513.42  1517.48
                             1560.87  1602.11  1610.20  1645.69  1673.04
                             1738.00  1741.56  1755.49  1765.73  1772.02
                             1835.30  1887.21  1889.51  1928.55  1982.52
                             1992.12  1995.89  2011.49  2070.16  2075.81
                             2127.69  2145.45  2175.18  2175.98  2200.05
                             2205.57  2212.03  2234.59  2249.25  2254.27
                             2376.36  2415.22  4328.02  4380.45  4416.04
                             4421.13  4460.69  4486.55  4502.16  4513.87
                             4553.54  4555.61  4583.90  4596.54  4631.87
                             4707.30  5397.32

 Zero-point correction=                           0.258378 (Hartree/Particle)
 Thermal correction to Energy=                    0.273496
 Thermal correction to Enthalpy=                  0.274440
 Thermal correction to Gibbs Free Energy=         0.214690
 Sum of electronic and zero-point Energies=           -705.571723
 Sum of electronic and thermal Energies=              -705.556605
 Sum of electronic and thermal Enthalpies=            -705.555661
 Sum of electronic and thermal Free Energies=         -705.615412

                     E (Thermal)             CV                S
                      KCal/Mol        Cal/Mol-Kelvin    Cal/Mol-Kelvin
 Total                  171.621             56.693            125.756
 Electronic               0.000              0.000              0.000
 Translational            0.889              2.981             42.029
 Rotational               0.889              2.981             32.557
 Vibrational            169.844             50.731             51.171
 Vibration     1          0.593              1.985              6.254
 Vibration     2          0.595              1.978              4.883
 Vibration     3          0.596              1.977              4.743
 Vibration     4          0.600              1.963              3.903
 Vibration     5          0.601              1.958              3.718
 Vibration     6          0.611              1.926              2.982
 Vibration     7          0.615              1.914              2.808
 Vibration     8          0.632              1.857              2.251
 Vibration     9          0.640              1.832              2.085
 Vibration    10          0.656              1.784              1.826
 Vibration    11          0.666              1.753              1.689
 Vibration    12          0.683              1.701              1.503
 Vibration    13          0.700              1.652              1.355
 Vibration    14          0.726              1.577              1.171
 Vibration    15          0.736              1.551              1.115
 Vibration    16          0.775              1.448              0.925
 Vibration    17          0.785              1.420              0.882
 Vibration    18          0.789              1.411              0.868
 Vibration    19          0.841              1.284              0.697
 Vibration    20          0.894              1.164              0.568
 Vibration    21          0.920              1.110              0.516

 Optimization completed.
    -- Stationary point found.
 Normal termination of Gaussian 16 at Thu Dec 10 23:04:31 2020.

 ----------------------------------------------------------------------
 # B3LYP/6-311++G(d,p) empiricaldispersion=gd3bj scf=xqc pop=npa geom=c
 heck
 ----------------------------------------------------------------------

 ---------------------------------------
 CID_148369765_JID_6428_Energie_neutraal
 ---------------------------------------
 Structure from the checkpoint file:  "JID_6428.chk"
 Charge =  0 Multiplicity = 1

 SCF Done:  E(RB3LYP) =  -706.025198372     A.U. after   16 cycles
 Normal termination of Gaussian 16 at Thu Dec 10 23:09:06 2020.

 ----------------------------------------------------------------------
 # B3LYP/6-311++G(d,p) empiricaldispersion=gd3bj scf=xqc pop=npa geom=c
 heck
 ----------------------------------------------------------------------

 -------------------------------------
 CID_148369765_JID_6428_Energie_kation
 -------------------------------------
 Structure from the checkpoint file:  "JID_6428.chk"
 Charge =  1 Multiplicity = 2

 SCF Done:  E(UB3LYP) =  -705.726118977     A.U. after   27 cycles
 Normal termination of Gaussian 16 at Thu Dec 10 23:19:56 2020.
 Gaussian 16:  ES64L-G16RevA.03 25-Dec-2016

 ----------------------------------------------------------------------
 # B3LYP/6-311++G(d,p) empiricaldispersion=gd3bj scf=xqc pop=npa geom=c
 heck
 ----------------------------------------------------------------------

 ------------------------------------
 CID_148369765_JID_6428_Energie_anion
 ------------------------------------
 Structure from the checkpoint file:  "JID_6428.chk"
 Charge = -1 Multiplicity = 2

                         Standard orientation:
 ---------------------------------------------------------------------
 Center     Atomic      Atomic             Coordinates (Angstroms)
 Number     Number       Type             X           Y           Z
 ---------------------------------------------------------------------
      1          6           0       -0.115565    3.417825    0.233814
      2          6           0        0.901053    2.393788   -0.269270
      3          6           0        0.757502    1.019248    0.420780
      4          6           0       -0.609791    0.391494    0.177352
      5          6           0       -1.592647    0.384191    1.168995
      6          6           0       -2.853783   -0.165467    0.933338
      7          6           0       -3.145221   -0.721206   -0.314532
      8          6           0       -2.170038   -0.724919   -1.318729
      9          6           0       -0.919372   -0.173769   -1.068487
     10          8           0       -4.357102   -1.279547   -0.612185
     11          6           0        1.848763    0.087595   -0.021897
     12          7           0        2.651219    0.254391   -1.051560
     13          7           0        3.467132   -0.862373   -1.140506
     14          6           0        3.123113   -1.663037   -0.163312
     15          7           0        2.106780   -1.123006    0.580072
     16          6           0        1.434600   -1.709363    1.726330
     17          1           0       -1.142703    3.094114    0.036333
     18          1           0        0.034400    4.384081   -0.259135
     19          1           0       -0.018789    3.577720    1.315382
     20          1           0        0.800475    2.253434   -1.350429
     21          1           0        1.921749    2.755607   -0.105225
     22          1           0        0.860882    1.177694    1.504933
     23          1           0       -1.375837    0.817630    2.142460
     24          1           0       -3.607131   -0.161954    1.718830
     25          1           0       -2.410426   -1.163624   -2.281595
     26          1           0       -0.161758   -0.185179   -1.847534
     27          1           0       -4.938245   -1.199476    0.159889
     28          1           0        3.564350   -2.625431    0.056939
     29          1           0        1.534603   -1.061914    2.603150
     30          1           0        0.372423   -1.853888    1.512791
     31          1           0        1.895223   -2.673806    1.948358
 ---------------------------------------------------------------------

 SCF Done:  E(UB3LYP) =  -706.021045924     A.U. after   33 cycles
 SCF Done:  E(UB3LYP) =  -706.021045924     a.u. after    1 cycles

 The electronic state is 2-A.
 Alpha  occ. eigenvalues --  -19.06009 -14.29076 -14.23024 -14.22702 -10.14519
 Alpha  occ. eigenvalues --  -10.14316 -10.14000 -10.12548 -10.10745 -10.08917
 Alpha  occ. eigenvalues --  -10.08673 -10.08615 -10.08282 -10.08231 -10.08178
 Alpha  occ. eigenvalues --  -10.07389  -0.97075  -0.97016  -0.83465  -0.77585
 Alpha  occ. eigenvalues --   -0.74158  -0.69657  -0.66218  -0.65561  -0.64267
 Alpha  occ. eigenvalues --   -0.60473  -0.54658  -0.53734  -0.51549  -0.50519
 Alpha  occ. eigenvalues --   -0.47704  -0.45654  -0.43655  -0.40732  -0.39473
 Alpha  occ. eigenvalues --   -0.38506  -0.37302  -0.36213  -0.35919  -0.34371
 Alpha  occ. eigenvalues --   -0.33534  -0.33109  -0.32178  -0.32112  -0.31913
 Alpha  occ. eigenvalues --   -0.29362  -0.28777  -0.27556  -0.25928  -0.25251
 Alpha  occ. eigenvalues --   -0.24704  -0.24074  -0.22125  -0.19772  -0.17182
 Alpha  occ. eigenvalues --   -0.16915  -0.16726  -0.13394   0.03605
 Alpha virt. eigenvalues --    0.05523   0.06606   0.07090   0.07554   0.08195
 Alpha virt. eigenvalues --    0.08662   0.08925   0.09172   0.09676   0.10282
 Alpha virt. eigenvalues --    0.11204   0.11644   0.11999   0.12196   0.12490

  Beta  occ. eigenvalues --  -19.05963 -14.29074 -14.23022 -14.22701 -10.14517
  Beta  occ. eigenvalues --  -10.14315 -10.13990 -10.12488 -10.10734 -10.08914
  Beta  occ. eigenvalues --  -10.08671 -10.08598 -10.08274 -10.08229 -10.08143
  Beta  occ. eigenvalues --  -10.07381  -0.97011  -0.96987  -0.83454  -0.77562
  Beta  occ. eigenvalues --   -0.74139  -0.69643  -0.66183  -0.65533  -0.64197
  Beta  occ. eigenvalues --   -0.60442  -0.54633  -0.53687  -0.51511  -0.50489
  Beta  occ. eigenvalues --   -0.47666  -0.45581  -0.43599  -0.40696  -0.39440
  Beta  occ. eigenvalues --   -0.38472  -0.37270  -0.36191  -0.35878  -0.34340
  Beta  occ. eigenvalues --   -0.33488  -0.33059  -0.32146  -0.32075  -0.31881
  Beta  occ. eigenvalues --   -0.29323  -0.28746  -0.27543  -0.25901  -0.25223
  Beta  occ. eigenvalues --   -0.24684  -0.24049  -0.22119  -0.19757  -0.17169
  Beta  occ. eigenvalues --   -0.16910  -0.16709  -0.13360
  Beta virt. eigenvalues --    0.06281   0.06923   0.07150   0.07286   0.07951
  Beta virt. eigenvalues --    0.08329   0.08917   0.09182   0.09626   0.09987
  Beta virt. eigenvalues --    0.10426   0.11533   0.11862   0.12186   0.12274

 Mulliken charges and spin densities:
               1          2
     1  C   -0.488739  -0.248955
     2  C   -0.279315  -0.089511
     3  C    1.408755  -1.284070
     4  C   -0.134822   1.179899
     5  C    0.614541  -0.551271
     6  C   -0.246865   0.095239
     7  C    1.731825  -2.280780
     8  C    0.136026  -0.339200
     9  C   -1.838122   1.108056
    10  O   -0.258688   0.030572
    11  C   -0.821115   0.065017
    12  N   -0.044317   0.028173
    13  N   -0.126017  -0.012676
    14  C    0.269281  -0.101107
    15  N   -0.146322   0.171217
    16  C    1.059837  -1.414836
    17  H    0.167610  -0.010009
    18  H    0.123717   0.007333
    19  H   -0.057439   0.194129
    20  H    0.179515   0.006614
    21  H    0.161164   0.018935
    22  H    0.032834   0.204115
    23  H   -0.120271   0.311129
    24  H   -1.362748   1.562226
    25  H    0.146902   0.042296
    26  H    0.141374   0.030375
    27  H   -0.188195   0.466880
    28  H   -0.109072   0.285153
    29  H   -0.588947   0.786653
    30  H    0.141857   0.074327
    31  H   -0.504243   0.664076
 Sum of Mulliken charges =  -1.00000   1.00000

 Dipole moment (field-independent basis, Debye):
    X=              2.9926    Y=              2.8572    Z=             -4.3879  Tot=              6.0310
 Quadrupole moment (field-independent basis, Debye-Ang):
   XX=           -185.4323   YY=           -128.5651   ZZ=           -144.1141
   XY=             -3.7858   XZ=             15.0428   YZ=              5.3133

 Summary of Natural Population Analysis:

                                       Natural Population
                Natural  -----------------------------------------------
    Atom  No    Charge         Core      Valence    Rydberg      Total
 -----------------------------------------------------------------------
      C    1   -0.28843      0.99966     2.28405    0.00471     3.28843
      C    2   -0.18263      0.99963     2.17379    0.00921     3.18263
      C    3   -0.13839      0.99953     2.12593    0.01293     3.13839
      C    4   -0.03313      0.99949     2.02132    0.01231     3.03313
      C    5   -0.08960      0.99950     2.07901    0.01109     3.08960
      C    6   -0.13220      0.99951     2.12155    0.01114     3.13220
      C    7    0.15913      0.99938     1.82789    0.01359     2.84087
      C    8   -0.12212      0.99952     2.11289    0.00972     3.12212
      C    9   -0.09549      0.99950     2.08746    0.00853     3.09549
      O   10   -0.34059      0.99988     3.33393    0.00679     4.34059
      C   11    0.19881      0.99959     1.78280    0.01880     2.80119
      N   12   -0.17120      0.99967     2.66043    0.01110     3.67120
      N   13   -0.16439      0.99973     2.65161    0.01305     3.66439
      C   14    0.09575      0.99963     1.88751    0.01710     2.90425
      N   15   -0.21078      0.99960     2.70049    0.01069     3.71078
      C   16   -0.17614      0.99963     2.16870    0.00781     3.17614
      H   17    0.10279      0.00000     0.39641    0.00079     0.39721
      H   18    0.09697      0.00000     0.40242    0.00061     0.40303
      H   19    0.09637      0.00000     0.40280    0.00083     0.40363
      H   20    0.10246      0.00000     0.39639    0.00115     0.39754
      H   21    0.10193      0.00000     0.39707    0.00100     0.39807
      H   22    0.11003      0.00000     0.38771    0.00226     0.38997
      H   23    0.10449      0.00000     0.39356    0.00195     0.39551
      H   24    0.10763      0.00000     0.38757    0.00480     0.39237
      H   25    0.10501      0.00000     0.39419    0.00080     0.39499
      H   26    0.10613      0.00000     0.39255    0.00132     0.39387
      H   27    0.24035      0.00000     0.25161    0.00804     0.25965
      H   28    0.09743      0.00000     0.40116    0.00142     0.40257
      H   29    0.10527      0.00000     0.39210    0.00263     0.39473
      H   30    0.10943      0.00000     0.38899    0.00158     0.39057
      H   31    0.10511      0.00000     0.39303    0.00185     0.39489
 =======================================================================
   * Total *    0.00000     15.99345    41.79694    0.20962    58.00000

 Normal termination of Gaussian 16 at Thu Dec 10 23:32:30 2020.
