 Gaussian 16, Revision A.03,

 -----------------------------------------------------------
 # opt freq B3LYP/6-31G(d) empiricaldispersion=gd3bj scf=xqc
 -----------------------------------------------------------

 -------------------------------
 CID_115021750_JID_3983_neutraal
 -------------------------------
 Symbolic Z-matrix:
 Charge =  0 Multiplicity = 1

 SCF Done:  E(RB3LYP) =  -954.198468552     A.U. after   14 cycles
 SCF Done:  E(RB3LYP) =  -954.201805605     A.U. after   11 cycles
 SCF Done:  E(RB3LYP) =  -954.202428499     A.U. after   11 cycles
 SCF Done:  E(RB3LYP) =  -954.202595436     A.U. after   11 cycles
 SCF Done:  E(RB3LYP) =  -954.202743511     A.U. after   11 cycles
 SCF Done:  E(RB3LYP) =  -954.202836839     A.U. after   11 cycles
 SCF Done:  E(RB3LYP) =  -954.202825669     A.U. after   10 cycles
 SCF Done:  E(RB3LYP) =  -954.203025329     A.U. after   10 cycles
 SCF Done:  E(RB3LYP) =  -954.203976070     A.U. after   13 cycles
 SCF Done:  E(RB3LYP) =  -954.203908387     A.U. after   12 cycles
 SCF Done:  E(RB3LYP) =  -954.204226634     A.U. after   12 cycles
 SCF Done:  E(RB3LYP) =  -954.204215644     A.U. after   11 cycles
 SCF Done:  E(RB3LYP) =  -954.195356112     A.U. after   12 cycles
 SCF Done:  E(RB3LYP) =  -954.204227456     A.U. after    9 cycles
 SCF Done:  E(RB3LYP) =  -954.204227557     A.U. after    8 cycles
 Optimization completed.
    -- Stationary point found.
 Normal termination of Gaussian 16 at Sun Dec 13 16:19:40 2020.

 --------------------------------------------------------------------
 #N Geom=AllCheck Guess=TCheck SCRF=Check GenChk RB3LYP/6-31G(d) Freq
 --------------------------------------------------------------------

 Structure from the checkpoint file:  "JID_3983.chk"
 -------------------------------
 CID_115021750_JID_3983_neutraal
 -------------------------------
 Charge =  0 Multiplicity = 1

 SCF Done:  E(RB3LYP) =  -954.204227557     A.U. after    1 cycles

  Exact polarizability: 153.616   3.282 114.110  -2.570  -1.889  83.807
 Approx polarizability: 192.859   8.359 183.185  -7.438 -10.504 136.857

                      1                      2                      3
                      A                      A                      A
 Frequencies --     29.0065                64.3783                79.5451
 Red. masses --      5.3189                 3.0666                 4.0534
 Frc consts  --      0.0026                 0.0075                 0.0151
 IR Inten    --      2.9916                 6.5599                 0.0802

                      4                      5                      6
                      A                      A                      A
 Frequencies --     86.1544               165.2829               182.3866
 Red. masses --      5.9832                 3.1203                 3.7027
 Frc consts  --      0.0262                 0.0502                 0.0726
 IR Inten    --      1.1312                 2.8220                13.7911

                      7                      8                      9
                      A                      A                      A
 Frequencies --    196.1989               236.7474               284.5424
 Red. masses --      2.7439                 3.5464                 1.2161
 Frc consts  --      0.0622                 0.1171                 0.0580
 IR Inten    --      0.1894                13.6855                85.5594

                     10                     11                     12
                      A                      A                      A
 Frequencies --    286.4950               340.1425               356.5826
 Red. masses --      3.1146                 2.3515                 6.1831
 Frc consts  --      0.1506                 0.1603                 0.4632
 IR Inten    --      0.8996                 3.3305                 0.8346

                     13                     14                     15
                      A                      A                      A
 Frequencies --    404.5256               449.5357               464.3788
 Red. masses --      4.8717                 3.1742                 3.3910
 Frc consts  --      0.4697                 0.3779                 0.4308
 IR Inten    --      6.1123                 2.3290                 1.5397

                     16                     17                     18
                      A                      A                      A
 Frequencies --    488.6238               645.1556               666.1046
 Red. masses --      2.3550                 3.2515                 4.2444
 Frc consts  --      0.3313                 0.7974                 1.1096
 IR Inten    --      0.8185                12.1189                 3.8382

                     19                     20                     21
                      A                      A                      A
 Frequencies --    681.2440               724.0267               744.6288
 Red. masses --      4.6945                 3.3383                 1.7054
 Frc consts  --      1.2836                 1.0311                 0.5571
 IR Inten    --      3.7867                 4.5168                18.3447

                     22                     23                     24
                      A                      A                      A
 Frequencies --    768.7102               795.2058               842.6629
 Red. masses --      4.9783                 2.4305                 2.8017
 Frc consts  --      1.7332                 0.9055                 1.1721
 IR Inten    --     25.8726                 1.7746                 5.5288

                     25                     26                     27
                      A                      A                      A
 Frequencies --    853.5836               883.6226               954.1055
 Red. masses --      1.4408                 1.9229                 2.3222
 Frc consts  --      0.6185                 0.8846                 1.2455
 IR Inten    --      4.5518                 0.3445                 1.2560

                     28                     29                     30
                      A                      A                      A
 Frequencies --    966.0028              1003.1391              1037.2299
 Red. masses --      2.1371                 5.9473                 3.6754
 Frc consts  --      1.1750                 3.5261                 2.3297
 IR Inten    --     10.3837                 5.4114                12.5028

                     31                     32                     33
                      A                      A                      A
 Frequencies --   1050.5621              1065.4264              1091.5345
 Red. masses --      1.8194                 1.9568                 1.7964
 Frc consts  --      1.1831                 1.3087                 1.2610
 IR Inten    --      0.5809                 0.2477                 4.0151

                     34                     35                     36
                      A                      A                      A
 Frequencies --   1103.7745              1110.8343              1120.6054
 Red. masses --      5.3763                 1.8476                 1.5061
 Frc consts  --      3.8591                 1.3432                 1.1143
 IR Inten    --     83.6984                 6.1260                13.6445

                     37                     38                     39
                      A                      A                      A
 Frequencies --   1127.2158              1222.8073              1225.3258
 Red. masses --      3.4832                 1.3324                 1.6386
 Frc consts  --      2.6076                 1.1738                 1.4496
 IR Inten    --     52.1093                 5.7588                 6.2216

                     40                     41                     42
                      A                      A                      A
 Frequencies --   1226.9810              1244.3675              1266.7548
 Red. masses --      1.6738                 1.1760                 1.4433
 Frc consts  --      1.4847                 1.0729                 1.3645
 IR Inten    --     25.8369                10.6726                 5.4020

                     43                     44                     45
                      A                      A                      A
 Frequencies --   1286.5569              1305.5738              1324.2001
 Red. masses --      1.5224                 1.2726                 1.5065
 Frc consts  --      1.4847                 1.2781                 1.5565
 IR Inten    --      0.8858                 5.9085                 7.7954

                     46                     47                     48
                      A                      A                      A
 Frequencies --   1339.4582              1354.3086              1369.9361
 Red. masses --      1.3165                 1.3257                 1.8256
 Frc consts  --      1.3917                 1.4327                 2.0186
 IR Inten    --      7.9142                 6.1879                76.5119

                     49                     50                     51
                      A                      A                      A
 Frequencies --   1388.7981              1399.6184              1412.0375
 Red. masses --      1.6171                 1.4143                 1.6635
 Frc consts  --      1.8377                 1.6323                 1.9541
 IR Inten    --     16.2994                 3.7082                 3.7810

                     52                     53                     54
                      A                      A                      A
 Frequencies --   1491.2815              1496.5223              1501.4264
 Red. masses --      1.4372                 1.0897                 1.0884
 Frc consts  --      1.8832                 1.4379                 1.4456
 IR Inten    --     87.1976                 3.2154                 2.5395

                     55                     56                     57
                      A                      A                      A
 Frequencies --   1509.3041              1526.3049              1540.6107
 Red. masses --      1.0892                 1.0931                 1.1119
 Frc consts  --      1.4619                 1.5003                 1.5548
 IR Inten    --      4.9674                 4.0185                 0.7829

                     58                     59                     60
                      A                      A                      A
 Frequencies --   1630.0240              1637.8864              2984.2467
 Red. masses --      7.4553                 7.8020                 1.0731
 Frc consts  --     11.6709                12.3317                 5.6305
 IR Inten    --     19.8798                47.1776                52.1660

                     61                     62                     63
                      A                      A                      A
 Frequencies --   3028.1825              3038.3912              3039.5709
 Red. masses --      1.0723                 1.0729                 1.0641
 Frc consts  --      5.7931                 5.8355                 5.7921
 IR Inten    --      5.7671                13.1990                28.6234

                     64                     65                     66
                      A                      A                      A
 Frequencies --   3050.3898              3052.7502              3060.0077
 Red. masses --      1.0674                 1.0661                 1.0886
 Frc consts  --      5.8519                 5.8535                 6.0057
 IR Inten    --     37.7099                20.0775                28.5250

                     67                     68                     69
                      A                      A                      A
 Frequencies --   3084.7765              3105.5246              3113.0174
 Red. masses --      1.0984                 1.0956                 1.1012
 Frc consts  --      6.1580                 6.2255                 6.2876
 IR Inten    --     38.8929                21.1852                12.9232

                     70                     71                     72
                      A                      A                      A
 Frequencies --   3118.9937              3320.6274              3684.1126
 Red. masses --      1.1015                 1.0997                 1.0659
 Frc consts  --      6.3133                 7.1445                 8.5238
 IR Inten    --     17.2440                 1.8024                63.4653

 - Thermochemistry -
 -------------------
 Temperature   298.150 Kelvin.  Pressure   1.00000 Atm.
 Atom     1 has atomic number  6 and mass  12.00000

 Molecular mass:   199.06670 amu.
 Principal axes and moments of inertia in atomic units:
                           1         2         3
     Eigenvalues --  1019.441445653.264316381.78615
           X            0.99992   0.01064   0.00668
           Y           -0.01066   0.99994   0.00368
           Z           -0.00664  -0.00375   0.99997
 This molecule is an asymmetric top.
 Rotational symmetry number  1.
 Warning -- assumption of classical behavior for rotation
           may cause significant error
 Rotational temperatures (Kelvin)      0.08496     0.01532     0.01357
 Rotational constants (GHZ):           1.77032     0.31924     0.28280
 Zero-point vibrational energy     566614.7 (Joules/Mol)
                                  135.42416 (Kcal/Mol)
 Warning -- explicit consideration of  16 degrees of freedom as
           vibrations may cause significant error
 Vibrational temperatures:     41.73    92.63   114.45   123.96   237.81
          (Kelvin)            262.41   282.29   340.63   409.39   412.20
                              489.39   513.04   582.02   646.78   668.14
                              703.02   928.24   958.38   980.16  1041.71
                             1071.35  1106.00  1144.12  1212.40  1228.12
                             1271.34  1372.74  1389.86  1443.29  1492.34
                             1511.52  1532.91  1570.47  1588.09  1598.24
                             1612.30  1621.81  1759.35  1762.97  1765.35
                             1790.37  1822.58  1851.07  1878.43  1905.23
                             1927.18  1948.55  1971.03  1998.17  2013.74
                             2031.61  2145.62  2153.16  2160.22  2171.55
                             2196.01  2216.60  2345.24  2356.55  4293.67
                             4356.88  4371.57  4373.26  4388.83  4392.23
                             4402.67  4438.31  4468.16  4478.94  4487.54
                             4777.64  5300.62

 Zero-point correction=                           0.215812 (Hartree/Particle)
 Thermal correction to Energy=                    0.228262
 Thermal correction to Enthalpy=                  0.229206
 Thermal correction to Gibbs Free Energy=         0.175632
 Sum of electronic and zero-point Energies=           -953.988415
 Sum of electronic and thermal Energies=              -953.975966
 Sum of electronic and thermal Enthalpies=            -953.975022
 Sum of electronic and thermal Free Energies=         -954.028596

                     E (Thermal)             CV                S
                      KCal/Mol        Cal/Mol-Kelvin    Cal/Mol-Kelvin
 Total                  143.236             46.578            112.756
 Electronic               0.000              0.000              0.000
 Translational            0.889              2.981             41.770
 Rotational               0.889              2.981             31.975
 Vibrational            141.459             40.616             39.011
 Vibration     1          0.593              1.984              5.896
 Vibration     2          0.597              1.971              4.318
 Vibration     3          0.600              1.963              3.902
 Vibration     4          0.601              1.959              3.746
 Vibration     5          0.624              1.885              2.488
 Vibration     6          0.630              1.864              2.304
 Vibration     7          0.636              1.845              2.168
 Vibration     8          0.656              1.784              1.827
 Vibration     9          0.683              1.702              1.506
 Vibration    10          0.684              1.699              1.495
 Vibration    11          0.720              1.595              1.211
 Vibration    12          0.732              1.562              1.137
 Vibration    13          0.770              1.460              0.946
 Vibration    14          0.808              1.362              0.797
 Vibration    15          0.822              1.329              0.753
 Vibration    16          0.845              1.275              0.687

 Optimization completed.
    -- Stationary point found.
 Normal termination of Gaussian 16 at Sun Dec 13 16:25:45 2020.

 ----------------------------------------------------------------------
 # B3LYP/6-311++G(d,p) empiricaldispersion=gd3bj scf=xqc pop=npa geom=c
 heck
 ----------------------------------------------------------------------

 ---------------------------------------
 CID_115021750_JID_3983_Energie_neutraal
 ---------------------------------------
 Structure from the checkpoint file:  "JID_3983.chk"
 Charge =  0 Multiplicity = 1

 SCF Done:  E(RB3LYP) =  -954.393614669     A.U. after   14 cycles
 Normal termination of Gaussian 16 at Sun Dec 13 16:28:27 2020.

 ----------------------------------------------------------------------
 # B3LYP/6-311++G(d,p) empiricaldispersion=gd3bj scf=xqc pop=npa geom=c
 heck
 ----------------------------------------------------------------------

 -------------------------------------
 CID_115021750_JID_3983_Energie_kation
 -------------------------------------
 Structure from the checkpoint file:  "JID_3983.chk"
 Charge =  1 Multiplicity = 2

 SCF Done:  E(UB3LYP) =  -954.092063701     A.U. after   24 cycles
 Normal termination of Gaussian 16 at Sun Dec 13 16:35:04 2020.
 Gaussian 16:  ES64L-G16RevA.03 25-Dec-2016

 ----------------------------------------------------------------------
 # B3LYP/6-311++G(d,p) empiricaldispersion=gd3bj scf=xqc pop=npa geom=c
 heck
 ----------------------------------------------------------------------

 ------------------------------------
 CID_115021750_JID_3983_Energie_anion
 ------------------------------------
 Structure from the checkpoint file:  "JID_3983.chk"
 Charge = -1 Multiplicity = 2

                         Standard orientation:
 ---------------------------------------------------------------------
 Center     Atomic      Atomic             Coordinates (Angstroms)
 Number     Number       Type             X           Y           Z
 ---------------------------------------------------------------------
      1          6           0        2.486352    1.801539    0.233455
      2          6           0        1.096942    1.225944    0.529582
      3          6           0        0.755191   -0.012759   -0.326627
      4          6           0        1.750372   -1.156090   -0.094257
      5         16           0        3.466056   -0.705713   -0.544720
      6          6           0        3.610664    0.798829    0.495439
      7          6           0       -0.652796   -0.454243   -0.059714
      8          6           0       -1.139805   -1.617816    0.442705
      9          8           0       -2.516072   -1.517821    0.512870
     10          6           0       -2.785956   -0.277225    0.043694
     11          7           0       -1.736836    0.397279   -0.309998
     12          6           0       -4.202686    0.191738   -0.076588
     13          8           0       -4.244515    1.565908   -0.385369
     14          1           0        2.535218    2.132666   -0.811249
     15          1           0        2.650293    2.687724    0.861148
     16          1           0        1.031913    0.944225    1.590513
     17          1           0        0.330150    1.988404    0.359455
     18          1           0        0.819072    0.282632   -1.382946
     19          1           0        1.723940   -1.473318    0.955949
     20          1           0        1.497840   -2.023444   -0.712060
     21          1           0        4.588743    1.227952    0.258380
     22          1           0        3.624737    0.501772    1.551352
     23          1           0       -0.712502   -2.546724    0.781508
     24          1           0       -4.714002   -0.411422   -0.846399
     25          1           0       -4.733563    0.017020    0.868285
     26          1           0       -3.365846    1.798768   -0.734566
 ---------------------------------------------------------------------

 SCF Done:  E(UB3LYP) =  -954.379218007     A.U. after   33 cycles
 SCF Done:  E(UB3LYP) =  -954.379218007     a.u. after    1 cycles

 The electronic state is 2-A.
 Alpha  occ. eigenvalues --  -88.74327 -19.11302 -19.03985 -14.22646 -10.17809
 Alpha  occ. eigenvalues --  -10.14957 -10.13504 -10.11782 -10.10555 -10.10283
 Alpha  occ. eigenvalues --  -10.09784 -10.07953 -10.07586  -7.82951  -5.79335
 Alpha  occ. eigenvalues --   -5.78997  -5.78315  -1.04770  -0.94773  -0.83952
 Alpha  occ. eigenvalues --   -0.75371  -0.70579  -0.66758  -0.66102  -0.60854
 Alpha  occ. eigenvalues --   -0.55781  -0.53404  -0.50986  -0.49784  -0.46872
 Alpha  occ. eigenvalues --   -0.44380  -0.41051  -0.39358  -0.38301  -0.37645
 Alpha  occ. eigenvalues --   -0.36679  -0.35380  -0.34755  -0.33153  -0.32179
 Alpha  occ. eigenvalues --   -0.30738  -0.29690  -0.27366  -0.27116  -0.26658
 Alpha  occ. eigenvalues --   -0.24886  -0.23637  -0.22312  -0.21592  -0.20895
 Alpha  occ. eigenvalues --   -0.20108  -0.15474  -0.13125   0.04391
 Alpha virt. eigenvalues --    0.06045   0.06892   0.07683   0.08054   0.08294
 Alpha virt. eigenvalues --    0.09298   0.09471   0.10065   0.10707   0.10992
 Alpha virt. eigenvalues --    0.11629   0.12094   0.12722   0.13016   0.13430

  Beta  occ. eigenvalues --  -88.74326 -19.11292 -19.03980 -14.22632 -10.17804
  Beta  occ. eigenvalues --  -10.14930 -10.13474 -10.11783 -10.10533 -10.10258
  Beta  occ. eigenvalues --  -10.09780 -10.07934 -10.07571  -7.82949  -5.79334
  Beta  occ. eigenvalues --   -5.78993  -5.78313  -1.04755  -0.94761  -0.83932
  Beta  occ. eigenvalues --   -0.75346  -0.70546  -0.66720  -0.66072  -0.60796
  Beta  occ. eigenvalues --   -0.55742  -0.53365  -0.50958  -0.49741  -0.46815
  Beta  occ. eigenvalues --   -0.44349  -0.41004  -0.39309  -0.38253  -0.37597
  Beta  occ. eigenvalues --   -0.36650  -0.35350  -0.34717  -0.33114  -0.32147
  Beta  occ. eigenvalues --   -0.30701  -0.29671  -0.27334  -0.27090  -0.26629
  Beta  occ. eigenvalues --   -0.24845  -0.23605  -0.22282  -0.21572  -0.20867
  Beta  occ. eigenvalues --   -0.20089  -0.15436  -0.13108
  Beta virt. eigenvalues --    0.06665   0.07065   0.07763   0.08062   0.08245
  Beta virt. eigenvalues --    0.08759   0.09784   0.09985   0.10476   0.10841
  Beta virt. eigenvalues --    0.11305   0.11764   0.12484   0.12851   0.13129

 Mulliken charges and spin densities:
               1          2
     1  C   -0.272480   0.037896
     2  C    0.139781  -0.663496
     3  C    0.654365  -0.545947
     4  C   -0.001031  -0.630933
     5  S    0.041853  -0.082190
     6  C    0.372989  -0.895877
     7  C    2.180104  -2.365678
     8  C   -2.706494   2.678774
     9  O   -0.075218   0.015054
    10  C   -0.339514   0.573899
    11  N   -0.138593   0.143212
    12  C    2.226196  -2.539525
    13  O   -0.318599   0.034278
    14  H    0.117865  -0.010411
    15  H   -0.485472   0.667466
    16  H   -0.311612   0.483692
    17  H    0.256053  -0.094448
    18  H   -0.017293   0.201671
    19  H    0.094339   0.115965
    20  H    0.074182   0.110331
    21  H   -0.319697   0.527649
    22  H   -0.058962   0.236518
    23  H   -1.767622   2.003667
    24  H   -0.395438   0.587598
    25  H   -0.160363   0.349293
    26  H    0.210664   0.061543
 Sum of Mulliken charges =  -1.00000   1.00000

 Dipole moment (field-independent basis, Debye):
    X=              0.3325    Y=              1.5580    Z=             -2.8245  Tot=              3.2428
 Quadrupole moment (field-independent basis, Debye-Ang):
   XX=           -170.4978   YY=           -134.9536   ZZ=           -118.0340
   XY=             -4.2197   XZ=             -7.1619   YZ=             -0.2963

 Summary of Natural Population Analysis:

                                       Natural Population
                Natural  -----------------------------------------------
    Atom  No    Charge         Core      Valence    Rydberg      Total
 -----------------------------------------------------------------------
      C    1   -0.19571      0.99962     2.18602    0.01008     3.19571
      C    2   -0.18620      0.99960     2.17700    0.00960     3.18620
      C    3   -0.13032      0.99954     2.11869    0.01208     3.13032
      C    4   -0.24906      0.99957     2.23742    0.01207     3.24906
      S    5    0.08569      4.99964     2.89809    0.01658     7.91431
      C    6   -0.24856      0.99959     2.23785    0.01111     3.24856
      C    7    0.05148      0.99951     1.93293    0.01608     2.94852
      C    8    0.04391      0.99940     1.94372    0.01297     2.95609
      O    9   -0.23331      0.99986     3.22485    0.00860     4.23331
      C   10    0.26327      0.99959     1.71750    0.01965     2.73673
      N   11   -0.27278      0.99965     2.76329    0.00984     3.77278
      C   12   -0.02896      0.99957     2.01803    0.01137     3.02896
      O   13   -0.36707      0.99990     3.36010    0.00707     4.36707
      H   14    0.09608      0.00000     0.40240    0.00152     0.40392
      H   15    0.10395      0.00000     0.39435    0.00170     0.39605
      H   16    0.09811      0.00000     0.40020    0.00169     0.40189
      H   17    0.10736      0.00000     0.39127    0.00137     0.39264
      H   18    0.10673      0.00000     0.39119    0.00208     0.39327
      H   19    0.10341      0.00000     0.39450    0.00209     0.39659
      H   20    0.11040      0.00000     0.38828    0.00133     0.38960
      H   21    0.10726      0.00000     0.39148    0.00126     0.39274
      H   22    0.10089      0.00000     0.39735    0.00175     0.39911
      H   23    0.10802      0.00000     0.38719    0.00479     0.39198
      H   24    0.09066      0.00000     0.40646    0.00288     0.40934
      H   25    0.09481      0.00000     0.40313    0.00206     0.40519
      H   26    0.23995      0.00000     0.25626    0.00379     0.26005
 =======================================================================
   * Total *    0.00000     16.99505    35.81954    0.18542    53.00000

 Normal termination of Gaussian 16 at Sun Dec 13 16:44:05 2020.
