 Gaussian 16, Revision A.03,

 -----------------------------------------------------------
 # opt freq B3LYP/6-31G(d) empiricaldispersion=gd3bj scf=xqc
 -----------------------------------------------------------

 -------------------------------
 CID_105753945_JID_5451_neutraal
 -------------------------------
 Symbolic Z-matrix:
 Charge =  0 Multiplicity = 1

 SCF Done:  E(RB3LYP) =  -1012.93489750     A.U. after   15 cycles
 SCF Done:  E(RB3LYP) =  -1012.94167847     A.U. after   13 cycles
 SCF Done:  E(RB3LYP) =  -1012.94280001     A.U. after   14 cycles
 SCF Done:  E(RB3LYP) =  -1012.94501848     A.U. after   12 cycles
 SCF Done:  E(RB3LYP) =  -1012.94576803     A.U. after   14 cycles
 SCF Done:  E(RB3LYP) =  -1012.94745269     A.U. after   13 cycles
 SCF Done:  E(RB3LYP) =  -1012.94781554     A.U. after   13 cycles
 SCF Done:  E(RB3LYP) =  -1012.94788445     A.U. after   12 cycles
 SCF Done:  E(RB3LYP) =  -1012.94804598     A.U. after   11 cycles
 SCF Done:  E(RB3LYP) =  -1012.94811233     A.U. after   11 cycles
 SCF Done:  E(RB3LYP) =  -1012.94982625     A.U. after   11 cycles
 SCF Done:  E(RB3LYP) =  -1012.94983319     A.U. after   10 cycles
 SCF Done:  E(RB3LYP) =  -1012.94983500     A.U. after    8 cycles
 SCF Done:  E(RB3LYP) =  -1012.94983545     A.U. after    8 cycles
 SCF Done:  E(RB3LYP) =  -1012.94983554     A.U. after    8 cycles
 Optimization completed.
    -- Stationary point found.
 Normal termination of Gaussian 16 at Thu Dec 10 16:45:21 2020.

 --------------------------------------------------------------------
 #N Geom=AllCheck Guess=TCheck SCRF=Check GenChk RB3LYP/6-31G(d) Freq
 --------------------------------------------------------------------

 Structure from the checkpoint file:  "JID_5451.chk"
 -------------------------------
 CID_105753945_JID_5451_neutraal
 -------------------------------
 Charge =  0 Multiplicity = 1

 SCF Done:  E(RB3LYP) =  -1012.94983554     A.U. after    1 cycles

  Exact polarizability: 152.345  -1.089 143.218   6.117  -7.153 128.533
 Approx polarizability: 205.577  -3.556 222.022  21.257 -15.188 217.096

                      1                      2                      3
                      A                      A                      A
 Frequencies --     37.0865                51.6785                56.1293
 Red. masses --      4.8034                 3.1490                 5.4956
 Frc consts  --      0.0039                 0.0050                 0.0102
 IR Inten    --      1.1003                 0.2122                 0.6608

                      4                      5                      6
                      A                      A                      A
 Frequencies --     80.7088                84.5760               130.2453
 Red. masses --      5.0843                 7.0052                 2.4304
 Frc consts  --      0.0195                 0.0295                 0.0243
 IR Inten    --      5.9941                 4.0226                 0.2575

                      7                      8                      9
                      A                      A                      A
 Frequencies --    152.9101               198.1042               232.8957
 Red. masses --      4.5766                 4.4839                 2.8719
 Frc consts  --      0.0630                 0.1037                 0.0918
 IR Inten    --      0.4610                 1.3057                 1.2868

                     10                     11                     12
                      A                      A                      A
 Frequencies --    258.9583               265.9011               279.2499
 Red. masses --      1.1172                 3.0309                 2.3578
 Frc consts  --      0.0441                 0.1263                 0.1083
 IR Inten    --      0.2563                 0.7528                 0.5480

                     13                     14                     15
                      A                      A                      A
 Frequencies --    299.5075               319.2025               348.7174
 Red. masses --      3.2019                 2.0671                 2.6338
 Frc consts  --      0.1692                 0.1241                 0.1887
 IR Inten    --      2.3203                 0.9398                 0.0299

                     16                     17                     18
                      A                      A                      A
 Frequencies --    371.5027               380.0160               380.8014
 Red. masses --      2.3944                 1.3348                 2.3114
 Frc consts  --      0.1947                 0.1136                 0.1975
 IR Inten    --     89.6790               159.9089                 1.2794

                     19                     20                     21
                      A                      A                      A
 Frequencies --    446.2105               461.1656               523.4341
 Red. masses --      3.4585                 3.6362                 3.6776
 Frc consts  --      0.4057                 0.4556                 0.5937
 IR Inten    --      9.5558                 1.9297                 8.2599

                     22                     23                     24
                      A                      A                      A
 Frequencies --    536.9986               617.7443               630.5069
 Red. masses --      5.0928                 1.4172                 2.3136
 Frc consts  --      0.8653                 0.3186                 0.5419
 IR Inten    --      5.7847                49.4786                11.1875

                     25                     26                     27
                      A                      A                      A
 Frequencies --    645.1062               664.1152               683.0821
 Red. masses --      1.3452                 3.6787                 4.2859
 Frc consts  --      0.3298                 0.9559                 1.1782
 IR Inten    --     31.8586                 3.1978                30.6786

                     28                     29                     30
                      A                      A                      A
 Frequencies --    726.0889               751.8912               795.1420
 Red. masses --      1.6310                 4.9505                 1.3468
 Frc consts  --      0.5066                 1.6490                 0.5017
 IR Inten    --      2.6120                35.5528                 1.1874

                     31                     32                     33
                      A                      A                      A
 Frequencies --    799.2971               839.3719               874.0330
 Red. masses --      1.1708                 1.9659                 1.8935
 Frc consts  --      0.4407                 0.8161                 0.8523
 IR Inten    --      0.5867                 6.2745                 0.7145

                     34                     35                     36
                      A                      A                      A
 Frequencies --    879.5155               907.5736               931.5015
 Red. masses --      1.9928                 4.0742                 2.0800
 Frc consts  --      0.9082                 1.9772                 1.0634
 IR Inten    --      1.0416                13.4436                 3.0510

                     37                     38                     39
                      A                      A                      A
 Frequencies --    935.5729               952.0782               955.7639
 Red. masses --      3.5738                 1.8302                 2.3396
 Frc consts  --      1.8430                 0.9774                 1.2592
 IR Inten    --      3.5678                12.4364                 1.2759

                     40                     41                     42
                      A                      A                      A
 Frequencies --    978.2464               990.3003              1003.2485
 Red. masses --      1.4865                 1.3120                 1.9170
 Frc consts  --      0.8381                 0.7581                 1.1368
 IR Inten    --      7.0353                 4.5592                12.1079

                     43                     44                     45
                      A                      A                      A
 Frequencies --   1007.3175              1073.3766              1083.2764
 Red. masses --      2.1492                 1.3987                 1.2257
 Frc consts  --      1.2848                 0.9494                 0.8474
 IR Inten    --      0.8322                14.6543                 9.4535

                     46                     47                     48
                      A                      A                      A
 Frequencies --   1109.3985              1124.1654              1192.1375
 Red. masses --      1.3462                 2.0113                 2.0974
 Frc consts  --      0.9762                 1.4975                 1.7563
 IR Inten    --      1.3266                26.3129                 4.0421

                     49                     50                     51
                      A                      A                      A
 Frequencies --   1206.0149              1216.1621              1218.6900
 Red. masses --      2.2675                 1.3380                 1.6811
 Frc consts  --      1.9431                 1.1660                 1.4711
 IR Inten    --      0.5950                 1.4518                 7.5927

                     52                     53                     54
                      A                      A                      A
 Frequencies --   1223.8111              1245.4263              1263.2869
 Red. masses --      1.6371                 2.1168                 2.8988
 Frc consts  --      1.4446                 1.9345                 2.7257
 IR Inten    --     10.3115                 4.2195                 8.0087

                     55                     56                     57
                      A                      A                      A
 Frequencies --   1276.0263              1284.8703              1288.5347
 Red. masses --      1.2470                 1.6125                 1.3667
 Frc consts  --      1.1962                 1.5685                 1.3370
 IR Inten    --      1.3866                 1.3411                 7.1747

                     58                     59                     60
                      A                      A                      A
 Frequencies --   1323.2720              1329.9515              1362.7151
 Red. masses --      1.5385                 1.8124                 3.2703
 Frc consts  --      1.5872                 1.8887                 3.5780
 IR Inten    --     43.0730                16.6997               175.1793

                     61                     62                     63
                      A                      A                      A
 Frequencies --   1386.7810              1404.5879              1430.6650
 Red. masses --      2.1637                 3.5212                 1.8560
 Frc consts  --      2.4517                 4.0930                 2.2383
 IR Inten    --    133.9078                83.5434               118.0444

                     64                     65                     66
                      A                      A                      A
 Frequencies --   1439.5402              1474.2969              1502.8164
 Red. masses --      1.2411                 1.0918                 1.2655
 Frc consts  --      1.5154                 1.3982                 1.6840
 IR Inten    --      4.3599                 2.5943                18.2692

                     67                     68                     69
                      A                      A                      A
 Frequencies --   1506.6078              1511.0343              1511.6732
 Red. masses --      1.2670                 1.2961                 1.1236
 Frc consts  --      1.6944                 1.7436                 1.5128
 IR Inten    --      1.4977                17.7827                 2.9285

                     70                     71                     72
                      A                      A                      A
 Frequencies --   1521.8058              1528.8668              1530.5301
 Red. masses --      1.1008                 1.0754                 1.0698
 Frc consts  --      1.5020                 1.4810                 1.4765
 IR Inten    --     11.7102                 1.3394                 3.4262

                     73                     74                     75
                      A                      A                      A
 Frequencies --   1540.4522              1653.7695              1754.8340
 Red. masses --      1.1374                 1.2646                 7.0182
 Frc consts  --      1.5902                 2.0378                12.7335
 IR Inten    --      1.1715               146.8549               310.1780

                     76                     77                     78
                      A                      A                      A
 Frequencies --   3037.8970              3052.8531              3056.8304
 Red. masses --      1.0365                 1.0659                 1.0730
 Frc consts  --      5.6357                 5.8530                 5.9072
 IR Inten    --     21.1744                65.9888                24.8425

                     79                     80                     81
                      A                      A                      A
 Frequencies --   3067.6564              3082.9991              3101.1407
 Red. masses --      1.0581                 1.0610                 1.1017
 Frc consts  --      5.8667                 5.9416                 6.2427
 IR Inten    --     28.7822                31.3985                30.9266

                     82                     83                     84
                      A                      A                      A
 Frequencies --   3112.1318              3113.7087              3125.5351
 Red. masses --      1.1077                 1.1014                 1.1032
 Frc consts  --      6.3213                 6.2912                 6.3500
 IR Inten    --     19.6920                32.6519                 4.4464

                     85                     86                     87
                      A                      A                      A
 Frequencies --   3141.1434              3154.4107              3174.2117
 Red. masses --      1.1041                 1.0541                 1.0547
 Frc consts  --      6.4186                 6.1796                 6.2611
 IR Inten    --     51.0365                 9.7884                 6.1362

                     88                     89                     90
                      A                      A                      A
 Frequencies --   3182.3691              3242.6800              3271.0682
 Red. masses --      1.0882                 1.1183                 1.1179
 Frc consts  --      6.4930                 6.9281                 7.0476
 IR Inten    --      4.0043                 3.6884                 0.1746

                     91                     92                     93
                      A                      A                      A
 Frequencies --   3567.4847              3588.5740              3695.7842
 Red. masses --      1.0442                 1.0751                 1.1055
 Frc consts  --      7.8299                 8.1571                 8.8965
 IR Inten    --     46.1523                19.2672                41.3582

 - Thermochemistry -
 -------------------
 Temperature   298.150 Kelvin.  Pressure   1.00000 Atm.
 Atom     1 has atomic number  6 and mass  12.00000

 Molecular mass:   226.11399 amu.
 Principal axes and moments of inertia in atomic units:
                           1         2         3
     Eigenvalues --  2336.937774389.520225119.43302
           X            0.99954   0.02886  -0.00965
           Y           -0.02900   0.99948  -0.01433
           Z            0.00923   0.01460   0.99985
 This molecule is an asymmetric top.
 Rotational symmetry number  1.
 Warning -- assumption of classical behavior for rotation
           may cause significant error
 Rotational temperatures (Kelvin)      0.03706     0.01973     0.01692
 Rotational constants (GHZ):           0.77227     0.41115     0.35253
 Zero-point vibrational energy     746178.8 (Joules/Mol)
                                  178.34101 (Kcal/Mol)
 Warning -- explicit consideration of  23 degrees of freedom as
           vibrations may cause significant error
 Vibrational temperatures:     53.36    74.35    80.76   116.12   121.69
          (Kelvin)            187.39   220.00   285.03   335.09   372.58
                              382.57   401.78   430.92   459.26   501.73
                              534.51   546.76   547.89   642.00   663.51
                              753.10   772.62   888.80   907.16   928.16
                              955.51   982.80  1044.68  1081.80  1144.03
                             1150.01  1207.67  1257.54  1265.43  1305.80
                             1340.22  1346.08  1369.83  1375.13  1407.48
                             1424.82  1443.45  1449.31  1544.35  1558.59
                             1596.18  1617.42  1715.22  1735.19  1749.79
                             1753.42  1760.79  1791.89  1817.59  1835.92
                             1848.64  1853.91  1903.89  1913.50  1960.64
                             1995.27  2020.89  2058.41  2071.18  2121.18
                             2162.22  2167.67  2174.04  2174.96  2189.54
                             2199.70  2202.09  2216.37  2379.41  2524.81
                             4370.86  4392.37  4398.10  4413.67  4435.75
                             4461.85  4477.66  4479.93  4496.95  4519.40
                             4538.49  4566.98  4578.72  4665.49  4706.34
                             5132.81  5163.16  5317.41

 Zero-point correction=                           0.284204 (Hartree/Particle)
 Thermal correction to Energy=                    0.299921
 Thermal correction to Enthalpy=                  0.300865
 Thermal correction to Gibbs Free Energy=         0.240883
 Sum of electronic and zero-point Energies=          -1012.665631
 Sum of electronic and thermal Energies=             -1012.649914
 Sum of electronic and thermal Enthalpies=           -1012.648970
 Sum of electronic and thermal Free Energies=        -1012.708953

                     E (Thermal)             CV                S
                      KCal/Mol        Cal/Mol-Kelvin    Cal/Mol-Kelvin
 Total                  188.203             60.361            126.244
 Electronic               0.000              0.000              0.000
 Translational            0.889              2.981             42.150
 Rotational               0.889              2.981             32.329
 Vibrational            186.426             54.400             51.765
 Vibration     1          0.594              1.982              5.409
 Vibration     2          0.596              1.977              4.752
 Vibration     3          0.596              1.975              4.589
 Vibration     4          0.600              1.962              3.874
 Vibration     5          0.601              1.960              3.782
 Vibration     6          0.612              1.923              2.942
 Vibration     7          0.619              1.899              2.636
 Vibration     8          0.637              1.843              2.151
 Vibration     9          0.654              1.791              1.857
 Vibration    10          0.668              1.748              1.669
 Vibration    11          0.672              1.736              1.623
 Vibration    12          0.680              1.712              1.538
 Vibration    13          0.692              1.675              1.420
 Vibration    14          0.705              1.637              1.314
 Vibration    15          0.726              1.578              1.172
 Vibration    16          0.743              1.531              1.074
 Vibration    17          0.750              1.513              1.039
 Vibration    18          0.751              1.511              1.036
 Vibration    19          0.805              1.369              0.807
 Vibration    20          0.819              1.336              0.763
 Vibration    21          0.878              1.198              0.602
 Vibration    22          0.892              1.168              0.572
 Vibration    23          0.978              0.994              0.420

 Optimization completed.
    -- Stationary point found.
 Normal termination of Gaussian 16 at Thu Dec 10 16:59:17 2020.

 ----------------------------------------------------------------------
 # B3LYP/6-311++G(d,p) empiricaldispersion=gd3bj scf=xqc pop=npa geom=c
 heck
 ----------------------------------------------------------------------

 ---------------------------------------
 CID_105753945_JID_5451_Energie_neutraal
 ---------------------------------------
 Structure from the checkpoint file:  "JID_5451.chk"
 Charge =  0 Multiplicity = 1

 SCF Done:  E(RB3LYP) =  -1013.15428667     A.U. after   16 cycles
 Normal termination of Gaussian 16 at Thu Dec 10 17:07:10 2020.

 ----------------------------------------------------------------------
 # B3LYP/6-311++G(d,p) empiricaldispersion=gd3bj scf=xqc pop=npa geom=c
 heck
 ----------------------------------------------------------------------

 -------------------------------------
 CID_105753945_JID_5451_Energie_kation
 -------------------------------------
 Structure from the checkpoint file:  "JID_5451.chk"
 Charge =  1 Multiplicity = 2

 SCF Done:  E(UB3LYP) =  -1012.85580400     A.U. after   29 cycles
 Normal termination of Gaussian 16 at Thu Dec 10 17:27:14 2020.
 Gaussian 16:  ES64L-G16RevA.03 25-Dec-2016

 ----------------------------------------------------------------------
 # B3LYP/6-311++G(d,p) empiricaldispersion=gd3bj scf=xqc pop=npa geom=c
 heck
 ----------------------------------------------------------------------

 ------------------------------------
 CID_105753945_JID_5451_Energie_anion
 ------------------------------------
 Structure from the checkpoint file:  "JID_5451.chk"
 Charge = -1 Multiplicity = 2

                         Standard orientation:
 ---------------------------------------------------------------------
 Center     Atomic      Atomic             Coordinates (Angstroms)
 Number     Number       Type             X           Y           Z
 ---------------------------------------------------------------------
      1          6           0        2.770566    1.877657    0.057724
      2          6           0        2.165765    0.494072   -0.185386
      3          6           0        1.933831   -0.279289    1.149763
      4          6           0        3.282913   -1.012019    0.935669
      5          6           0        3.251506   -0.565383   -0.548258
      6          6           0        0.985981    0.639423   -1.158538
      7          7           0        0.274854   -0.592073   -1.469527
      8          6           0       -0.750106   -1.253116   -0.852284
      9          8           0       -1.000693   -2.412731   -1.172550
     10          6           0       -1.567808   -0.603323    0.256567
     11          6           0       -2.850274   -1.351574    0.562667
     12          6           0       -1.694630   -1.491317    1.499428
     13          6           0       -1.646364    0.891005    0.404539
     14         16           0       -2.467924    1.854933   -0.673178
     15          7           0       -1.013007    1.391330    1.483994
     16          1           0        2.032383    2.550690    0.511805
     17          1           0        3.633919    1.823907    0.729911
     18          1           0        3.107595    2.332290   -0.881876
     19          1           0        1.834570    0.329923    2.056418
     20          1           0        1.089011   -0.969750    1.088010
     21          1           0        3.295454   -2.087988    1.128796
     22          1           0        4.102487   -0.550016    1.493648
     23          1           0        2.855071   -1.355204   -1.194505
     24          1           0        4.180269   -0.186286   -0.987285
     25          1           0        0.283154    1.386436   -0.795766
     26          1           0        1.367954    1.028682   -2.110617
     27          1           0        0.707455   -1.195649   -2.158402
     28          1           0       -3.693369   -0.743394    0.872829
     29          1           0       -3.068428   -2.179116   -0.101828
     30          1           0       -1.135409   -2.420947    1.480459
     31          1           0       -1.758913   -1.006112    2.469210
     32          1           0       -0.440806    0.803759    2.074661
     33          1           0       -1.021259    2.390084    1.643156
 ---------------------------------------------------------------------

 SCF Done:  E(UB3LYP) =  -1013.15532828     A.U. after   33 cycles
 SCF Done:  E(UB3LYP) =  -1013.15532828     a.u. after    1 cycles

 The electronic state is 2-A.
 Alpha  occ. eigenvalues --  -88.64933 -18.97470 -14.22740 -14.21062 -10.16513
 Alpha  occ. eigenvalues --  -10.09506 -10.09491 -10.08766 -10.08365 -10.07660
 Alpha  occ. eigenvalues --  -10.07142 -10.06980 -10.06649 -10.06443 -10.05922
 Alpha  occ. eigenvalues --   -7.73686  -5.70027  -5.69582  -5.69255  -0.93053
 Alpha  occ. eigenvalues --   -0.81903  -0.81227  -0.75402  -0.75309  -0.64446
 Alpha  occ. eigenvalues --   -0.61131  -0.59021  -0.56703  -0.54234  -0.51613
 Alpha  occ. eigenvalues --   -0.50141  -0.48376  -0.44337  -0.42735  -0.42243
 Alpha  occ. eigenvalues --   -0.40032  -0.38738  -0.38339  -0.36179  -0.35573
 Alpha  occ. eigenvalues --   -0.34077  -0.33139  -0.30664  -0.29852  -0.29379
 Alpha  occ. eigenvalues --   -0.28987  -0.27726  -0.27534  -0.25727  -0.24890
 Alpha  occ. eigenvalues --   -0.23888  -0.23310  -0.22433  -0.20676  -0.20542
 Alpha  occ. eigenvalues --   -0.19413  -0.18094  -0.15394  -0.14400  -0.10044
 Alpha  occ. eigenvalues --   -0.07430   0.04274
 Alpha virt. eigenvalues --    0.06213   0.07729   0.07985   0.08346   0.09613
 Alpha virt. eigenvalues --    0.10154   0.10299   0.10527   0.11011   0.11608
 Alpha virt. eigenvalues --    0.12419   0.12708   0.13411   0.13653   0.14138

  Beta  occ. eigenvalues --  -88.64910 -18.97456 -14.22733 -14.20922 -10.16463
  Beta  occ. eigenvalues --  -10.09503 -10.08832 -10.08803 -10.08365 -10.07652
  Beta  occ. eigenvalues --  -10.07128 -10.06971 -10.06630 -10.06412 -10.05883
  Beta  occ. eigenvalues --   -7.73665  -5.70038  -5.69485  -5.69241  -0.93012
  Beta  occ. eigenvalues --   -0.81595  -0.80960  -0.75339  -0.75258  -0.64415
  Beta  occ. eigenvalues --   -0.60456  -0.58946  -0.56666  -0.54101  -0.51562
  Beta  occ. eigenvalues --   -0.50074  -0.47986  -0.44243  -0.42687  -0.42035
  Beta  occ. eigenvalues --   -0.39996  -0.38645  -0.38287  -0.36084  -0.35503
  Beta  occ. eigenvalues --   -0.33943  -0.33082  -0.30597  -0.29801  -0.29314
  Beta  occ. eigenvalues --   -0.28800  -0.27624  -0.27330  -0.25650  -0.24047
  Beta  occ. eigenvalues --   -0.23513  -0.22799  -0.22376  -0.20614  -0.20450
  Beta  occ. eigenvalues --   -0.19119  -0.17947  -0.15277  -0.14380  -0.09006
  Beta  occ. eigenvalues --   -0.07357
  Beta virt. eigenvalues --    0.06648   0.07870   0.08165   0.08494   0.09702
  Beta virt. eigenvalues --    0.09792   0.10319   0.10546   0.10860   0.11281
  Beta virt. eigenvalues --    0.11752   0.12602   0.12837   0.13542   0.13659

 Mulliken charges and spin densities:
               1          2
     1  C    1.453906  -2.069818
     2  C    0.069786   1.137022
     3  C   -0.617723   0.125137
     4  C    0.632487  -1.026632
     5  C   -0.902060   0.435116
     6  C   -0.640491  -0.046319
     7  N   -0.219020   0.044243
     8  C   -0.583647   0.049546
     9  O   -0.308966   0.005448
    10  C    0.635759   0.103638
    11  C   -0.325385  -0.070139
    12  C   -0.324543  -0.034569
    13  C    0.360333   0.021648
    14  S   -0.778798   0.119886
    15  N   -0.454038   0.175984
    16  H   -0.114052   0.268935
    17  H   -0.308262   0.455618
    18  H   -0.101114   0.233867
    19  H   -0.296181   0.455966
    20  H    0.435356  -0.289131
    21  H    0.062526   0.073970
    22  H   -0.103710   0.245158
    23  H    0.098903  -0.008931
    24  H   -0.105339   0.262353
    25  H    0.013201   0.102209
    26  H    0.112475   0.074633
    27  H    0.247376   0.052218
    28  H    0.153355  -0.007519
    29  H    0.181338   0.012017
    30  H    0.117033   0.060164
    31  H    0.144838   0.003808
    32  H    0.220122   0.006947
    33  H    0.244533   0.027529
 Sum of Mulliken charges =  -1.00000   1.00000

 Dipole moment (field-independent basis, Debye):
    X=              1.6808    Y=             -3.4516    Z=              1.7577  Tot=              4.2223
 Quadrupole moment (field-independent basis, Debye-Ang):
   XX=           -159.6726   YY=           -140.9024   ZZ=           -118.8236
   XY=             -0.3377   XZ=            -14.5533   YZ=             -1.2282

 Summary of Natural Population Analysis:

                                       Natural Population
                Natural  -----------------------------------------------
    Atom  No    Charge         Core      Valence    Rydberg      Total
 -----------------------------------------------------------------------
      C    1   -0.28357      0.99962     2.27700    0.00695     3.28357
      C    2   -0.04524      0.99957     2.03246    0.01321     3.04524
      C    3   -0.18960      0.99959     2.18056    0.00945     3.18960
      C    4   -0.19174      0.99965     2.18371    0.00838     3.19174
      C    5   -0.18669      0.99960     2.17897    0.00812     3.18669
      C    6   -0.09473      0.99953     2.08329    0.01191     3.09473
      N    7   -0.30965      0.99966     2.80083    0.00915     3.80965
      C    8    0.36219      0.99960     1.61553    0.02268     2.63781
      O    9   -0.34069      0.99988     3.33528    0.00553     4.34069
      C   10   -0.11005      0.99943     2.09711    0.01350     3.11005
      C   11   -0.17104      0.99960     2.16339    0.00805     3.17104
      C   12   -0.19230      0.99962     2.18579    0.00690     3.19230
      C   13    0.15518      0.99959     1.82364    0.02160     2.84482
      S   14   -0.13526      4.99954     3.12221    0.01351     8.13526
      N   15   -0.36956      0.99966     2.85865    0.01125     3.86956
      H   16    0.10466      0.00000     0.39383    0.00151     0.39534
      H   17    0.10132      0.00000     0.39711    0.00157     0.39868
      H   18    0.09785      0.00000     0.40117    0.00098     0.40215
      H   19    0.09582      0.00000     0.40284    0.00133     0.40418
      H   20    0.10243      0.00000     0.39580    0.00178     0.39757
      H   21    0.09371      0.00000     0.40546    0.00083     0.40629
      H   22    0.09675      0.00000     0.40175    0.00150     0.40325
      H   23    0.09499      0.00000     0.40369    0.00132     0.40501
      H   24    0.09617      0.00000     0.40291    0.00091     0.40383
      H   25    0.12311      0.00000     0.37535    0.00154     0.37689
      H   26    0.09557      0.00000     0.40347    0.00096     0.40443
      H   27    0.18831      0.00000     0.30905    0.00264     0.31169
      H   28    0.10751      0.00000     0.39179    0.00071     0.39249
      H   29    0.11360      0.00000     0.38479    0.00161     0.38640
      H   30    0.10636      0.00000     0.39228    0.00136     0.39364
      H   31    0.10051      0.00000     0.39844    0.00105     0.39949
      H   32    0.18900      0.00000     0.30870    0.00230     0.31100
      H   33    0.19505      0.00000     0.30342    0.00154     0.30495
 =======================================================================
   * Total *    0.00000     18.99413    41.81026    0.19561    61.00000

 Normal termination of Gaussian 16 at Thu Dec 10 17:48:06 2020.
