 Gaussian 16, Revision A.03,

 -----------------------------------------------------------
 # opt freq B3LYP/6-31G(d) empiricaldispersion=gd3bj scf=xqc
 -----------------------------------------------------------

 ------------------------------
 CID_64502987_JID_1787_neutraal
 ------------------------------
 Symbolic Z-matrix:
 Charge =  0 Multiplicity = 1

 SCF Done:  E(RB3LYP) =  -448.486093246     A.U. after   13 cycles
 SCF Done:  E(RB3LYP) =  -448.488095264     A.U. after   10 cycles
 SCF Done:  E(RB3LYP) =  -448.488193613     A.U. after   11 cycles
 SCF Done:  E(RB3LYP) =  -448.488392644     A.U. after   11 cycles
 SCF Done:  E(RB3LYP) =  -448.488555679     A.U. after   10 cycles
 SCF Done:  E(RB3LYP) =  -448.488598356     A.U. after   10 cycles
 SCF Done:  E(RB3LYP) =  -448.488632945     A.U. after   10 cycles
 SCF Done:  E(RB3LYP) =  -448.488645038     A.U. after    9 cycles
 SCF Done:  E(RB3LYP) =  -448.488646283     A.U. after    8 cycles
 SCF Done:  E(RB3LYP) =  -448.488646496     A.U. after    7 cycles
 Optimization completed.
    -- Stationary point found.
 Normal termination of Gaussian 16 at Tue Dec  8 21:06:37 2020.

 --------------------------------------------------------------------
 #N Geom=AllCheck Guess=TCheck SCRF=Check GenChk RB3LYP/6-31G(d) Freq
 --------------------------------------------------------------------

 Structure from the checkpoint file:  "JID_1787.chk"
 ------------------------------
 CID_64502987_JID_1787_neutraal
 ------------------------------
 Charge =  0 Multiplicity = 1

 SCF Done:  E(RB3LYP) =  -448.488646496     A.U. after    1 cycles

  Exact polarizability: 146.185   0.646  97.728  -1.385   4.455  94.783
 Approx polarizability: 176.370   1.853 139.462  -5.748   5.982 144.717

                      1                      2                      3
                      A                      A                      A
 Frequencies --     37.5475                54.2733                69.3856
 Red. masses --      3.2628                 3.3308                 2.8914
 Frc consts  --      0.0027                 0.0058                 0.0082
 IR Inten    --      0.1280                 0.1356                 0.0089

                      4                      5                      6
                      A                      A                      A
 Frequencies --     96.1544               118.6712               159.9962
 Red. masses --      2.5183                 2.8686                 2.9552
 Frc consts  --      0.0137                 0.0238                 0.0446
 IR Inten    --      0.1464                 0.0883                 0.0914

                      7                      8                      9
                      A                      A                      A
 Frequencies --    210.4501               219.8693               238.8118
 Red. masses --      1.1241                 2.0699                 1.2231
 Frc consts  --      0.0293                 0.0590                 0.0411
 IR Inten    --      0.5457                 3.3348                 0.2796

                     10                     11                     12
                      A                      A                      A
 Frequencies --    263.4018               278.4072               309.9772
 Red. masses --      1.1782                 2.3353                 2.1384
 Frc consts  --      0.0482                 0.1066                 0.1211
 IR Inten    --     28.7436                 1.4783                 6.0408

                     13                     14                     15
                      A                      A                      A
 Frequencies --    341.2667               377.2277               406.5819
 Red. masses --      1.8955                 2.1630                 2.1361
 Frc consts  --      0.1301                 0.1814                 0.2080
 IR Inten    --      3.6733                 0.2285                 6.1719

                     16                     17                     18
                      A                      A                      A
 Frequencies --    407.8895               435.7349               463.3166
 Red. masses --      2.2526                 1.9358                 2.2849
 Frc consts  --      0.2208                 0.2165                 0.2890
 IR Inten    --      4.8059                 0.5326                 3.0405

                     19                     20                     21
                      A                      A                      A
 Frequencies --    485.1423               604.6098               673.7539
 Red. masses --      2.1853                 2.0520                 1.7332
 Frc consts  --      0.3030                 0.4420                 0.4635
 IR Inten    --      1.5558                 7.8014                 5.0315

                     22                     23                     24
                      A                      A                      A
 Frequencies --    744.8591               764.2481               820.3191
 Red. masses --      1.8013                 1.9695                 2.0901
 Frc consts  --      0.5888                 0.6777                 0.8287
 IR Inten    --      6.5285                 9.2351                 7.2343

                     25                     26                     27
                      A                      A                      A
 Frequencies --    862.7375               882.0322               920.0172
 Red. masses --      1.7804                 1.9042                 1.7307
 Frc consts  --      0.7808                 0.8728                 0.8631
 IR Inten    --     91.1855                 4.9800                83.1642

                     28                     29                     30
                      A                      A                      A
 Frequencies --    930.4016               940.2271               944.1161
 Red. masses --      1.8002                 1.3552                 1.3624
 Frc consts  --      0.9181                 0.7058                 0.7155
 IR Inten    --      2.2732                32.8224                 1.5668

                     31                     32                     33
                      A                      A                      A
 Frequencies --    953.1530               978.8235              1019.6132
 Red. masses --      1.5132                 1.4426                 1.5639
 Frc consts  --      0.8100                 0.8143                 0.9579
 IR Inten    --      6.7564                 0.5721                 2.1378

                     34                     35                     36
                      A                      A                      A
 Frequencies --   1036.1462              1044.5323              1053.2368
 Red. masses --      1.4664                 1.4638                 1.5934
 Frc consts  --      0.9275                 0.9410                 1.0414
 IR Inten    --     16.3639                17.3466                11.6289

                     37                     38                     39
                      A                      A                      A
 Frequencies --   1085.0919              1098.4689              1116.3336
 Red. masses --      1.3192                 1.6863                 2.0834
 Frc consts  --      0.9151                 1.1988                 1.5297
 IR Inten    --      2.8431                 8.3753                 3.5213

                     40                     41                     42
                      A                      A                      A
 Frequencies --   1142.3585              1177.0318              1196.8754
 Red. masses --      2.4023                 1.8606                 1.3450
 Frc consts  --      1.8471                 1.5187                 1.1352
 IR Inten    --      7.5770                 1.9536                 3.3267

                     43                     44                     45
                      A                      A                      A
 Frequencies --   1207.5601              1243.9023              1262.5528
 Red. masses --      1.6917                 1.4498                 1.6344
 Frc consts  --      1.4535                 1.3217                 1.5350
 IR Inten    --      2.5808                 5.1075                 2.3630

                     46                     47                     48
                      A                      A                      A
 Frequencies --   1295.1992              1323.5836              1336.9127
 Red. masses --      1.2182                 1.3669                 1.2492
 Frc consts  --      1.2041                 1.4108                 1.3154
 IR Inten    --      1.1439                 5.9294                 0.3953

                     49                     50                     51
                      A                      A                      A
 Frequencies --   1348.3735              1368.5693              1371.5853
 Red. masses --      1.1707                 1.3855                 1.3900
 Frc consts  --      1.2540                 1.5290                 1.5407
 IR Inten    --      0.2984                 0.7834                 1.2056

                     52                     53                     54
                      A                      A                      A
 Frequencies --   1383.0952              1397.6442              1417.5024
 Red. masses --      1.4303                 1.3179                 1.3908
 Frc consts  --      1.6120                 1.5168                 1.6464
 IR Inten    --      6.1327                10.4018                 1.2870

                     55                     56                     57
                      A                      A                      A
 Frequencies --   1426.5967              1426.8709              1437.4196
 Red. masses --      1.2631                 1.3345                 1.3645
 Frc consts  --      1.5146                 1.6008                 1.6611
 IR Inten    --      5.3637                 2.2709                 0.8526

                     58                     59                     60
                      A                      A                      A
 Frequencies --   1453.3750              1477.1739              1510.2409
 Red. masses --      1.2734                 1.1832                 1.0884
 Frc consts  --      1.5847                 1.5212                 1.4626
 IR Inten    --     10.2505                 0.9937                 2.7314

                     61                     62                     63
                      A                      A                      A
 Frequencies --   1517.9258              1520.9578              1523.1378
 Red. masses --      1.0528                 1.0629                 1.0791
 Frc consts  --      1.4293                 1.4487                 1.4750
 IR Inten    --      2.8934                 2.6783                 9.2994

                     64                     65                     66
                      A                      A                      A
 Frequencies --   1527.7555              1531.9255              1537.3747
 Red. masses --      1.0701                 1.0968                 1.0581
 Frc consts  --      1.4716                 1.5166                 1.4734
 IR Inten    --     14.6210                 2.0729                 1.4852

                     67                     68                     69
                      A                      A                      A
 Frequencies --   1547.0507              1692.0247              1734.9318
 Red. masses --      1.0568                 1.0901                 4.4748
 Frc consts  --      1.4903                 1.8388                 7.9357
 IR Inten    --      4.7787                29.7476                 5.7687

                     70                     71                     72
                      A                      A                      A
 Frequencies --   2995.6206              3011.0410              3028.9938
 Red. masses --      1.0801                 1.0829                 1.0667
 Frc consts  --      5.7107                 5.7845                 5.7664
 IR Inten    --      1.3770                51.3290                35.9638

                     73                     74                     75
                      A                      A                      A
 Frequencies --   3034.5026              3037.3356              3040.9349
 Red. masses --      1.0627                 1.0624                 1.0397
 Frc consts  --      5.7656                 5.7744                 5.6645
 IR Inten    --     28.4083                21.0552                20.2056

                     76                     77                     78
                      A                      A                      A
 Frequencies --   3043.2154              3046.9930              3062.3831
 Red. masses --      1.0662                 1.0416                 1.0962
 Frc consts  --      5.8177                 5.6976                 6.0568
 IR Inten    --      2.4022                43.1682                49.9630

                     79                     80                     81
                      A                      A                      A
 Frequencies --   3069.5803              3080.4653              3082.5256
 Red. masses --      1.0950                 1.0984                 1.1031
 Frc consts  --      6.0789                 6.1411                 6.1757
 IR Inten    --     56.0877                40.4256                92.9391

                     82                     83                     84
                      A                      A                      A
 Frequencies --   3098.6302              3107.5263              3126.1340
 Red. masses --      1.1010                 1.0997                 1.1001
 Frc consts  --      6.2286                 6.2569                 6.3344
 IR Inten    --     11.4614                67.4133                39.0097

                     85                     86                     87
                      A                      A                      A
 Frequencies --   3147.3409              3156.7440              3156.8685
 Red. masses --      1.0731                 1.0961                 1.0775
 Frc consts  --      6.2631                 6.4354                 6.3270
 IR Inten    --     26.0992                15.6657                 5.0227

                     88                     89                     90
                      A                      A                      A
 Frequencies --   3234.3066              3475.6330              3564.1129
 Red. masses --      1.1155                 1.0494                 1.0915
 Frc consts  --      6.8750                 7.4687                 8.1691
 IR Inten    --     21.0522                 4.0382                 1.1465

 - Thermochemistry -
 -------------------
 Temperature   298.150 Kelvin.  Pressure   1.00000 Atm.
 Atom     1 has atomic number  6 and mass  12.00000

 Molecular mass:   155.16740 amu.
 Principal axes and moments of inertia in atomic units:
                           1         2         3
     Eigenvalues --   766.954843900.817684181.35594
           X            0.99999  -0.00395   0.00026
           Y            0.00394   0.99956   0.02953
           Z           -0.00037  -0.02953   0.99956
 This molecule is an asymmetric top.
 Rotational symmetry number  1.
 Warning -- assumption of classical behavior for rotation
           may cause significant error
 Rotational temperatures (Kelvin)      0.11293     0.02220     0.02071
 Rotational constants (GHZ):           2.35313     0.46266     0.43162
 Zero-point vibrational energy     785858.1 (Joules/Mol)
                                  187.82460 (Kcal/Mol)
 Warning -- explicit consideration of  20 degrees of freedom as
           vibrations may cause significant error
 Vibrational temperatures:     54.02    78.09    99.83   138.34   170.74
          (Kelvin)            230.20   302.79   316.34   343.60   378.98
                              400.57   445.99   491.01   542.75   584.98
                              586.86   626.93   666.61   698.01   869.90
                              969.38  1071.69  1099.58  1180.26  1241.29
                             1269.05  1323.70  1338.64  1352.78  1358.37
                             1371.37  1408.31  1467.00  1490.78  1502.85
                             1515.37  1561.21  1580.45  1606.16  1643.60
                             1693.49  1722.04  1737.41  1789.70  1816.53
                             1863.50  1904.34  1923.52  1940.01  1969.07
                             1973.41  1989.97  2010.90  2039.47  2052.55
                             2052.95  2068.13  2091.08  2125.32  2172.90
                             2183.96  2188.32  2191.46  2198.10  2204.10
                             2211.94  2225.86  2434.45  2496.18  4310.03
                             4332.22  4358.05  4365.97  4370.05  4375.23
                             4378.51  4383.94  4406.09  4416.44  4432.10
                             4435.07  4458.24  4471.04  4497.81  4528.32
                             4541.85  4542.03  4653.45  5000.66  5127.96

 Zero-point correction=                           0.299318 (Hartree/Particle)
 Thermal correction to Energy=                    0.313058
 Thermal correction to Enthalpy=                  0.314002
 Thermal correction to Gibbs Free Energy=         0.259019
 Sum of electronic and zero-point Energies=           -448.189329
 Sum of electronic and thermal Energies=              -448.175589
 Sum of electronic and thermal Enthalpies=            -448.174645
 Sum of electronic and thermal Free Energies=         -448.229628

                     E (Thermal)             CV                S
                      KCal/Mol        Cal/Mol-Kelvin    Cal/Mol-Kelvin
 Total                  196.447             51.507            115.722
 Electronic               0.000              0.000              0.000
 Translational            0.889              2.981             41.028
 Rotational               0.889              2.981             30.904
 Vibrational            194.669             45.545             43.791
 Vibration     1          0.594              1.982              5.384
 Vibration     2          0.596              1.976              4.655
 Vibration     3          0.598              1.969              4.171
 Vibration     4          0.603              1.952              3.531
 Vibration     5          0.609              1.934              3.122
 Vibration     6          0.622              1.891              2.550
 Vibration     7          0.643              1.825              2.040
 Vibration     8          0.647              1.811              1.960
 Vibration     9          0.657              1.781              1.812
 Vibration    10          0.670              1.740              1.639
 Vibration    11          0.679              1.713              1.543
 Vibration    12          0.699              1.655              1.362
 Vibration    13          0.721              1.593              1.206
 Vibration    14          0.748              1.519              1.050
 Vibration    15          0.771              1.456              0.939
 Vibration    16          0.772              1.453              0.934
 Vibration    17          0.796              1.392              0.840
 Vibration    18          0.821              1.331              0.757
 Vibration    19          0.841              1.283              0.696
 Vibration    20          0.963              1.022              0.442

                           ! Non-Optimized Parameters !
 Normal termination of Gaussian 16 at Tue Dec  8 21:15:40 2020.

 ----------------------------------------------------------------------
 # B3LYP/6-311++G(d,p) empiricaldispersion=gd3bj scf=xqc pop=npa geom=c
 heck
 ----------------------------------------------------------------------

 --------------------------------------
 CID_64502987_JID_1787_Energie_neutraal
 --------------------------------------
 Structure from the checkpoint file:  "JID_1787.chk"
 Charge =  0 Multiplicity = 1

 SCF Done:  E(RB3LYP) =  -448.623693203     A.U. after   13 cycles
 Normal termination of Gaussian 16 at Tue Dec  8 21:20:20 2020.

 ----------------------------------------------------------------------
 # B3LYP/6-311++G(d,p) empiricaldispersion=gd3bj scf=xqc pop=npa geom=c
 heck
 ----------------------------------------------------------------------

 ------------------------------------
 CID_64502987_JID_1787_Energie_kation
 ------------------------------------
 Structure from the checkpoint file:  "JID_1787.chk"
 Charge =  1 Multiplicity = 2

 SCF Done:  E(UB3LYP) =  -448.310866558     A.U. after   20 cycles
 Normal termination of Gaussian 16 at Tue Dec  8 21:30:03 2020.
 Gaussian 16:  ES64L-G16RevA.03 25-Dec-2016

 ----------------------------------------------------------------------
 # B3LYP/6-311++G(d,p) empiricaldispersion=gd3bj scf=xqc pop=npa geom=c
 heck
 ----------------------------------------------------------------------

 -----------------------------------
 CID_64502987_JID_1787_Energie_anion
 -----------------------------------
 Structure from the checkpoint file:  "JID_1787.chk"
 Charge = -1 Multiplicity = 2

                         Standard orientation:
 ---------------------------------------------------------------------
 Center     Atomic      Atomic             Coordinates (Angstroms)
 Number     Number       Type             X           Y           Z
 ---------------------------------------------------------------------
      1          6           0        2.919241   -1.538015    0.012884
      2          6           0        2.415286   -0.120404    0.317571
      3          6           0        3.602608    0.846992    0.414708
      4          6           0        1.385259    0.362647   -0.727335
      5          6           0        0.204401   -0.617444   -0.942292
      6          6           0       -0.557566   -1.125524    0.295818
      7          6           0       -1.342100   -0.096139    1.126553
      8          6           0       -2.365955    0.748038    0.340075
      9          6           0       -3.380847   -0.078143   -0.399840
     10          6           0       -4.678339   -0.137674   -0.099524
     11          7           0        0.994558    1.749955   -0.421442
     12          1           0        3.371070   -1.579215   -0.986680
     13          1           0        2.124427   -2.288880    0.051406
     14          1           0        3.689104   -1.833505    0.734396
     15          1           0        1.913747   -0.139745    1.298188
     16          1           0        4.151285    0.874398   -0.535779
     17          1           0        3.269184    1.863318    0.632251
     18          1           0        4.302271    0.523882    1.194507
     19          1           0        1.916522    0.415328   -1.689953
     20          1           0       -0.499960   -0.140868   -1.638682
     21          1           0        0.584198   -1.498139   -1.476225
     22          1           0       -1.260985   -1.896787   -0.043862
     23          1           0        0.140307   -1.641807    0.965889
     24          1           0       -1.879646   -0.637092    1.916018
     25          1           0       -0.650723    0.580145    1.645718
     26          1           0       -2.882042    1.419307    1.037493
     27          1           0       -1.828516    1.389275   -0.371805
     28          1           0       -3.005241   -0.674925   -1.231476
     29          1           0       -5.370405   -0.760599   -0.659720
     30          1           0       -5.099382    0.440705    0.720770
     31          1           0        0.329324    2.081721   -1.117664
     32          1           0        0.511620    1.787797    0.473597
 ---------------------------------------------------------------------

 SCF Done:  E(UB3LYP) =  -448.606629982     A.U. after   33 cycles
 SCF Done:  E(UB3LYP) =  -448.606629982     a.u. after    1 cycles

 The electronic state is 2-A.
 Alpha  occ. eigenvalues --  -14.18590 -10.09282 -10.07508 -10.07140 -10.06933
 Alpha  occ. eigenvalues --  -10.06742 -10.06349 -10.06219 -10.05930 -10.05663
 Alpha  occ. eigenvalues --  -10.05107  -0.78647  -0.71190  -0.69079  -0.66684
 Alpha  occ. eigenvalues --   -0.62132  -0.57967  -0.56778  -0.52600  -0.48546
 Alpha  occ. eigenvalues --   -0.45711  -0.43635  -0.38719  -0.38043  -0.36391
 Alpha  occ. eigenvalues --   -0.36271  -0.34344  -0.33506  -0.31946  -0.30839
 Alpha  occ. eigenvalues --   -0.29621  -0.28945  -0.28441  -0.27761  -0.26307
 Alpha  occ. eigenvalues --   -0.25570  -0.24257  -0.23354  -0.23311  -0.22247
 Alpha  occ. eigenvalues --   -0.21809  -0.20456  -0.16258  -0.13600   0.04683
 Alpha virt. eigenvalues --    0.06718   0.07100   0.07548   0.08400   0.08815
 Alpha virt. eigenvalues --    0.09347   0.09740   0.10265   0.10496   0.10562
 Alpha virt. eigenvalues --    0.11286   0.12307   0.12504   0.12836   0.13341

  Beta  occ. eigenvalues --  -14.18564 -10.09272 -10.07496 -10.07129 -10.06912
  Beta  occ. eigenvalues --  -10.06724 -10.06317 -10.06202 -10.05911 -10.05634
  Beta  occ. eigenvalues --  -10.05090  -0.78605  -0.71153  -0.69042  -0.66646
  Beta  occ. eigenvalues --   -0.62086  -0.57916  -0.56723  -0.52541  -0.48482
  Beta  occ. eigenvalues --   -0.45649  -0.43572  -0.38673  -0.37999  -0.36353
  Beta  occ. eigenvalues --   -0.36229  -0.34303  -0.33457  -0.31914  -0.30791
  Beta  occ. eigenvalues --   -0.29581  -0.28911  -0.28412  -0.27728  -0.26266
  Beta  occ. eigenvalues --   -0.25538  -0.24223  -0.23319  -0.23266  -0.22203
  Beta  occ. eigenvalues --   -0.21778  -0.20423  -0.16198  -0.13571
  Beta virt. eigenvalues --    0.06788   0.07421   0.07825   0.08147   0.08823
  Beta virt. eigenvalues --    0.09287   0.09476   0.10093   0.10760   0.10966
  Beta virt. eigenvalues --    0.11032   0.11598   0.12662   0.12845   0.13128

 Mulliken charges and spin densities:
               1          2
     1  C    0.792873  -1.489399
     2  C   -1.371286   1.613382
     3  C    0.275515  -0.746504
     4  C    1.180848  -1.462275
     5  C   -0.091009  -0.471278
     6  C   -0.509243   0.289867
     7  C    1.165373  -1.400217
     8  C    1.061996  -1.453250
     9  C   -2.026343   2.379248
    10  C    1.720878  -2.416457
    11  N   -0.327851   0.066261
    12  H   -0.090246   0.233039
    13  H   -0.133426   0.267194
    14  H   -0.156821   0.291613
    15  H    0.098406   0.048884
    16  H   -0.011585   0.123193
    17  H   -0.030728   0.188938
    18  H   -0.105510   0.231075
    19  H   -0.125126   0.327021
    20  H   -0.147053   0.326216
    21  H   -0.229473   0.389747
    22  H   -0.107575   0.291872
    23  H   -0.308608   0.463130
    24  H   -0.027145   0.175062
    25  H   -0.132961   0.268749
    26  H   -0.463880   0.633937
    27  H    0.044843   0.040958
    28  H   -0.690963   0.857558
    29  H   -0.143342   0.259391
    30  H   -0.242951   0.352144
    31  H   -0.003584   0.242252
    32  H    0.135977   0.078649
 Sum of Mulliken charges =  -1.00000   1.00000

 Dipole moment (field-independent basis, Debye):
    X=              1.7847    Y=              0.5371    Z=              0.6979  Tot=              1.9902
 Quadrupole moment (field-independent basis, Debye-Ang):
   XX=           -151.0152   YY=           -115.2343   ZZ=           -108.5919
   XY=              1.1135   XZ=             -1.7515   YZ=             -1.7986

 Summary of Natural Population Analysis:

                                       Natural Population
                Natural  -----------------------------------------------
    Atom  No    Charge         Core      Valence    Rydberg      Total
 -----------------------------------------------------------------------
      C    1   -0.28512      0.99965     2.27938    0.00609     3.28512
      C    2   -0.11722      0.99959     2.10708    0.01054     3.11722
      C    3   -0.28215      0.99965     2.27733    0.00517     3.28215
      C    4   -0.00847      0.99957     1.99605    0.01285     3.00847
      C    5   -0.19877      0.99960     2.18884    0.01033     3.19877
      C    6   -0.19590      0.99962     2.18719    0.00909     3.19590
      C    7   -0.18355      0.99962     2.17556    0.00837     3.18355
      C    8   -0.21114      0.99960     2.20119    0.01035     3.21114
      C    9   -0.08018      0.99956     2.07062    0.01000     3.08018
      C   10   -0.19125      0.99956     2.18492    0.00677     3.19125
      N   11   -0.42386      0.99977     2.91393    0.01015     3.92386
      H   12    0.09640      0.00000     0.40252    0.00107     0.40360
      H   13    0.10122      0.00000     0.39764    0.00114     0.39878
      H   14    0.09831      0.00000     0.40080    0.00089     0.40169
      H   15    0.09181      0.00000     0.40630    0.00189     0.40819
      H   16    0.09400      0.00000     0.40499    0.00102     0.40600
      H   17    0.10911      0.00000     0.38965    0.00124     0.39089
      H   18    0.09387      0.00000     0.40520    0.00093     0.40613
      H   19    0.08804      0.00000     0.41031    0.00165     0.41196
      H   20    0.09569      0.00000     0.40260    0.00171     0.40431
      H   21    0.10242      0.00000     0.39611    0.00147     0.39758
      H   22    0.09923      0.00000     0.39925    0.00153     0.40077
      H   23    0.09845      0.00000     0.40012    0.00143     0.40155
      H   24    0.09786      0.00000     0.40085    0.00128     0.40214
      H   25    0.09089      0.00000     0.40738    0.00173     0.40911
      H   26    0.10006      0.00000     0.39844    0.00150     0.39994
      H   27    0.10009      0.00000     0.39782    0.00208     0.39991
      H   28    0.09292      0.00000     0.40550    0.00158     0.40708
      H   29    0.09261      0.00000     0.40611    0.00128     0.40739
      H   30    0.08871      0.00000     0.40980    0.00149     0.41129
      H   31    0.17435      0.00000     0.32354    0.00211     0.32565
      H   32    0.17155      0.00000     0.32599    0.00246     0.32845
 =======================================================================
   * Total *    0.00000     10.99579    32.87300    0.13121    44.00000

 Normal termination of Gaussian 16 at Tue Dec  8 21:42:50 2020.
