 Gaussian 16, Revision A.03,

 -----------------------------------------------------------
 # opt freq B3LYP/6-31G(d) empiricaldispersion=gd3bj scf=xqc
 -----------------------------------------------------------

 ------------------------------
 CID_80014667_JID_3212_neutraal
 ------------------------------
 Symbolic Z-matrix:
 Charge =  0 Multiplicity = 1

 SCF Done:  E(RB3LYP) =  -941.757414379     A.U. after   13 cycles
 SCF Done:  E(RB3LYP) =  -941.762091848     A.U. after   11 cycles
 SCF Done:  E(RB3LYP) =  -941.762411408     A.U. after   11 cycles
 SCF Done:  E(RB3LYP) =  -941.763083339     A.U. after   11 cycles
 SCF Done:  E(RB3LYP) =  -941.763246070     A.U. after   11 cycles
 SCF Done:  E(RB3LYP) =  -941.763321522     A.U. after   11 cycles
 SCF Done:  E(RB3LYP) =  -941.763593789     A.U. after    9 cycles
 SCF Done:  E(RB3LYP) =  -941.763998946     A.U. after   10 cycles
 SCF Done:  E(RB3LYP) =  -941.763512993     A.U. after   11 cycles
 SCF Done:  E(RB3LYP) =  -941.600518167     A.U. after   14 cycles
 SCF Done:  E(RB3LYP) =  -941.770033785     A.U. after    8 cycles
 SCF Done:  E(RB3LYP) =  -941.770036076     A.U. after    9 cycles
 SCF Done:  E(RB3LYP) =  -941.770038201     A.U. after    8 cycles
 SCF Done:  E(RB3LYP) =  -941.770039685     A.U. after    9 cycles
 SCF Done:  E(RB3LYP) =  -941.770039801     A.U. after    7 cycles
 SCF Done:  E(RB3LYP) =  -941.770039826     A.U. after    6 cycles
 Optimization completed.
    -- Stationary point found.
 Normal termination of Gaussian 16 at Wed Dec  9 23:29:45 2020.

 --------------------------------------------------------------------
 #N Geom=AllCheck Guess=TCheck SCRF=Check GenChk RB3LYP/6-31G(d) Freq
 --------------------------------------------------------------------

 Structure from the checkpoint file:  "JID_3212.chk"
 ------------------------------
 CID_80014667_JID_3212_neutraal
 ------------------------------
 Charge =  0 Multiplicity = 1

 SCF Done:  E(RB3LYP) =  -941.770039826     A.U. after    1 cycles

  Exact polarizability: 130.684  -1.632 131.273  -0.283  -2.103 115.006
 Approx polarizability: 171.783   2.359 171.412   2.065  -4.640 172.575

                      1                      2                      3
                      A                      A                      A
 Frequencies --     16.9830                24.6733                43.6598
 Red. masses --      3.8644                 3.6735                 2.8200
 Frc consts  --      0.0007                 0.0013                 0.0032
 IR Inten    --      0.1543                 0.6514                 0.5065

                      4                      5                      6
                      A                      A                      A
 Frequencies --     56.0468                68.4269                93.1092
 Red. masses --      3.7436                 3.4947                 3.8563
 Frc consts  --      0.0069                 0.0096                 0.0197
 IR Inten    --      0.9947                 0.5793                 0.2130

                      7                      8                      9
                      A                      A                      A
 Frequencies --    125.3615               179.4134               197.6225
 Red. masses --      2.9767                 3.6276                 1.8178
 Frc consts  --      0.0276                 0.0688                 0.0418
 IR Inten    --      2.4399                 5.0892                 6.1246

                     10                     11                     12
                      A                      A                      A
 Frequencies --    209.6803               248.7965               260.4522
 Red. masses --      1.6611                 2.2485                 1.8766
 Frc consts  --      0.0430                 0.0820                 0.0750
 IR Inten    --      9.5182                 7.5500                12.2281

                     13                     14                     15
                      A                      A                      A
 Frequencies --    297.0923               306.3196               361.1418
 Red. masses --      2.2587                 2.5016                 3.4261
 Frc consts  --      0.1175                 0.1383                 0.2633
 IR Inten    --      1.3179                 0.6099                 1.2822

                     16                     17                     18
                      A                      A                      A
 Frequencies --    392.6673               454.0522               481.2679
 Red. masses --      2.8043                 2.1738                 2.6663
 Frc consts  --      0.2548                 0.2640                 0.3639
 IR Inten    --      1.2104                 3.5981                 3.2866

                     19                     20                     21
                      A                      A                      A
 Frequencies --    533.7623               561.8082               639.3054
 Red. masses --      2.1545                 1.8600                 2.8805
 Frc consts  --      0.3617                 0.3459                 0.6936
 IR Inten    --      7.9267                 0.9580                 2.7514

                     22                     23                     24
                      A                      A                      A
 Frequencies --    669.5417               760.2798               782.0851
 Red. masses --      4.3589                 1.2518                 1.6518
 Frc consts  --      1.1513                 0.4263                 0.5953
 IR Inten    --      5.5900                 2.8108                 4.3289

                     25                     26                     27
                      A                      A                      A
 Frequencies --    848.8252               852.1520               879.7806
 Red. masses --      2.0421                 2.5455                 1.9266
 Frc consts  --      0.8669                 1.0891                 0.8786
 IR Inten    --      0.9045                 5.7196                 0.5424

                     28                     29                     30
                      A                      A                      A
 Frequencies --    887.3089               905.1123               922.5545
 Red. masses --      1.8918                 1.8502                 2.5854
 Frc consts  --      0.8776                 0.8930                 1.2965
 IR Inten    --      7.0576                 4.7544                 1.5585

                     31                     32                     33
                      A                      A                      A
 Frequencies --    959.9548               972.0717               998.1345
 Red. masses --      2.0926                 1.8959                 1.6853
 Frc consts  --      1.1362                 1.0555                 0.9893
 IR Inten    --     11.2073                19.3424                 1.3225

                     34                     35                     36
                      A                      A                      A
 Frequencies --   1006.1533              1012.5231              1034.4682
 Red. masses --      1.8659                 1.6538                 1.8827
 Frc consts  --      1.1129                 0.9989                 1.1870
 IR Inten    --     14.3431                 5.7210                 2.5937

                     37                     38                     39
                      A                      A                      A
 Frequencies --   1047.1042              1077.1845              1078.8626
 Red. masses --      1.3947                 1.9428                 1.9987
 Frc consts  --      0.9010                 1.3282                 1.3707
 IR Inten    --      0.1168                 2.5082                 4.7609

                     40                     41                     42
                      A                      A                      A
 Frequencies --   1091.5691              1128.1281              1139.2418
 Red. masses --      2.2220                 2.6301                 2.3447
 Frc consts  --      1.5599                 1.9722                 1.7929
 IR Inten    --     57.2368                17.3967                22.6075

                     43                     44                     45
                      A                      A                      A
 Frequencies --   1166.8911              1171.2104              1201.1371
 Red. masses --      5.1540                 4.1349                 1.4901
 Frc consts  --      4.1348                 3.3418                 1.2667
 IR Inten    --    110.9389               152.1187                 1.0936

                     46                     47                     48
                      A                      A                      A
 Frequencies --   1225.4952              1244.4140              1258.5061
 Red. masses --      1.7565                 1.1823                 1.4288
 Frc consts  --      1.5543                 1.0787                 1.3333
 IR Inten    --     15.9164                 2.4118                 0.7187

                     49                     50                     51
                      A                      A                      A
 Frequencies --   1273.3393              1276.9329              1285.6234
 Red. masses --      1.1561                 1.2613                 1.2067
 Frc consts  --      1.1044                 1.2117                 1.1751
 IR Inten    --      0.7775                 1.4458                 6.7635

                     52                     53                     54
                      A                      A                      A
 Frequencies --   1313.4231              1320.1679              1342.6073
 Red. masses --      1.2939                 1.2666                 1.2014
 Frc consts  --      1.3151                 1.3006                 1.2760
 IR Inten    --      5.0013                 0.3961                10.3334

                     55                     56                     57
                      A                      A                      A
 Frequencies --   1344.4771              1351.2290              1356.6979
 Red. masses --      1.2316                 1.2660                 1.2027
 Frc consts  --      1.3116                 1.3619                 1.3042
 IR Inten    --     25.8081                 0.2625                12.1570

                     58                     59                     60
                      A                      A                      A
 Frequencies --   1368.0071              1370.6569              1399.2470
 Red. masses --      1.2869                 1.3643                 1.2488
 Frc consts  --      1.4190                 1.5102                 1.4406
 IR Inten    --      0.6130                 0.7804                37.0683

                     61                     62                     63
                      A                      A                      A
 Frequencies --   1406.8025              1420.8736              1446.7208
 Red. masses --      1.3784                 1.2707                 1.2983
 Frc consts  --      1.6073                 1.5115                 1.6010
 IR Inten    --      1.4890                30.5465                 5.2795

                     64                     65                     66
                      A                      A                      A
 Frequencies --   1460.1735              1492.8204              1512.5619
 Red. masses --      1.4768                 1.1004                 1.0865
 Frc consts  --      1.8551                 1.4449                 1.4646
 IR Inten    --      4.7612                 8.9224                 2.9906

                     67                     68                     69
                      A                      A                      A
 Frequencies --   1519.2200              1521.4772              1525.4144
 Red. masses --      1.0818                 1.0906                 1.0856
 Frc consts  --      1.4711                 1.4875                 1.4883
 IR Inten    --      0.9503                 4.6800                 8.4437

                     70                     71                     72
                      A                      A                      A
 Frequencies --   1527.0492              1529.4654              1546.9070
 Red. masses --      1.0892                 1.0888                 1.1058
 Frc consts  --      1.4964                 1.5006                 1.5590
 IR Inten    --      4.3230                 1.5265                 1.7865

                     73                     74                     75
                      A                      A                      A
 Frequencies --   1550.8669              2695.6181              2978.5072
 Red. masses --      1.0972                 1.0380                 1.0591
 Frc consts  --      1.5548                 4.4437                 5.5360
 IR Inten    --      0.6079                 3.5231                28.6034

                     76                     77                     78
                      A                      A                      A
 Frequencies --   2988.2414              3025.2605              3028.5340
 Red. masses --      1.0604                 1.0998                 1.1003
 Frc consts  --      5.5792                 5.9302                 5.9458
 IR Inten    --     84.9484                50.6079                11.4117

                     79                     80                     81
                      A                      A                      A
 Frequencies --   3038.9641              3044.0705              3045.4908
 Red. masses --      1.0697                 1.0672                 1.0709
 Frc consts  --      5.8207                 5.8267                 5.8522
 IR Inten    --     29.4458                 6.3465                29.0808

                     82                     83                     84
                      A                      A                      A
 Frequencies --   3051.4469              3054.9466              3056.9786
 Red. masses --      1.0677                 1.0623                 1.0636
 Frc consts  --      5.8573                 5.8415                 5.8563
 IR Inten    --     38.9822                10.4710                90.1955

                     85                     86                     87
                      A                      A                      A
 Frequencies --   3062.7875              3087.0398              3088.2729
 Red. masses --      1.0612                 1.0602                 1.0990
 Frc consts  --      5.8649                 5.9528                 6.1755
 IR Inten    --     20.0820                20.6317                19.5123

                     88                     89                     90
                      A                      A                      A
 Frequencies --   3096.0207              3098.3974              3101.0514
 Red. masses --      1.0997                 1.1036                 1.1056
 Frc consts  --      6.2104                 6.2424                 6.2642
 IR Inten    --     39.4932                 9.4387                50.3467

                     91                     92                     93
                      A                      A                      A
 Frequencies --   3104.3236              3112.1753              3140.0007
 Red. masses --      1.1032                 1.1045                 1.1068
 Frc consts  --      6.2638                 6.3031                 6.4295
 IR Inten    --     37.0056               100.4977                11.7588

 - Thermochemistry -
 -------------------
 Temperature   298.150 Kelvin.  Pressure   1.00000 Atm.
 Atom     1 has atomic number  6 and mass  12.00000

 Molecular mass:   204.11840 amu.
 Principal axes and moments of inertia in atomic units:
                           1         2         3
     Eigenvalues --  2482.836703832.663555453.59848
           X            0.99736  -0.07230   0.00626
           Y            0.07224   0.99735   0.00889
           Z           -0.00689  -0.00842   0.99994
 This molecule is an asymmetric top.
 Rotational symmetry number  1.
 Warning -- assumption of classical behavior for rotation
           may cause significant error
 Rotational temperatures (Kelvin)      0.03489     0.02260     0.01588
 Rotational constants (GHZ):           0.72689     0.47088     0.33093
 Zero-point vibrational energy     772986.3 (Joules/Mol)
                                  184.74817 (Kcal/Mol)
 Warning -- explicit consideration of  20 degrees of freedom as
           vibrations may cause significant error
 Vibrational temperatures:     24.43    35.50    62.82    80.64    98.45
          (Kelvin)            133.96   180.37   258.14   284.33   301.68
                              357.96   374.73   427.45   440.73   519.60
                              564.96   653.28   692.44   767.96   808.32
                              919.82   963.32  1093.87  1125.25  1221.27
                             1226.06  1265.81  1276.64  1302.25  1327.35
                             1381.16  1398.59  1436.09  1447.63  1456.79
                             1488.37  1506.55  1549.83  1552.24  1570.52
                             1623.12  1639.11  1678.90  1685.11  1728.17
                             1763.21  1790.43  1810.71  1832.05  1837.22
                             1849.73  1889.72  1899.43  1931.71  1934.40
                             1944.12  1951.99  1968.26  1972.07  2013.20
                             2024.08  2044.32  2081.51  2100.86  2147.84
                             2176.24  2185.82  2189.07  2194.73  2197.08
                             2200.56  2225.65  2231.35  3878.39  4285.41
                             4299.41  4352.68  4357.39  4372.39  4379.74
                             4381.78  4390.35  4395.39  4398.31  4406.67
                             4441.56  4443.34  4454.48  4457.90  4461.72
                             4466.43  4477.73  4517.76

 Zero-point correction=                           0.294415 (Hartree/Particle)
 Thermal correction to Energy=                    0.309440
 Thermal correction to Enthalpy=                  0.310384
 Thermal correction to Gibbs Free Energy=         0.249086
 Sum of electronic and zero-point Energies=           -941.475625
 Sum of electronic and thermal Energies=              -941.460600
 Sum of electronic and thermal Enthalpies=            -941.459656
 Sum of electronic and thermal Free Energies=         -941.520953

                     E (Thermal)             CV                S
                      KCal/Mol        Cal/Mol-Kelvin    Cal/Mol-Kelvin
 Total                  194.176             54.285            129.011
 Electronic               0.000              0.000              0.000
 Translational            0.889              2.981             41.845
 Rotational               0.889              2.981             32.318
 Vibrational            192.399             48.323             54.849
 Vibration     1          0.593              1.986              6.959
 Vibration     2          0.593              1.985              6.217
 Vibration     3          0.595              1.980              5.086
 Vibration     4          0.596              1.975              4.592
 Vibration     5          0.598              1.969              4.198
 Vibration     6          0.602              1.954              3.594
 Vibration     7          0.610              1.928              3.016
 Vibration     8          0.629              1.868              2.335
 Vibration     9          0.637              1.843              2.155
 Vibration    10          0.642              1.826              2.046
 Vibration    11          0.662              1.765              1.739
 Vibration    12          0.669              1.745              1.659
 Vibration    13          0.691              1.679              1.433
 Vibration    14          0.697              1.662              1.382
 Vibration    15          0.735              1.552              1.117
 Vibration    16          0.760              1.486              0.990
 Vibration    17          0.812              1.352              0.784
 Vibration    18          0.838              1.292              0.707
 Vibration    19          0.889              1.175              0.579
 Vibration    20          0.918              1.114              0.520

 Optimization completed.
    -- Stationary point found.
 Normal termination of Gaussian 16 at Wed Dec  9 23:39:56 2020.

 ----------------------------------------------------------------------
 # B3LYP/6-311++G(d,p) empiricaldispersion=gd3bj scf=xqc pop=npa geom=c
 heck
 ----------------------------------------------------------------------

 --------------------------------------
 CID_80014667_JID_3212_Energie_neutraal
 --------------------------------------
 Structure from the checkpoint file:  "JID_3212.chk"
 Charge =  0 Multiplicity = 1

 SCF Done:  E(RB3LYP) =  -941.956556216     A.U. after   13 cycles
 Normal termination of Gaussian 16 at Wed Dec  9 23:44:35 2020.

 ----------------------------------------------------------------------
 # B3LYP/6-311++G(d,p) empiricaldispersion=gd3bj scf=xqc pop=npa geom=c
 heck
 ----------------------------------------------------------------------

 ------------------------------------
 CID_80014667_JID_3212_Energie_kation
 ------------------------------------
 Structure from the checkpoint file:  "JID_3212.chk"
 Charge =  1 Multiplicity = 2

 SCF Done:  E(UB3LYP) =  -941.644971928     A.U. after   24 cycles
 Normal termination of Gaussian 16 at Wed Dec  9 23:56:51 2020.
 Gaussian 16:  ES64L-G16RevA.03 25-Dec-2016

 ----------------------------------------------------------------------
 # B3LYP/6-311++G(d,p) empiricaldispersion=gd3bj scf=xqc pop=npa geom=c
 heck
 ----------------------------------------------------------------------

 -----------------------------------
 CID_80014667_JID_3212_Energie_anion
 -----------------------------------
 Structure from the checkpoint file:  "JID_3212.chk"
 Charge = -1 Multiplicity = 2

                         Standard orientation:
 ---------------------------------------------------------------------
 Center     Atomic      Atomic             Coordinates (Angstroms)
 Number     Number       Type             X           Y           Z
 ---------------------------------------------------------------------
      1          6           0        2.152590   -1.986704    0.948091
      2          6           0        2.381291   -2.185700   -0.556459
      3          6           0        2.870692   -0.806024   -1.050957
      4          6           0        2.340580    0.246691   -0.022110
      5          6           0        1.536678   -0.582420    1.011419
      6          6           0        1.565498    1.353131   -0.742496
      7          8           0        1.245883    2.494513    0.053810
      8          6           0        0.142528    2.406663    0.935467
      9          6           0       -1.214994    2.247511    0.262768
     10          8           0       -1.409408    0.891060   -0.110236
     11          6           0       -2.655408    0.640916   -0.729923
     12          6           0       -2.747702   -0.849438   -1.009927
     13         16           0       -2.769379   -1.879183    0.513825
     14          1           0        3.113144   -2.001347    1.480810
     15          1           0        1.515654   -2.757811    1.395186
     16          1           0        3.084147   -2.993065   -0.786996
     17          1           0        1.426874   -2.439823   -1.035410
     18          1           0        2.513260   -0.594134   -2.065973
     19          1           0        3.964656   -0.773240   -1.092789
     20          1           0        3.190931    0.719662    0.484094
     21          1           0        0.485186   -0.629120    0.703921
     22          1           0        1.566153   -0.147889    2.016098
     23          1           0        2.195916    1.757891   -1.542035
     24          1           0        0.663307    0.933324   -1.203907
     25          1           0        0.263417    1.605495    1.675783
     26          1           0        0.141856    3.360211    1.474945
     27          1           0       -2.007527    2.554454    0.965935
     28          1           0       -1.270780    2.903822   -0.620031
     29          1           0       -3.482198    0.962763   -0.077962
     30          1           0       -2.729153    1.199860   -1.678502
     31          1           0       -3.683277   -1.073832   -1.530004
     32          1           0       -1.917782   -1.159243   -1.651545
     33          1           0       -1.646048   -1.353394    1.043363
 ---------------------------------------------------------------------

 SCF Done:  E(UB3LYP) =  -941.942164425     A.U. after   29 cycles

 The electronic state is 2-A.
 Alpha  occ. eigenvalues --  -88.74377 -19.03703 -19.02547 -10.12721 -10.12466
 Alpha  occ. eigenvalues --  -10.12188 -10.11095 -10.10639 -10.07368 -10.06962
 Alpha  occ. eigenvalues --  -10.06861 -10.06836 -10.06497  -7.83062  -5.79429
 Alpha  occ. eigenvalues --   -5.79094  -5.78449  -0.95481  -0.93241  -0.74282
 Alpha  occ. eigenvalues --   -0.70900  -0.66743  -0.63578  -0.61377  -0.59836
 Alpha  occ. eigenvalues --   -0.56071  -0.50791  -0.50190  -0.47841  -0.45917
 Alpha  occ. eigenvalues --   -0.42010  -0.41569  -0.39239  -0.38629  -0.37035
 Alpha  occ. eigenvalues --   -0.36833  -0.35836  -0.33864  -0.32134  -0.31485
 Alpha  occ. eigenvalues --   -0.30792  -0.29478  -0.28617  -0.28143  -0.26425
 Alpha  occ. eigenvalues --   -0.24932  -0.24537  -0.24011  -0.23396  -0.23342
 Alpha  occ. eigenvalues --   -0.22799  -0.21985  -0.20537  -0.17694  -0.15790
 Alpha  occ. eigenvalues --   -0.14414   0.04338
 Alpha virt. eigenvalues --    0.06070   0.06581   0.07586   0.08232   0.08548
 Alpha virt. eigenvalues --    0.08839   0.09225   0.09984   0.10827   0.11022
 Alpha virt. eigenvalues --    0.11311   0.11617   0.12061   0.12396   0.12649

  Beta  occ. eigenvalues --  -88.74371 -19.03692 -19.02545 -10.12689 -10.12444
  Beta  occ. eigenvalues --  -10.12176 -10.11085 -10.10605 -10.07364 -10.06947
  Beta  occ. eigenvalues --  -10.06848 -10.06821 -10.06490  -7.83056  -5.79417
  Beta  occ. eigenvalues --   -5.79091  -5.78445  -0.95463  -0.93231  -0.74263
  Beta  occ. eigenvalues --   -0.70859  -0.66714  -0.63550  -0.61347  -0.59792
  Beta  occ. eigenvalues --   -0.56027  -0.50709  -0.50130  -0.47795  -0.45884
  Beta  occ. eigenvalues --   -0.41975  -0.41523  -0.39212  -0.38591  -0.36999
  Beta  occ. eigenvalues --   -0.36800  -0.35802  -0.33841  -0.32111  -0.31449
  Beta  occ. eigenvalues --   -0.30758  -0.29434  -0.28589  -0.28097  -0.26405
  Beta  occ. eigenvalues --   -0.24871  -0.24505  -0.23977  -0.23362  -0.23319
  Beta  occ. eigenvalues --   -0.22763  -0.21962  -0.20515  -0.17674  -0.15776
  Beta  occ. eigenvalues --   -0.14392
  Beta virt. eigenvalues --    0.06335   0.07126   0.07466   0.07877   0.08676
  Beta virt. eigenvalues --    0.08978   0.09286   0.09570   0.10302   0.11161
  Beta virt. eigenvalues --    0.11330   0.11489   0.11862   0.12322   0.12564

 Mulliken charges and spin densities:
               1          2
     1  C   -0.380925  -0.042439
     2  C    0.617774  -0.763387
     3  C   -0.307694  -0.395508
     4  C   -0.084537   0.800753
     5  C   -0.455849   0.233520
     6  C   -0.079697  -0.605972
     7  O   -0.038707  -0.004897
     8  C   -0.807049   0.314522
     9  C    0.732587  -0.842877
    10  O   -0.153346   0.032692
    11  C    0.780382  -1.106051
    12  C    0.074468  -0.319674
    13  S    0.349819  -0.388653
    14  H   -0.119428   0.261937
    15  H   -0.048478   0.188557
    16  H   -0.168329   0.335449
    17  H    0.083204   0.039463
    18  H   -0.069557   0.220327
    19  H   -0.113720   0.252821
    20  H    0.110625   0.101069
    21  H    1.533775  -1.706817
    22  H   -0.207543   0.347729
    23  H   -0.067663   0.230543
    24  H    0.218154  -0.015112
    25  H    0.255495  -0.091897
    26  H   -0.666807   0.857343
    27  H   -0.227859   0.353966
    28  H    0.130985   0.047750
    29  H   -0.093735   0.208733
    30  H   -0.464765   0.630024
    31  H   -0.847922   1.092816
    32  H    0.013028   0.166283
    33  H   -0.496686   0.566988
 Sum of Mulliken charges =  -1.00000   1.00000

 Dipole moment (field-independent basis, Debye):
    X=              2.8075    Y=             -0.5866    Z=              1.7853  Tot=              3.3784
 Quadrupole moment (field-independent basis, Debye-Ang):
   XX=           -164.1149   YY=           -143.0015   ZZ=           -128.5585
   XY=              2.5456   XZ=             -7.0403   YZ=             -3.3196

 Summary of Natural Population Analysis:

                                       Natural Population
                Natural  -----------------------------------------------
    Atom  No    Charge         Core      Valence    Rydberg      Total
 -----------------------------------------------------------------------
      C    1   -0.19030      0.99964     2.18257    0.00809     3.19030
      C    2   -0.19274      0.99964     2.18564    0.00745     3.19274
      C    3   -0.19070      0.99963     2.18248    0.00860     3.19070
      C    4   -0.12404      0.99960     2.11411    0.01034     3.12404
      C    5   -0.19874      0.99962     2.19087    0.00826     3.19874
      C    6   -0.00710      0.99952     1.99478    0.01280     3.00710
      O    7   -0.30237      0.99989     3.29301    0.00948     4.30237
      C    8   -0.01867      0.99956     2.00580    0.01331     3.01867
      C    9   -0.02184      0.99958     2.01086    0.01139     3.02184
      O   10   -0.31063      0.99987     3.30006    0.01070     4.31063
      C   11   -0.01194      0.99956     1.99933    0.01305     3.01194
      C   12   -0.25086      0.99958     2.23990    0.01138     3.25086
      S   13   -0.02950      4.99966     3.01477    0.01508     8.02950
      H   14    0.09224      0.00000     0.40654    0.00122     0.40776
      H   15    0.09886      0.00000     0.40016    0.00097     0.40114
      H   16    0.09845      0.00000     0.40051    0.00104     0.40155
      H   17    0.09542      0.00000     0.40283    0.00176     0.40458
      H   18    0.09856      0.00000     0.40033    0.00110     0.40144
      H   19    0.09803      0.00000     0.40085    0.00112     0.40197
      H   20    0.09647      0.00000     0.40212    0.00142     0.40353
      H   21    0.10157      0.00000     0.39599    0.00244     0.39843
      H   22    0.09897      0.00000     0.39994    0.00110     0.40103
      H   23    0.08684      0.00000     0.41184    0.00132     0.41316
      H   24    0.08917      0.00000     0.40869    0.00214     0.41083
      H   25    0.08403      0.00000     0.41400    0.00197     0.41597
      H   26    0.09216      0.00000     0.40649    0.00136     0.40784
      H   27    0.08468      0.00000     0.41352    0.00181     0.41532
      H   28    0.08434      0.00000     0.41412    0.00154     0.41566
      H   29    0.08373      0.00000     0.41419    0.00209     0.41627
      H   30    0.08686      0.00000     0.41047    0.00267     0.41314
      H   31    0.11016      0.00000     0.38737    0.00247     0.38984
      H   32    0.10385      0.00000     0.39431    0.00183     0.39615
      H   33    0.06507      0.00000     0.43166    0.00327     0.43493
 =======================================================================
   * Total *   -0.00000     16.99534    38.83010    0.17456    56.00000

 Normal termination of Gaussian 16 at Thu Dec 10 00:11:30 2020.
