 Gaussian 16, Revision A.03,

 -----------------------------------------------------------
 # opt freq B3LYP/6-31G(d) empiricaldispersion=gd3bj scf=xqc
 -----------------------------------------------------------

 ------------------------------
 CID_84036976_JID_6169_neutraal
 ------------------------------
 Symbolic Z-matrix:
 Charge =  0 Multiplicity = 1

 SCF Done:  E(RB3LYP) =  -709.705791662     A.U. after   15 cycles
 SCF Done:  E(RB3LYP) =  -709.709370372     A.U. after   13 cycles
 SCF Done:  E(RB3LYP) =  -709.708777438     A.U. after   13 cycles
 SCF Done:  E(RB3LYP) =  -709.710010628     A.U. after   12 cycles
 SCF Done:  E(RB3LYP) =  -709.710170823     A.U. after   11 cycles
 SCF Done:  E(RB3LYP) =  -709.710229147     A.U. after   12 cycles
 SCF Done:  E(RB3LYP) =  -709.710288740     A.U. after   11 cycles
 SCF Done:  E(RB3LYP) =  -709.710310773     A.U. after   11 cycles
 SCF Done:  E(RB3LYP) =  -709.710319181     A.U. after   10 cycles
 SCF Done:  E(RB3LYP) =  -709.710321508     A.U. after    8 cycles
 SCF Done:  E(RB3LYP) =  -709.710322348     A.U. after    8 cycles
 SCF Done:  E(RB3LYP) =  -709.710322621     A.U. after    7 cycles
 SCF Done:  E(RB3LYP) =  -709.710322733     A.U. after    7 cycles
 SCF Done:  E(RB3LYP) =  -709.710322749     A.U. after    7 cycles
 Optimization completed.
    -- Stationary point found.
 Normal termination of Gaussian 16 at Thu Dec 10 21:16:27 2020.

 --------------------------------------------------------------------
 #N Geom=AllCheck Guess=TCheck SCRF=Check GenChk RB3LYP/6-31G(d) Freq
 --------------------------------------------------------------------

 Structure from the checkpoint file:  "JID_6169.chk"
 ------------------------------
 CID_84036976_JID_6169_neutraal
 ------------------------------
 Charge =  0 Multiplicity = 1

 SCF Done:  E(RB3LYP) =  -709.710322749     A.U. after    1 cycles

  Exact polarizability: 188.359   6.472 150.523  12.542   2.788  87.785
 Approx polarizability: 261.073  10.638 256.634  26.265  -1.031 134.674

                      1                      2                      3
                      A                      A                      A
 Frequencies --     39.1398                46.6566                63.6755
 Red. masses --      5.5526                 5.9068                 3.3995
 Frc consts  --      0.0050                 0.0076                 0.0081
 IR Inten    --      0.6607                 4.2854                 0.4927

                      4                      5                      6
                      A                      A                      A
 Frequencies --    104.5752               120.1885               162.2013
 Red. masses --      4.7254                 3.1577                 1.0911
 Frc consts  --      0.0304                 0.0269                 0.0169
 IR Inten    --      4.7415                 0.1822                 0.4399

                      7                      8                      9
                      A                      A                      A
 Frequencies --    163.8351               189.5887               214.1928
 Red. masses --      1.0746                 2.8303                 3.4598
 Frc consts  --      0.0170                 0.0599                 0.0935
 IR Inten    --      0.8713                 0.9595                 0.0686

                     10                     11                     12
                      A                      A                      A
 Frequencies --    237.9373               271.1589               291.6156
 Red. masses --      3.1279                 2.8226                 5.0212
 Frc consts  --      0.1043                 0.1223                 0.2516
 IR Inten    --      4.0211                 4.1917                 2.4225

                     13                     14                     15
                      A                      A                      A
 Frequencies --    318.1724               369.0309               387.0223
 Red. masses --      2.8533                 5.1952                 3.0475
 Frc consts  --      0.1702                 0.4168                 0.2689
 IR Inten    --      2.3386                 7.3823                 4.7495

                     16                     17                     18
                      A                      A                      A
 Frequencies --    445.7493               451.8844               480.2086
 Red. masses --      2.2382                 4.3931                 3.3236
 Frc consts  --      0.2620                 0.5285                 0.4516
 IR Inten    --     13.1462                 2.8684                 0.6278

                     19                     20                     21
                      A                      A                      A
 Frequencies --    503.1228               516.4140               540.2962
 Red. masses --      4.0733                 3.7883                 4.0637
 Frc consts  --      0.6075                 0.5952                 0.6989
 IR Inten    --      5.1749                11.6127                 3.4870

                     22                     23                     24
                      A                      A                      A
 Frequencies --    546.5490               598.6607               662.7953
 Red. masses --      3.2923                 4.7366                 3.2637
 Frc consts  --      0.5794                 1.0002                 0.8447
 IR Inten    --      2.4319                13.1529                 2.6143

                     25                     26                     27
                      A                      A                      A
 Frequencies --    671.5279               727.0013               761.8299
 Red. masses --      4.3585                 4.8869                 2.4779
 Frc consts  --      1.1580                 1.5218                 0.8473
 IR Inten    --      3.6612                 4.9967                20.6011

                     28                     29                     30
                      A                      A                      A
 Frequencies --    775.8240               809.5883               827.6506
 Red. masses --      2.6751                 2.7835                 2.2543
 Frc consts  --      0.9487                 1.0749                 0.9098
 IR Inten    --     16.7654                 2.3734                 3.9111

                     31                     32                     33
                      A                      A                      A
 Frequencies --    843.5730               882.7186               939.2978
 Red. masses --      2.5361                 2.0712                 1.3454
 Frc consts  --      1.0633                 0.9509                 0.6994
 IR Inten    --      1.3066                 1.4491                 0.2003

                     34                     35                     36
                      A                      A                      A
 Frequencies --    959.1192               985.3328               991.4577
 Red. masses --      2.5953                 1.9622                 1.3416
 Frc consts  --      1.4066                 1.1224                 0.7770
 IR Inten    --      6.9338                 2.7440                 1.2697

                     37                     38                     39
                      A                      A                      A
 Frequencies --   1019.5207              1030.2139              1045.3774
 Red. masses --      2.0355                 1.8957                 1.8612
 Frc consts  --      1.2465                 1.1854                 1.1983
 IR Inten    --      1.8271                 2.0765                 1.7802

                     40                     41                     42
                      A                      A                      A
 Frequencies --   1069.7198              1087.8180              1093.3947
 Red. masses --      1.5858                 2.0715                 2.1520
 Frc consts  --      1.0692                 1.4443                 1.5159
 IR Inten    --      3.1550                18.3757                 6.2025

                     43                     44                     45
                      A                      A                      A
 Frequencies --   1118.0684              1194.6511              1197.2460
 Red. masses --      1.7683                 1.6846                 1.4762
 Frc consts  --      1.3024                 1.4166                 1.2467
 IR Inten    --      4.6423                12.7624                19.5944

                     46                     47                     48
                      A                      A                      A
 Frequencies --   1209.1259              1237.0677              1247.9684
 Red. masses --      2.3631                 1.5571                 2.3725
 Frc consts  --      2.0355                 1.4040                 2.1770
 IR Inten    --      9.7722                13.4134                44.4254

                     49                     50                     51
                      A                      A                      A
 Frequencies --   1263.7879              1286.6422              1296.2368
 Red. masses --      1.8013                 1.7628                 2.1472
 Frc consts  --      1.6950                 1.7194                 2.1257
 IR Inten    --     13.5475                15.0361                27.1381

                     52                     53                     54
                      A                      A                      A
 Frequencies --   1327.6729              1355.8699              1366.8118
 Red. masses --      2.2021                 2.9817                 1.4215
 Frc consts  --      2.2871                 3.2297                 1.5646
 IR Inten    --    126.6393                 9.1500                16.5276

                     55                     56                     57
                      A                      A                      A
 Frequencies --   1387.7239              1400.1878              1417.1126
 Red. masses --      1.7003                 1.8277                 1.3116
 Frc consts  --      1.9292                 2.1112                 1.5519
 IR Inten    --     55.0074                 0.7746                37.6772

                     58                     59                     60
                      A                      A                      A
 Frequencies --   1446.4212              1463.6344              1478.1328
 Red. masses --      1.2434                 1.2774                 1.6141
 Frc consts  --      1.5327                 1.6123                 2.0778
 IR Inten    --      0.4006                30.5965                72.3535

                     61                     62                     63
                      A                      A                      A
 Frequencies --   1491.5525              1498.4851              1501.6097
 Red. masses --      2.0792                 1.0602                 1.0633
 Frc consts  --      2.7254                 1.4027                 1.4126
 IR Inten    --     27.4736                11.5351                34.0041

                     64                     65                     66
                      A                      A                      A
 Frequencies --   1503.7908              1520.1026              1521.3322
 Red. masses --      1.1436                 1.9208                 1.2190
 Frc consts  --      1.5237                 2.6150                 1.6622
 IR Inten    --      7.4732                18.0727                11.3826

                     67                     68                     69
                      A                      A                      A
 Frequencies --   1532.3615              1545.5606              1647.0827
 Red. masses --      1.2309                 1.1680                 6.8558
 Frc consts  --      1.7029                 1.6438                10.9583
 IR Inten    --      3.9361                32.2343                 3.2336

                     70                     71                     72
                      A                      A                      A
 Frequencies --   1655.0175              1740.6345              1821.9191
 Red. masses --      5.9912                10.7607                10.4912
 Frc consts  --      9.6687                19.2090                20.5179
 IR Inten    --     29.4258               220.6303               205.6812

                     73                     74                     75
                      A                      A                      A
 Frequencies --   2998.7402              3030.2915              3041.8604
 Red. masses --      1.0729                 1.0694                 1.0391
 Frc consts  --      5.6844                 5.7857                 5.6648
 IR Inten    --     40.6327                23.3994                24.0755

                     76                     77                     78
                      A                      A                      A
 Frequencies --   3054.2532              3077.0053              3091.6798
 Red. masses --      1.0399                 1.0575                 1.1001
 Frc consts  --      5.7152                 5.8989                 6.1952
 IR Inten    --      3.9106                24.8200                21.1633

                     79                     80                     81
                      A                      A                      A
 Frequencies --   3102.3741              3106.6347              3119.2522
 Red. masses --      1.0921                 1.0919                 1.0946
 Frc consts  --      6.1928                 6.2088                 6.2750
 IR Inten    --     27.5092                19.7281                 7.4957

                     82                     83                     84
                      A                      A                      A
 Frequencies --   3131.0679              3133.0526              3172.8240
 Red. masses --      1.0998                 1.1063                 1.1045
 Frc consts  --      6.3523                 6.3981                 6.5511
 IR Inten    --     17.3146                 7.8588                10.0295

                     85                     86                     87
                      A                      A                      A
 Frequencies --   3182.3671              3204.2546              3233.3985
 Red. masses --      1.0879                 1.0926                 1.0930
 Frc consts  --      6.4913                 6.6095                 6.7324
 IR Inten    --     12.1921                22.5557                 4.3246

 - Thermochemistry -
 -------------------
 Temperature   298.150 Kelvin.  Pressure   1.00000 Atm.
 Atom     1 has atomic number  6 and mass  12.00000

 Molecular mass:   217.11028 amu.
 Principal axes and moments of inertia in atomic units:
                           1         2         3
     Eigenvalues --  1589.472505584.018916527.15412
           X            0.99988  -0.01538  -0.00011
           Y            0.01538   0.99963   0.02242
           Z           -0.00024  -0.02242   0.99975
 This molecule is an asymmetric top.
 Rotational symmetry number  1.
 Warning -- assumption of classical behavior for rotation
           may cause significant error
 Rotational temperatures (Kelvin)      0.05449     0.01551     0.01327
 Rotational constants (GHZ):           1.13543     0.32320     0.27650
 Zero-point vibrational energy     679469.9 (Joules/Mol)
                                  162.39721 (Kcal/Mol)
 Warning -- explicit consideration of  23 degrees of freedom as
           vibrations may cause significant error
 Vibrational temperatures:     56.31    67.13    91.61   150.46   172.92
          (Kelvin)            233.37   235.72   272.78   308.18   342.34
                              390.14   419.57   457.78   530.95   556.84
                              641.33   650.16   690.91   723.88   743.00
                              777.37   786.36   861.34   953.61   966.18
                             1045.99  1096.10  1116.24  1164.82  1190.80
                             1213.71  1270.04  1351.44  1379.96  1417.67
                             1426.49  1466.86  1482.25  1504.06  1539.09
                             1565.13  1573.15  1608.65  1718.84  1722.57
                             1739.66  1779.86  1795.55  1818.31  1851.19
                             1865.00  1910.23  1950.79  1966.54  1996.63
                             2014.56  2038.91  2081.08  2105.84  2126.70
                             2146.01  2155.99  2160.48  2163.62  2187.09
                             2188.86  2204.73  2223.72  2369.78  2381.20
                             2504.38  2621.34  4314.52  4359.91  4376.56
                             4394.39  4427.12  4448.24  4463.62  4469.75
                             4487.91  4504.91  4507.76  4564.99  4578.72
                             4610.21  4652.14

 Zero-point correction=                           0.258796 (Hartree/Particle)
 Thermal correction to Energy=                    0.273517
 Thermal correction to Enthalpy=                  0.274461
 Thermal correction to Gibbs Free Energy=         0.216567
 Sum of electronic and zero-point Energies=           -709.451526
 Sum of electronic and thermal Energies=              -709.436806
 Sum of electronic and thermal Enthalpies=            -709.435862
 Sum of electronic and thermal Free Energies=         -709.493756

                     E (Thermal)             CV                S
                      KCal/Mol        Cal/Mol-Kelvin    Cal/Mol-Kelvin
 Total                  171.634             56.170            121.848
 Electronic               0.000              0.000              0.000
 Translational            0.889              2.981             42.029
 Rotational               0.889              2.981             32.427
 Vibrational            169.857             50.209             47.393
 Vibration     1          0.594              1.981              5.302
 Vibration     2          0.595              1.979              4.954
 Vibration     3          0.597              1.972              4.340
 Vibration     4          0.605              1.946              3.367
 Vibration     5          0.609              1.932              3.097
 Vibration     6          0.622              1.889              2.524
 Vibration     7          0.623              1.887              2.505
 Vibration     8          0.633              1.854              2.232
 Vibration     9          0.644              1.819              2.008
 Vibration    10          0.656              1.783              1.818
 Vibration    11          0.675              1.726              1.589
 Vibration    12          0.687              1.689              1.465
 Vibration    13          0.705              1.639              1.319
 Vibration    14          0.741              1.536              1.084
 Vibration    15          0.755              1.498              1.012
 Vibration    16          0.805              1.370              0.809
 Vibration    17          0.811              1.357              0.790
 Vibration    18          0.837              1.294              0.710
 Vibration    19          0.858              1.243              0.650
 Vibration    20          0.871              1.214              0.618
 Vibration    21          0.895              1.161              0.565
 Vibration    22          0.902              1.147              0.551
 Vibration    23          0.957              1.035              0.452

 Optimization completed.
    -- Stationary point found.
 Normal termination of Gaussian 16 at Thu Dec 10 21:26:59 2020.

 ----------------------------------------------------------------------
 # B3LYP/6-311++G(d,p) empiricaldispersion=gd3bj scf=xqc pop=npa geom=c
 heck
 ----------------------------------------------------------------------

 --------------------------------------
 CID_84036976_JID_6169_Energie_neutraal
 --------------------------------------
 Structure from the checkpoint file:  "JID_6169.chk"
 Charge =  0 Multiplicity = 1

 SCF Done:  E(RB3LYP) =  -709.902916290     A.U. after   15 cycles
 Normal termination of Gaussian 16 at Thu Dec 10 21:32:24 2020.

 ----------------------------------------------------------------------
 # B3LYP/6-311++G(d,p) empiricaldispersion=gd3bj scf=xqc pop=npa geom=c
 heck
 ----------------------------------------------------------------------

 ------------------------------------
 CID_84036976_JID_6169_Energie_kation
 ------------------------------------
 Structure from the checkpoint file:  "JID_6169.chk"
 Charge =  1 Multiplicity = 2

 SCF Done:  E(UB3LYP) =  -709.596649863     A.U. after   28 cycles
 Normal termination of Gaussian 16 at Thu Dec 10 21:44:55 2020.
 Gaussian 16:  ES64L-G16RevA.03 25-Dec-2016

 ----------------------------------------------------------------------
 # B3LYP/6-311++G(d,p) empiricaldispersion=gd3bj scf=xqc pop=npa geom=c
 heck
 ----------------------------------------------------------------------

 -----------------------------------
 CID_84036976_JID_6169_Energie_anion
 -----------------------------------
 Structure from the checkpoint file:  "JID_6169.chk"
 Charge = -1 Multiplicity = 2

                         Standard orientation:
 ---------------------------------------------------------------------
 Center     Atomic      Atomic             Coordinates (Angstroms)
 Number     Number       Type             X           Y           Z
 ---------------------------------------------------------------------
      1          6           0        3.679149   -1.898406    0.302846
      2          6           0        2.952351   -0.578736    0.200309
      3          6           0        1.584382   -0.524247   -0.119470
      4          6           0        0.770846   -1.766214   -0.392255
      5          6           0       -0.689324   -1.554117   -0.008233
      6          7           0       -1.220362   -0.336104   -0.615885
      7          6           0       -0.495181    0.833358   -0.616793
      8          8           0       -1.004642    1.913160   -0.919660
      9          6           0        0.945114    0.720980   -0.233376
     10          6           0        1.651345    1.909385   -0.020512
     11          6           0        2.998460    1.857121    0.313692
     12          6           0        3.637966    0.620752    0.419507
     13          6           0       -2.645636   -0.274302   -0.888642
     14          6           0       -3.533112   -0.152420    0.357884
     15          8           0       -4.595317   -0.740219    0.409998
     16          6           0       -3.036543    0.755054    1.463420
     17          1           0        3.273677   -2.527034    1.105930
     18          1           0        4.741365   -1.742475    0.511182
     19          1           0        3.603264   -2.477256   -0.625618
     20          1           0        1.160647   -2.625805    0.161091
     21          1           0        0.831270   -2.022845   -1.460037
     22          1           0       -0.783906   -1.511299    1.088592
     23          1           0       -1.299668   -2.393971   -0.352858
     24          1           0        1.122374    2.849460   -0.129266
     25          1           0        3.555975    2.773020    0.486150
     26          1           0        4.693923    0.582380    0.675376
     27          1           0       -2.816096    0.616969   -1.501508
     28          1           0       -2.961618   -1.159813   -1.447538
     29          1           0       -2.171921    0.301323    1.964473
     30          1           0       -2.694421    1.708356    1.047149
     31          1           0       -3.831569    0.908943    2.195119
 ---------------------------------------------------------------------

 SCF Done:  E(UB3LYP) =  -709.904457366     A.U. after   33 cycles
 SCF Done:  E(UB3LYP) =  -709.904457366     a.u. after    1 cycles

 The electronic state is 2-A.
 Alpha  occ. eigenvalues --  -18.99070 -18.93154 -14.20580 -10.13269 -10.10974
 Alpha  occ. eigenvalues --  -10.09338 -10.08500 -10.06109 -10.05753 -10.05350
 Alpha  occ. eigenvalues --  -10.04795 -10.04262 -10.03601 -10.02770 -10.02717
 Alpha  occ. eigenvalues --  -10.02612  -0.92571  -0.89095  -0.80796  -0.72993
 Alpha  occ. eigenvalues --   -0.67027  -0.64972  -0.62961  -0.60890  -0.58774
 Alpha  occ. eigenvalues --   -0.56301  -0.52305  -0.48729  -0.44575  -0.42873
 Alpha  occ. eigenvalues --   -0.40050  -0.38824  -0.37193  -0.36518  -0.35232
 Alpha  occ. eigenvalues --   -0.33590  -0.33382  -0.31438  -0.31041  -0.30269
 Alpha  occ. eigenvalues --   -0.29272  -0.28265  -0.27936  -0.27684  -0.27132
 Alpha  occ. eigenvalues --   -0.26863  -0.26311  -0.25787  -0.25331  -0.23430
 Alpha  occ. eigenvalues --   -0.21330  -0.20944  -0.20254  -0.14901  -0.12332
 Alpha  occ. eigenvalues --   -0.11524  -0.11294  -0.10604   0.04996
 Alpha virt. eigenvalues --    0.07224   0.08427   0.08813   0.09150   0.09800
 Alpha virt. eigenvalues --    0.10230   0.10862   0.11437   0.11678   0.12300
 Alpha virt. eigenvalues --    0.12723   0.13160   0.13208   0.14233   0.14653

  Beta  occ. eigenvalues --  -18.98944 -18.92882 -14.20532 -10.13114 -10.10752
  Beta  occ. eigenvalues --  -10.09328 -10.08516 -10.06112 -10.05742 -10.05363
  Beta  occ. eigenvalues --  -10.04830 -10.04107 -10.03646 -10.02577 -10.02479
  Beta  occ. eigenvalues --  -10.02475  -0.92316  -0.88654  -0.80573  -0.72715
  Beta  occ. eigenvalues --   -0.66879  -0.64769  -0.62801  -0.60547  -0.58661
  Beta  occ. eigenvalues --   -0.56044  -0.52217  -0.48148  -0.44458  -0.42592
  Beta  occ. eigenvalues --   -0.39874  -0.38695  -0.37005  -0.36284  -0.35113
  Beta  occ. eigenvalues --   -0.33477  -0.33129  -0.31258  -0.30943  -0.30108
  Beta  occ. eigenvalues --   -0.29065  -0.28130  -0.27797  -0.27574  -0.26996
  Beta  occ. eigenvalues --   -0.26817  -0.25750  -0.25449  -0.24746  -0.22942
  Beta  occ. eigenvalues --   -0.20771  -0.20562  -0.20119  -0.14542  -0.11417
  Beta  occ. eigenvalues --   -0.10925  -0.10304  -0.10088
  Beta virt. eigenvalues --    0.07268   0.08541   0.09086   0.09362   0.09733
  Beta virt. eigenvalues --    0.10307   0.10750   0.10792   0.11511   0.11764
  Beta virt. eigenvalues --    0.12402   0.12758   0.13133   0.13220   0.14206

 Mulliken charges and spin densities:
               1          2
     1  C   -0.021520  -0.627454
     2  C    0.055083   0.288543
     3  C    0.506860   0.107461
     4  C   -0.433202  -0.007627
     5  C   -0.690006   0.040976
     6  N    0.240889   0.011102
     7  C   -0.436560   0.051177
     8  O   -0.403830   0.097883
     9  C    0.810097   0.147717
    10  C   -0.464497   0.150567
    11  C   -0.468857  -0.036556
    12  C   -0.471712   0.161342
    13  C   -0.216513  -0.010794
    14  C    0.002784   0.096363
    15  O   -0.307672   0.042769
    16  C   -0.338921  -0.052472
    17  H   -0.017651   0.155372
    18  H    0.076262   0.054669
    19  H    0.099276   0.045637
    20  H    0.035287   0.105496
    21  H    0.178057  -0.011764
    22  H    0.058576   0.071905
    23  H    0.105898   0.029180
    24  H    0.164069  -0.008480
    25  H    0.116708   0.004397
    26  H    0.050755  -0.005210
    27  H    0.192727   0.018463
    28  H    0.177583  -0.002294
    29  H    0.067434   0.072674
    30  H    0.171200   0.008770
    31  H    0.161395   0.000193
 Sum of Mulliken charges =  -1.00000   1.00000

 Dipole moment (field-independent basis, Debye):
    X=              1.5961    Y=             -2.2935    Z=             -0.3278  Tot=              2.8134
 Quadrupole moment (field-independent basis, Debye-Ang):
   XX=           -156.0650   YY=           -117.1705   ZZ=           -108.9954
   XY=             -2.9376   XZ=             -1.3573   YZ=              7.5527

 Summary of Natural Population Analysis:

                                       Natural Population
                Natural  -----------------------------------------------
    Atom  No    Charge         Core      Valence    Rydberg      Total
 -----------------------------------------------------------------------
      C    1   -0.29149      0.99964     2.28622    0.00563     3.29149
      C    2   -0.03740      0.99948     2.02855    0.00938     3.03740
      C    3    0.02191      0.99945     1.96929    0.00935     2.97809
      C    4   -0.20115      0.99960     2.19285    0.00869     3.20115
      C    5   -0.07395      0.99963     2.06369    0.01063     3.07395
      N    6   -0.25909      0.99964     2.74951    0.00993     3.75909
      C    7    0.37011      0.99959     1.60839    0.02191     2.62989
      O    8   -0.31679      0.99988     3.31174    0.00516     4.31679
      C    9   -0.04577      0.99943     2.03463    0.01171     3.04577
      C   10   -0.05471      0.99954     2.04676    0.00841     3.05471
      C   11   -0.12127      0.99957     2.11332    0.00838     3.12127
      C   12   -0.04708      0.99953     2.03723    0.01032     3.04708
      C   13   -0.13053      0.99958     2.12075    0.01020     3.13053
      C   14    0.30623      0.99970     1.67487    0.01920     2.69377
      O   15   -0.28965      0.99987     3.28206    0.00772     4.28965
      C   16   -0.34493      0.99962     2.34002    0.00529     3.34493
      H   17    0.09913      0.00000     0.39970    0.00117     0.40087
      H   18    0.09820      0.00000     0.40105    0.00075     0.40180
      H   19    0.09673      0.00000     0.40242    0.00085     0.40327
      H   20    0.10161      0.00000     0.39712    0.00127     0.39839
      H   21    0.10010      0.00000     0.39878    0.00112     0.39990
      H   22    0.08612      0.00000     0.41205    0.00183     0.41388
      H   23    0.09242      0.00000     0.40646    0.00112     0.40758
      H   24    0.10580      0.00000     0.39312    0.00108     0.39420
      H   25    0.09027      0.00000     0.40837    0.00136     0.40973
      H   26    0.08618      0.00000     0.41287    0.00095     0.41382
      H   27    0.12503      0.00000     0.37376    0.00120     0.37497
      H   28    0.09704      0.00000     0.40180    0.00116     0.40296
      H   29    0.11221      0.00000     0.38572    0.00207     0.38779
      H   30    0.12253      0.00000     0.37653    0.00094     0.37747
      H   31    0.10216      0.00000     0.39697    0.00087     0.39784
 =======================================================================
   * Total *   -0.00000     15.99376    41.82659    0.17965    58.00000

 Normal termination of Gaussian 16 at Thu Dec 10 21:59:37 2020.
