 Gaussian 16, Revision A.03,

 -----------------------------------------------------------
 # opt freq B3LYP/6-31G(d) empiricaldispersion=gd3bj scf=xqc
 -----------------------------------------------------------

 -------------------------------
 CID_151122104_JID_5454_neutraal
 -------------------------------
 Symbolic Z-matrix:
 Charge =  0 Multiplicity = 1

 SCF Done:  E(RB3LYP) =  -741.901866398     A.U. after   16 cycles
 SCF Done:  E(RB3LYP) =  -741.908970441     A.U. after   15 cycles
 SCF Done:  E(RB3LYP) =  -741.908246122     A.U. after   15 cycles
 SCF Done:  E(RB3LYP) =  -741.909581369     A.U. after   13 cycles
 SCF Done:  E(RB3LYP) =  -741.911396089     A.U. after   13 cycles
 SCF Done:  E(RB3LYP) =  -741.911060079     A.U. after   14 cycles
 SCF Done:  E(RB3LYP) =  -741.911779232     A.U. after   12 cycles
 SCF Done:  E(RB3LYP) =  -741.911799398     A.U. after   12 cycles
 SCF Done:  E(RB3LYP) =  -741.911813274     A.U. after   11 cycles
 SCF Done:  E(RB3LYP) =  -741.911852856     A.U. after   11 cycles
 SCF Done:  E(RB3LYP) =  -741.911859215     A.U. after   11 cycles
 SCF Done:  E(RB3LYP) =  -741.911861863     A.U. after    8 cycles
 SCF Done:  E(RB3LYP) =  -741.911862147     A.U. after    8 cycles
 SCF Done:  E(RB3LYP) =  -741.911862284     A.U. after    8 cycles
 Optimization completed.
    -- Stationary point found.
 Normal termination of Gaussian 16 at Thu Dec 10 16:13:04 2020.

 --------------------------------------------------------------------
 #N Geom=AllCheck Guess=TCheck SCRF=Check GenChk RB3LYP/6-31G(d) Freq
 --------------------------------------------------------------------

 Structure from the checkpoint file:  "JID_5454.chk"
 -------------------------------
 CID_151122104_JID_5454_neutraal
 -------------------------------
 Charge =  0 Multiplicity = 1

 SCF Done:  E(RB3LYP) =  -741.911862284     A.U. after    1 cycles

  Exact polarizability: 144.380 -14.252 113.523   4.542  -2.805 100.143
 Approx polarizability: 219.814 -32.116 153.486  19.039 -13.729 166.981

                      1                      2                      3
                      A                      A                      A
 Frequencies --     29.1686                51.7947                85.1427
 Red. masses --      7.4071                 4.6010                 4.8101
 Frc consts  --      0.0037                 0.0073                 0.0205
 IR Inten    --      0.2492                 0.6589                 0.6441

                      4                      5                      6
                      A                      A                      A
 Frequencies --    114.9006               128.9379               146.5670
 Red. masses --      5.8950                 8.7667                 5.1048
 Frc consts  --      0.0459                 0.0859                 0.0646
 IR Inten    --      0.2221                 4.5797                 4.5496

                      7                      8                      9
                      A                      A                      A
 Frequencies --    149.1605               180.8567               197.4778
 Red. masses --      3.9033                 2.7160                 3.0983
 Frc consts  --      0.0512                 0.0523                 0.0712
 IR Inten    --      0.3730                 0.1715                 1.1171

                     10                     11                     12
                      A                      A                      A
 Frequencies --    220.8803               243.2084               273.9519
 Red. masses --      1.1076                 2.2545                 1.4172
 Frc consts  --      0.0318                 0.0786                 0.0627
 IR Inten    --      0.1570                 2.2899                 0.8290

                     13                     14                     15
                      A                      A                      A
 Frequencies --    302.8818               319.2428               329.9402
 Red. masses --      2.8824                 3.6608                 2.9474
 Frc consts  --      0.1558                 0.2198                 0.1890
 IR Inten    --      1.5321                 7.7195                 3.4658

                     16                     17                     18
                      A                      A                      A
 Frequencies --    359.7086               402.6321               449.5136
 Red. masses --      2.7332                 2.6169                 2.3558
 Frc consts  --      0.2084                 0.2500                 0.2805
 IR Inten    --      2.0825                 1.1491                 2.6523

                     19                     20                     21
                      A                      A                      A
 Frequencies --    487.3787               536.0971               564.2339
 Red. masses --      2.9642                 6.4137                 3.0482
 Frc consts  --      0.4148                 1.0860                 0.5718
 IR Inten    --      4.7933                 2.7269                 3.3944

                     22                     23                     24
                      A                      A                      A
 Frequencies --    576.4261               682.5544               714.5011
 Red. masses --     13.6696                 3.0923                 3.3449
 Frc consts  --      2.6760                 0.8488                 1.0061
 IR Inten    --     10.3594                 2.0277                 1.8335

                     25                     26                     27
                      A                      A                      A
 Frequencies --    743.3084               776.3574               803.5362
 Red. masses --     11.2556                 9.9399                 4.7907
 Frc consts  --      3.6640                 3.5299                 1.8225
 IR Inten    --     46.5612                 9.9563                 2.5292

                     28                     29                     30
                      A                      A                      A
 Frequencies --    828.3254               856.6720               885.3523
 Red. masses --      2.1729                 1.8368                 3.6772
 Frc consts  --      0.8784                 0.7942                 1.6982
 IR Inten    --      4.8906                 0.5707                16.8937

                     31                     32                     33
                      A                      A                      A
 Frequencies --    917.7792               930.1203               936.9942
 Red. masses --      2.6012                 2.6736                 2.2038
 Frc consts  --      1.2909                 1.3628                 1.1400
 IR Inten    --      3.8439                18.7427                 6.2149

                     34                     35                     36
                      A                      A                      A
 Frequencies --    949.1943               963.2305               979.3923
 Red. masses --      1.8294                 2.0965                 3.7825
 Frc consts  --      0.9711                 1.1460                 2.1377
 IR Inten    --      5.0502                 4.5733                14.8901

                     37                     38                     39
                      A                      A                      A
 Frequencies --   1015.7597              1042.4440              1043.1305
 Red. masses --      1.8759                 1.5739                 1.5458
 Frc consts  --      1.1403                 1.0077                 0.9910
 IR Inten    --      8.0719                 5.2727                 7.4856

                     40                     41                     42
                      A                      A                      A
 Frequencies --   1083.2242              1100.5587              1154.4270
 Red. masses --      1.6182                 3.2628                 1.9756
 Frc consts  --      1.1187                 2.3285                 1.5513
 IR Inten    --      7.3781                58.5662                40.5957

                     43                     44                     45
                      A                      A                      A
 Frequencies --   1177.9938              1208.8278              1224.3834
 Red. masses --      2.0304                 1.4692                 1.5481
 Frc consts  --      1.6601                 1.2649                 1.3673
 IR Inten    --    205.1268                11.0389                13.9560

                     46                     47                     48
                      A                      A                      A
 Frequencies --   1237.6407              1251.9809              1278.4845
 Red. masses --      1.5529                 1.7403                 3.3564
 Frc consts  --      1.4015                 1.6072                 3.2324
 IR Inten    --     32.8210               378.0195               127.9176

                     49                     50                     51
                      A                      A                      A
 Frequencies --   1280.6337              1287.5034              1324.8246
 Red. masses --      1.5720                 1.5316                 3.1418
 Frc consts  --      1.5190                 1.4958                 3.2490
 IR Inten    --     99.4135                 6.4860               306.1246

                     52                     53                     54
                      A                      A                      A
 Frequencies --   1339.0011              1347.7368              1380.1872
 Red. masses --      1.6928                 2.0138                 1.2657
 Frc consts  --      1.7883                 2.1552                 1.4206
 IR Inten    --    139.6139               113.5095                 2.0967

                     55                     56                     57
                      A                      A                      A
 Frequencies --   1388.4079              1421.0716              1427.6162
 Red. masses --      1.5097                 1.3790                 1.2536
 Frc consts  --      1.7147                 1.6408                 1.5053
 IR Inten    --     10.5863                 3.8384                11.2564

                     58                     59                     60
                      A                      A                      A
 Frequencies --   1431.8086              1452.5861              1506.2658
 Red. masses --      1.3641                 1.2845                 1.0585
 Frc consts  --      1.6477                 1.5968                 1.4150
 IR Inten    --     14.2943                11.4232                 0.6884

                     61                     62                     63
                      A                      A                      A
 Frequencies --   1518.7198              1521.6771              1526.4568
 Red. masses --      1.0792                 1.0497                 1.0906
 Frc consts  --      1.4666                 1.4321                 1.4973
 IR Inten    --     12.1295                 3.4206                 0.8358

                     64                     65                     66
                      A                      A                      A
 Frequencies --   1526.8389              1546.6650              1550.8279
 Red. masses --      1.0605                 1.0547                 1.0846
 Frc consts  --      1.4566                 1.4865                 1.5369
 IR Inten    --      0.6061                 9.3779                 7.8157

                     67                     68                     69
                      A                      A                      A
 Frequencies --   1564.6086              1798.3647              2309.7049
 Red. masses --      1.0956                11.7100                13.9886
 Frc consts  --      1.5802                22.3133                43.9681
 IR Inten    --      2.0719               191.3262               481.7260

                     70                     71                     72
                      A                      A                      A
 Frequencies --   2986.2506              3047.3597              3054.2224
 Red. masses --      1.0751                 1.0598                 1.0709
 Frc consts  --      5.6487                 5.7985                 5.8859
 IR Inten    --     86.3040                55.6330                12.8110

                     73                     74                     75
                      A                      A                      A
 Frequencies --   3064.4094              3065.8980              3070.8496
 Red. masses --      1.0380                 1.0678                 1.0401
 Frc consts  --      5.7432                 5.9135                 5.7786
 IR Inten    --     13.5056                14.6097                26.2409

                     76                     77                     78
                      A                      A                      A
 Frequencies --   3081.1258              3086.4374              3118.9935
 Red. masses --      1.0832                 1.0991                 1.1058
 Frc consts  --      6.0587                 6.1689                 6.3381
 IR Inten    --     35.9705                44.7609                36.8246

                     79                     80                     81
                      A                      A                      A
 Frequencies --   3128.9960              3139.7409              3141.2709
 Red. masses --      1.1026                 1.1002                 1.0936
 Frc consts  --      6.3602                 6.3902                 6.3581
 IR Inten    --      8.9511                24.6899                12.7957

                     82                     83                     84
                      A                      A                      A
 Frequencies --   3150.3535              3168.9076              3174.3312
 Red. masses --      1.1020                 1.1007                 1.0900
 Frc consts  --      6.4441                 6.5122                 6.4710
 IR Inten    --     25.8875                 7.8188                10.9958

 - Thermochemistry -
 -------------------
 Temperature   298.150 Kelvin.  Pressure   1.00000 Atm.
 Atom     1 has atomic number  6 and mass  12.00000

 Molecular mass:   213.11134 amu.
 Principal axes and moments of inertia in atomic units:
                           1         2         3
     Eigenvalues --  2371.044293172.412364532.84843
           X            0.99918  -0.04030   0.00321
           Y            0.04031   0.99918  -0.00315
           Z           -0.00308   0.00327   0.99999
 This molecule is an asymmetric top.
 Rotational symmetry number  1.
 Warning -- assumption of classical behavior for rotation
           may cause significant error
 Rotational temperatures (Kelvin)      0.03653     0.02730     0.01911
 Rotational constants (GHZ):           0.76116     0.56889     0.39815
 Zero-point vibrational energy     657150.2 (Joules/Mol)
                                  157.06266 (Kcal/Mol)
 Warning -- explicit consideration of  22 degrees of freedom as
           vibrations may cause significant error
 Vibrational temperatures:     41.97    74.52   122.50   165.32   185.51
          (Kelvin)            210.88   214.61   260.21   284.13   317.80
                              349.92   394.16   435.78   459.32   474.71
                              517.54   579.30   646.75   701.23   771.32
                              811.81   829.35   982.04  1028.01  1069.45
                             1117.01  1156.11  1191.78  1232.56  1273.82
                             1320.48  1338.24  1348.13  1365.68  1385.87
                             1409.13  1461.45  1499.84  1500.83  1558.52
                             1583.46  1660.96  1694.87  1739.23  1761.61
                             1780.69  1801.32  1839.45  1842.55  1852.43
                             1906.13  1926.52  1939.09  1985.78  1997.61
                             2044.61  2054.02  2060.05  2089.95  2167.18
                             2185.10  2189.35  2196.23  2196.78  2225.31
                             2231.30  2251.12  2587.45  3323.15  4296.55
                             4384.47  4394.34  4409.00  4411.14  4418.27
                             4433.05  4440.69  4487.54  4501.93  4517.39
                             4519.59  4532.66  4559.35  4567.15

 Zero-point correction=                           0.250295 (Hartree/Particle)
 Thermal correction to Energy=                    0.265162
 Thermal correction to Enthalpy=                  0.266106
 Thermal correction to Gibbs Free Energy=         0.208052
 Sum of electronic and zero-point Energies=           -741.661567
 Sum of electronic and thermal Energies=              -741.646700
 Sum of electronic and thermal Enthalpies=            -741.645756
 Sum of electronic and thermal Free Energies=         -741.703810

                     E (Thermal)             CV                S
                      KCal/Mol        Cal/Mol-Kelvin    Cal/Mol-Kelvin
 Total                  166.392             55.419            122.186
 Electronic               0.000              0.000              0.000
 Translational            0.889              2.981             41.973
 Rotational               0.889              2.981             31.900
 Vibrational            164.614             49.458             48.312
 Vibration     1          0.593              1.984              5.885
 Vibration     2          0.596              1.977              4.748
 Vibration     3          0.601              1.959              3.769
 Vibration     4          0.608              1.937              3.184
 Vibration     5          0.611              1.924              2.962
 Vibration     6          0.617              1.906              2.716
 Vibration     7          0.618              1.904              2.683
 Vibration     8          0.630              1.866              2.320
 Vibration     9          0.637              1.843              2.156
 Vibration    10          0.648              1.809              1.952
 Vibration    11          0.659              1.774              1.779
 Vibration    12          0.676              1.721              1.571
 Vibration    13          0.694              1.668              1.401
 Vibration    14          0.705              1.637              1.314
 Vibration    15          0.713              1.616              1.260
 Vibration    16          0.734              1.555              1.123
 Vibration    17          0.768              1.464              0.953
 Vibration    18          0.808              1.362              0.797
 Vibration    19          0.843              1.278              0.690
 Vibration    20          0.891              1.170              0.574
 Vibration    21          0.920              1.109              0.515
 Vibration    22          0.933              1.082              0.492

                           ! Non-Optimized Parameters !
 Normal termination of Gaussian 16 at Thu Dec 10 16:24:04 2020.

 ----------------------------------------------------------------------
 # B3LYP/6-311++G(d,p) empiricaldispersion=gd3bj scf=xqc pop=npa geom=c
 heck
 ----------------------------------------------------------------------

 ---------------------------------------
 CID_151122104_JID_5454_Energie_neutraal
 ---------------------------------------
 Structure from the checkpoint file:  "JID_5454.chk"
 Charge =  0 Multiplicity = 1

 SCF Done:  E(RB3LYP) =  -742.123287210     A.U. after   15 cycles
 Normal termination of Gaussian 16 at Thu Dec 10 16:28:18 2020.

 ----------------------------------------------------------------------
 # B3LYP/6-311++G(d,p) empiricaldispersion=gd3bj scf=xqc pop=npa geom=c
 heck
 ----------------------------------------------------------------------

 -------------------------------------
 CID_151122104_JID_5454_Energie_kation
 -------------------------------------
 Structure from the checkpoint file:  "JID_5454.chk"
 Charge =  1 Multiplicity = 2

 SCF Done:  E(UB3LYP) =  -741.789389299     A.U. after   31 cycles
 Normal termination of Gaussian 16 at Thu Dec 10 16:44:53 2020.
 Gaussian 16:  ES64L-G16RevA.03 25-Dec-2016

 ----------------------------------------------------------------------
 # B3LYP/6-311++G(d,p) empiricaldispersion=gd3bj scf=xqc pop=npa geom=c
 heck
 ----------------------------------------------------------------------

 ------------------------------------
 CID_151122104_JID_5454_Energie_anion
 ------------------------------------
 Structure from the checkpoint file:  "JID_5454.chk"
 Charge = -1 Multiplicity = 2

                         Standard orientation:
 ---------------------------------------------------------------------
 Center     Atomic      Atomic             Coordinates (Angstroms)
 Number     Number       Type             X           Y           Z
 ---------------------------------------------------------------------
      1          6           0       -2.206577    1.734911   -1.174578
      2          6           0       -1.314891    1.388367    0.015438
      3          6           0       -1.341417    2.509044    1.057222
      4          6           0       -1.680624    0.038566    0.651796
      5          6           0       -1.792617   -1.214086   -0.247208
      6          6           0       -1.586017   -2.472161    0.623809
      7          6           0       -0.046519   -2.590823    0.670199
      8          8           0        0.455922   -1.864757   -0.463505
      9          6           0       -0.654942   -1.439927   -1.251722
     10          8           0        0.032864    1.332159   -0.586896
     11          6           0        1.081627    0.933962    0.134637
     12          8           0        1.142781    0.738467    1.329374
     13          7           0        2.169428    0.806315   -0.773255
     14          7           0        3.185014    0.300433   -0.260586
     15          7           0        4.162996   -0.153869    0.085583
     16          1           0       -3.247459    1.809411   -0.843646
     17          1           0       -2.145484    0.972652   -1.955252
     18          1           0       -1.909436    2.694538   -1.607759
     19          1           0       -2.365829    2.657236    1.414727
     20          1           0       -0.702089    2.267927    1.908091
     21          1           0       -0.996160    3.445809    0.608092
     22          1           0       -0.961608   -0.147620    1.451335
     23          1           0       -2.651352    0.179031    1.144124
     24          1           0       -2.762072   -1.229233   -0.757144
     25          1           0       -2.026504   -3.348412    0.136122
     26          1           0       -2.029411   -2.382849    1.620388
     27          1           0        0.380534   -2.135449    1.570762
     28          1           0        0.287560   -3.634397    0.618206
     29          1           0       -0.951134   -2.229230   -1.962736
     30          1           0       -0.342295   -0.563622   -1.816843
 ---------------------------------------------------------------------

 SCF Done:  E(UB3LYP) =  -742.113811220     A.U. after   33 cycles
 SCF Done:  E(UB3LYP) =  -742.113811220     a.u. after    1 cycles

 The electronic state is 2-A.
 Alpha  occ. eigenvalues --  -19.05675 -19.01480 -18.99821 -14.37369 -14.28460
 Alpha  occ. eigenvalues --  -14.25866 -10.21898 -10.14481 -10.10941 -10.10345
 Alpha  occ. eigenvalues --  -10.07395 -10.06755 -10.06301 -10.06291 -10.06282
 Alpha  occ. eigenvalues --   -1.04686  -1.00237  -0.93063  -0.92163  -0.87419
 Alpha  occ. eigenvalues --   -0.72715  -0.68712  -0.63497  -0.60146  -0.59450
 Alpha  occ. eigenvalues --   -0.58590  -0.49399  -0.48771  -0.47340  -0.42174
 Alpha  occ. eigenvalues --   -0.41642  -0.40628  -0.39996  -0.38351  -0.37278
 Alpha  occ. eigenvalues --   -0.36887  -0.35567  -0.35111  -0.33863  -0.33015
 Alpha  occ. eigenvalues --   -0.31225  -0.30605  -0.29263  -0.28982  -0.27864
 Alpha  occ. eigenvalues --   -0.26869  -0.26537  -0.25545  -0.24388  -0.23756
 Alpha  occ. eigenvalues --   -0.23063  -0.22377  -0.21512  -0.19156  -0.17487
 Alpha  occ. eigenvalues --   -0.16851  -0.14951   0.04548
 Alpha virt. eigenvalues --    0.06103   0.06531   0.07264   0.08244   0.08613
 Alpha virt. eigenvalues --    0.09791   0.10172   0.10403   0.11302   0.11816
 Alpha virt. eigenvalues --    0.12692   0.12906   0.13251   0.13708   0.14898

  Beta  occ. eigenvalues --  -19.05635 -19.01481 -18.99745 -14.37127 -14.28249
  Beta  occ. eigenvalues --  -14.25922 -10.21770 -10.14478 -10.10933 -10.10333
  Beta  occ. eigenvalues --  -10.07378 -10.06731 -10.06269 -10.06268 -10.06267
  Beta  occ. eigenvalues --   -1.04335  -1.00076  -0.93059  -0.92041  -0.87296
  Beta  occ. eigenvalues --   -0.72667  -0.68670  -0.63467  -0.60059  -0.59259
  Beta  occ. eigenvalues --   -0.58546  -0.49325  -0.48713  -0.47276  -0.41945
  Beta  occ. eigenvalues --   -0.40938  -0.40420  -0.39933  -0.38180  -0.37092
  Beta  occ. eigenvalues --   -0.36753  -0.35287  -0.34933  -0.33706  -0.32822
  Beta  occ. eigenvalues --   -0.31151  -0.30561  -0.29198  -0.28916  -0.27785
  Beta  occ. eigenvalues --   -0.26812  -0.26505  -0.25497  -0.24323  -0.23714
  Beta  occ. eigenvalues --   -0.22955  -0.22308  -0.21478  -0.18969  -0.17196
  Beta  occ. eigenvalues --   -0.16622  -0.14936
  Beta virt. eigenvalues --    0.06766   0.07075   0.07892   0.08270   0.08822
  Beta virt. eigenvalues --    0.09309   0.10045   0.10572   0.10779   0.11790
  Beta virt. eigenvalues --    0.11995   0.12897   0.13108   0.13548   0.13910

 Mulliken charges and spin densities:
               1          2
     1  C    0.246595  -0.815673
     2  C   -0.926918   1.107476
     3  C    0.083528  -0.517992
     4  C    1.361282  -2.119773
     5  C   -0.808976   1.298085
     6  C    0.877612  -1.401729
     7  C   -0.258481   0.008687
     8  O   -0.056381  -0.000585
     9  C   -0.097667  -0.493177
    10  O    0.130765  -0.007900
    11  C   -0.084537  -0.086382
    12  O   -0.257871   0.026261
    13  N   -0.618121   0.012468
    14  N    0.708671   0.019080
    15  N   -0.030225   0.112195
    16  H   -0.304601   0.472472
    17  H   -0.070292   0.210798
    18  H   -0.048734   0.206548
    19  H   -0.147401   0.300775
    20  H    0.102651   0.071047
    21  H    0.129333   0.019194
    22  H    0.213240   0.008412
    23  H   -0.308343   0.502256
    24  H   -0.590341   0.833915
    25  H   -0.241062   0.421314
    26  H   -0.276506   0.416873
    27  H    0.166575   0.007618
    28  H    0.048736   0.089096
    29  H   -0.170574   0.310807
    30  H    0.228044  -0.012167
 Sum of Mulliken charges =  -1.00000   1.00000

 Dipole moment (field-independent basis, Debye):
    X=              4.1311    Y=              1.6406    Z=              0.1308  Tot=              4.4468
 Quadrupole moment (field-independent basis, Debye-Ang):
   XX=           -160.3090   YY=           -126.2394   ZZ=           -117.0577
   XY=             -2.6936   XZ=             -2.4516   YZ=             -1.5627

 Summary of Natural Population Analysis:

                                       Natural Population
                Natural  -----------------------------------------------
    Atom  No    Charge         Core      Valence    Rydberg      Total
 -----------------------------------------------------------------------
      C    1   -0.29132      0.99960     2.28432    0.00741     3.29132
      C    2    0.14128      0.99951     1.84424    0.01497     2.85872
      C    3   -0.29827      0.99960     2.29222    0.00645     3.29827
      C    4   -0.21426      0.99954     2.20186    0.01285     3.21426
      C    5   -0.12584      0.99960     2.11257    0.01367     3.12584
      C    6   -0.20138      0.99963     2.19326    0.00849     3.20138
      C    7   -0.01395      0.99960     2.00232    0.01203     3.01395
      O    8   -0.30522      0.99990     3.29679    0.00853     4.30522
      C    9   -0.01430      0.99956     2.00111    0.01363     3.01430
      O   10   -0.28733      0.99984     3.27823    0.00926     4.28733
      C   11    0.46997      0.99970     1.50236    0.02796     2.53003
      O   12   -0.31856      0.99986     3.31356    0.00513     4.31856
      N   13   -0.21633      0.99965     2.70372    0.01296     3.71633
      N   14    0.15547      0.99971     2.32819    0.01664     3.34453
      N   15    0.00332      0.99981     2.48477    0.01210     3.49668
      H   16    0.10666      0.00000     0.39171    0.00163     0.39334
      H   17    0.10449      0.00000     0.39435    0.00116     0.39551
      H   18    0.10186      0.00000     0.39718    0.00095     0.39814
      H   19    0.10376      0.00000     0.39538    0.00086     0.39624
      H   20    0.11283      0.00000     0.38633    0.00084     0.38717
      H   21    0.10050      0.00000     0.39869    0.00081     0.39950
      H   22    0.11455      0.00000     0.38367    0.00178     0.38545
      H   23    0.11013      0.00000     0.38791    0.00196     0.38987
      H   24    0.10709      0.00000     0.38996    0.00295     0.39291
      H   25    0.10098      0.00000     0.39735    0.00167     0.39902
      H   26    0.10418      0.00000     0.39479    0.00104     0.39582
      H   27    0.08870      0.00000     0.41004    0.00126     0.41130
      H   28    0.08207      0.00000     0.41672    0.00121     0.41793
      H   29    0.07827      0.00000     0.42036    0.00137     0.42173
      H   30    0.10066      0.00000     0.39777    0.00157     0.39934
 =======================================================================
   * Total *    0.00000     14.99511    41.80171    0.20318    57.00000

 Normal termination of Gaussian 16 at Thu Dec 10 17:07:33 2020.
