 Gaussian 16, Revision A.03,

 -----------------------------------------------------------
 # opt freq B3LYP/6-31G(d) empiricaldispersion=gd3bj scf=xqc
 -----------------------------------------------------------

 -------------------------------
 CID_123387677_JID_1044_neutraal
 -------------------------------
 Symbolic Z-matrix:
 Charge =  0 Multiplicity = 1

 SCF Done:  E(RB3LYP) =  -1230.54582841     A.U. after   14 cycles
 SCF Done:  E(RB3LYP) =  -1230.55023189     A.U. after   13 cycles
 SCF Done:  E(RB3LYP) =  -1230.55224636     A.U. after   13 cycles
 SCF Done:  E(RB3LYP) =  -1230.55341713     A.U. after   13 cycles
 SCF Done:  E(RB3LYP) =  -1230.55491414     A.U. after   12 cycles
 SCF Done:  E(RB3LYP) =  -1230.55586647     A.U. after   13 cycles
 SCF Done:  E(RB3LYP) =  -1230.55621286     A.U. after   12 cycles
 SCF Done:  E(RB3LYP) =  -1230.55646808     A.U. after   12 cycles
 SCF Done:  E(RB3LYP) =  -1230.55672846     A.U. after   12 cycles
 SCF Done:  E(RB3LYP) =  -1230.55697381     A.U. after   12 cycles
 SCF Done:  E(RB3LYP) =  -1230.55759666     A.U. after   11 cycles
 SCF Done:  E(RB3LYP) =  -1230.55773297     A.U. after   12 cycles
 SCF Done:  E(RB3LYP) =  -1230.55775123     A.U. after   11 cycles
 SCF Done:  E(RB3LYP) =  -1230.55775505     A.U. after    8 cycles
 SCF Done:  E(RB3LYP) =  -1230.55775664     A.U. after    9 cycles
 SCF Done:  E(RB3LYP) =  -1230.55775675     A.U. after    7 cycles
 Optimization completed.
    -- Stationary point found.
 Normal termination of Gaussian 16 at Tue Dec  8 19:13:01 2020.

 --------------------------------------------------------------------
 #N Geom=AllCheck Guess=TCheck SCRF=Check GenChk RB3LYP/6-31G(d) Freq
 --------------------------------------------------------------------

 Structure from the checkpoint file:  "JID_1044.chk"
 -------------------------------
 CID_123387677_JID_1044_neutraal
 -------------------------------
 Charge =  0 Multiplicity = 1

 SCF Done:  E(RB3LYP) =  -1230.55775675     A.U. after    1 cycles

  Exact polarizability: 147.104  12.773 102.816  -2.199  -0.374  77.896
 Approx polarizability: 191.826  25.453 175.383  -0.675   2.528 128.600

                      1                      2                      3
                      A                      A                      A
 Frequencies --     29.9512                51.9963                68.0252
 Red. masses --      7.4245                 3.0965                 7.6814
 Frc consts  --      0.0039                 0.0049                 0.0209
 IR Inten    --      1.4695                 0.2011                 3.9657

                      4                      5                      6
                      A                      A                      A
 Frequencies --     88.6624               102.0290               223.8681
 Red. masses --      6.9813                 4.0303                 8.7898
 Frc consts  --      0.0323                 0.0247                 0.2595
 IR Inten    --      0.3549                 1.4273                 2.4639

                      7                      8                      9
                      A                      A                      A
 Frequencies --    234.4370               309.9281               349.5550
 Red. masses --      2.8752                 1.3856                 6.1162
 Frc consts  --      0.0931                 0.0784                 0.4403
 IR Inten    --      4.3700                27.1338                 1.1837

                     10                     11                     12
                      A                      A                      A
 Frequencies --    356.6875               393.9210               460.9449
 Red. masses --      4.7974                 4.0097                24.8079
 Frc consts  --      0.3596                 0.3666                 3.1055
 IR Inten    --      3.6365                 0.9625                16.1342

                     13                     14                     15
                      A                      A                      A
 Frequencies --    486.6473               502.2792               565.5450
 Red. masses --      6.6928                 1.5201                 2.5545
 Frc consts  --      0.9339                 0.2260                 0.4814
 IR Inten    --     18.0724                92.7653                43.9700

                     16                     17                     18
                      A                      A                      A
 Frequencies --    664.7174               742.2017               773.6291
 Red. masses --     11.9942                 9.6495                 1.5708
 Frc consts  --      3.1224                 3.1318                 0.5539
 IR Inten    --      4.2625                16.6490                 2.1687

                     19                     20                     21
                      A                      A                      A
 Frequencies --    788.8361               856.7484               858.2333
 Red. masses --      1.7606                 1.7177                 2.3068
 Frc consts  --      0.6455                 0.7429                 1.0011
 IR Inten    --      2.0608                 6.6176                 3.0408

                     22                     23                     24
                      A                      A                      A
 Frequencies --    874.4352               960.9424               980.6318
 Red. masses --      1.0605                11.9270                 3.0920
 Frc consts  --      0.4778                 6.4890                 1.7518
 IR Inten    --      9.2260                10.0506                 5.9807

                     25                     26                     27
                      A                      A                      A
 Frequencies --    990.1047              1022.0022              1074.7096
 Red. masses --     10.5428                 2.9101                 1.3482
 Frc consts  --      6.0893                 1.7909                 0.9175
 IR Inten    --      1.5510                12.2108                11.8258

                     28                     29                     30
                      A                      A                      A
 Frequencies --   1090.6098              1097.3870              1136.2539
 Red. masses --      1.3895                 3.9988                 1.1801
 Frc consts  --      0.9737                 2.8372                 0.8977
 IR Inten    --      0.3821                41.6374                 1.8191

                     31                     32                     33
                      A                      A                      A
 Frequencies --   1149.7098              1206.9712              1208.2915
 Red. masses --     11.9609                 1.7221                 1.5735
 Frc consts  --      9.3152                 1.4781                 1.3535
 IR Inten    --     67.4091                 3.5116                 1.4916

                     34                     35                     36
                      A                      A                      A
 Frequencies --   1261.4154              1387.2067              1417.2123
 Red. masses --      1.7411                 2.5860                 1.8346
 Frc consts  --      1.6323                 2.9320                 2.1710
 IR Inten    --      6.3734                48.1470                83.8299

                     37                     38                     39
                      A                      A                      A
 Frequencies --   1482.3893              1488.1232              1508.4747
 Red. masses --      1.9580                 1.1510                10.0086
 Frc consts  --      2.5351                 1.5018                13.4184
 IR Inten    --      8.5755                 6.6308                15.0143

                     40                     41                     42
                      A                      A                      A
 Frequencies --   1529.0704              1667.4869              2645.6640
 Red. masses --      1.4005                 6.5130                 1.0393
 Frc consts  --      1.9292                10.6698                 4.2862
 IR Inten    --     31.6669               697.4496                11.4335

                     43                     44                     45
                      A                      A                      A
 Frequencies --   3130.1707              3159.6730              3169.3092
 Red. masses --      1.0878                 1.0536                 1.0574
 Frc consts  --      6.2798                 6.1974                 6.2577
 IR Inten    --     31.1141                11.6726                 3.7240

                     46                     47                     48
                      A                      A                      A
 Frequencies --   3240.3278              3256.1966              3595.8873
 Red. masses --      1.1201                 1.1173                 1.0758
 Frc consts  --      6.9294                 6.9800                 8.1958
 IR Inten    --      2.8669                11.3727                59.2836

 - Thermochemistry -
 -------------------
 Temperature   298.150 Kelvin.  Pressure   1.00000 Atm.
 Atom     1 has atomic number  6 and mass  12.00000

 Molecular mass:   189.00306 amu.
 Principal axes and moments of inertia in atomic units:
                           1         2         3
     Eigenvalues --  1194.468014002.853794779.30522
           X            0.99982  -0.01805  -0.00577
           Y            0.01806   0.99984   0.00175
           Z            0.00574  -0.00185   0.99998
 This molecule is an asymmetric top.
 Rotational symmetry number  1.
 Warning -- assumption of classical behavior for rotation
           may cause significant error
 Rotational temperatures (Kelvin)      0.07251     0.02164     0.01812
 Rotational constants (GHZ):           1.51092     0.45086     0.37762
 Zero-point vibrational energy     332798.1 (Joules/Mol)
                                   79.54066 (Kcal/Mol)
 Warning -- explicit consideration of  15 degrees of freedom as
           vibrations may cause significant error
 Vibrational temperatures:     43.09    74.81    97.87   127.57   146.80
          (Kelvin)            322.10   337.30   445.92   502.93   513.19
                              566.76   663.20   700.18   722.67   813.69
                              956.38  1067.86  1113.08  1134.96  1232.67
                             1234.81  1258.12  1382.58  1410.91  1424.54
                             1470.43  1546.27  1569.14  1578.90  1634.82
                             1654.18  1736.56  1738.46  1814.90  1995.88
                             2039.05  2132.83  2141.08  2170.36  2199.99
                             2399.14  3806.52  4503.62  4546.06  4559.93
                             4662.11  4684.94  5173.68

 Zero-point correction=                           0.126756 (Hartree/Particle)
 Thermal correction to Energy=                    0.137881
 Thermal correction to Enthalpy=                  0.138826
 Thermal correction to Gibbs Free Energy=         0.087279
 Sum of electronic and zero-point Energies=          -1230.431001
 Sum of electronic and thermal Energies=             -1230.419875
 Sum of electronic and thermal Enthalpies=           -1230.418931
 Sum of electronic and thermal Free Energies=        -1230.470478

                     E (Thermal)             CV                S
                      KCal/Mol        Cal/Mol-Kelvin    Cal/Mol-Kelvin
 Total                   86.522             39.347            108.489
 Electronic               0.000              0.000              0.000
 Translational            0.889              2.981             41.616
 Rotational               0.889              2.981             31.503
 Vibrational             84.744             33.386             35.371
 Vibration     1          0.594              1.984              5.833
 Vibration     2          0.596              1.977              4.740
 Vibration     3          0.598              1.969              4.210
 Vibration     4          0.601              1.957              3.689
 Vibration     5          0.604              1.948              3.415
 Vibration     6          0.649              1.805              1.928
 Vibration     7          0.654              1.788              1.845
 Vibration     8          0.699              1.655              1.363
 Vibration     9          0.727              1.576              1.168
 Vibration    10          0.732              1.562              1.137
 Vibration    11          0.761              1.483              0.985
 Vibration    12          0.819              1.337              0.763
 Vibration    13          0.843              1.280              0.692
 Vibration    14          0.858              1.245              0.652
 Vibration    15          0.921              1.106              0.513

 Optimization completed.
    -- Stationary point found.
 Normal termination of Gaussian 16 at Tue Dec  8 19:16:00 2020.

 ----------------------------------------------------------------------
 # B3LYP/6-311++G(d,p) empiricaldispersion=gd3bj scf=xqc pop=npa geom=c
 heck
 ----------------------------------------------------------------------

 ---------------------------------------
 CID_123387677_JID_1044_Energie_neutraal
 ---------------------------------------
 Structure from the checkpoint file:  "JID_1044.chk"
 Charge =  0 Multiplicity = 1

 SCF Done:  E(RB3LYP) =  -1230.73589602     A.U. after   14 cycles
 Normal termination of Gaussian 16 at Tue Dec  8 19:17:02 2020.

 ----------------------------------------------------------------------
 # B3LYP/6-311++G(d,p) empiricaldispersion=gd3bj scf=xqc pop=npa geom=c
 heck
 ----------------------------------------------------------------------

 -------------------------------------
 CID_123387677_JID_1044_Energie_kation
 -------------------------------------
 Structure from the checkpoint file:  "JID_1044.chk"
 Charge =  1 Multiplicity = 2

 SCF Done:  E(UB3LYP) =  -1230.42378490     A.U. after   24 cycles
 Normal termination of Gaussian 16 at Tue Dec  8 19:19:18 2020.
 Gaussian 16:  ES64L-G16RevA.03 25-Dec-2016

 ----------------------------------------------------------------------
 # B3LYP/6-311++G(d,p) empiricaldispersion=gd3bj scf=xqc pop=npa geom=c
 heck
 ----------------------------------------------------------------------

 ------------------------------------
 CID_123387677_JID_1044_Energie_anion
 ------------------------------------
 Structure from the checkpoint file:  "JID_1044.chk"
 Charge = -1 Multiplicity = 2

                         Standard orientation:
 ---------------------------------------------------------------------
 Center     Atomic      Atomic             Coordinates (Angstroms)
 Number     Number       Type             X           Y           Z
 ---------------------------------------------------------------------
      1          6           0        4.025621   -1.080445    0.189436
      2          6           0        2.683013   -1.711671   -0.070066
      3          6           0        2.937863   -0.286214   -0.484288
      4          7           0        2.318998    0.757577    0.285682
      5          6           0        1.003050    1.060082    0.170779
      6          7           0        0.397756    2.152882    0.579416
      7          7           0       -0.948360    1.954095    0.307783
      8          6           0       -1.066458    0.791184   -0.254955
      9          8           0        0.164808    0.154887   -0.379060
     10         16           0       -2.502029    0.017211   -0.864316
     11         16           0       -2.949281   -1.409092    0.635006
     12          1           0        4.874925   -1.382820   -0.415255
     13          1           0        4.266494   -0.817226    1.214969
     14          1           0        2.593027   -2.451848   -0.858608
     15          1           0        2.023226   -1.865353    0.777089
     16          1           0        3.042442   -0.086662   -1.550813
     17          1           0        2.888580    1.547314    0.563790
     18          1           0       -3.663496   -0.601903    1.454652
 ---------------------------------------------------------------------

 SCF Done:  E(UB3LYP) =  -1230.75200970     A.U. after   24 cycles

 The electronic state is 2-A.
 Alpha  occ. eigenvalues --  -88.70043 -88.68464 -19.06814 -14.24228 -14.19261
 Alpha  occ. eigenvalues --  -14.18520 -10.16636 -10.12931 -10.12412 -10.09529
 Alpha  occ. eigenvalues --  -10.08894  -7.78636  -7.77207  -5.75077  -5.74702
 Alpha  occ. eigenvalues --   -5.73968  -5.73627  -5.73249  -5.72588  -1.02244
 Alpha  occ. eigenvalues --   -0.85853  -0.84117  -0.76611  -0.68805  -0.62800
 Alpha  occ. eigenvalues --   -0.54689  -0.53768  -0.52344  -0.50245  -0.45604
 Alpha  occ. eigenvalues --   -0.42962  -0.41494  -0.40036  -0.36520  -0.34012
 Alpha  occ. eigenvalues --   -0.31931  -0.28969  -0.28694  -0.25609  -0.24005
 Alpha  occ. eigenvalues --   -0.22090  -0.21390  -0.21215  -0.19112  -0.18482
 Alpha  occ. eigenvalues --   -0.14237  -0.10695  -0.10436  -0.09409   0.04055
 Alpha virt. eigenvalues --    0.05960   0.08103   0.08610   0.09524   0.11209
 Alpha virt. eigenvalues --    0.11464   0.12834   0.13278   0.13946   0.15025
 Alpha virt. eigenvalues --    0.15336   0.15915   0.16297   0.17097   0.17239

  Beta  occ. eigenvalues --  -88.69868 -88.68237 -19.06706 -14.24218 -14.19312
  Beta  occ. eigenvalues --  -14.18196 -10.16555 -10.12923 -10.12389 -10.09519
  Beta  occ. eigenvalues --  -10.08890  -7.78452  -7.76975  -5.74793  -5.74440
  Beta  occ. eigenvalues --   -5.73837  -5.73248  -5.72899  -5.72430  -1.02073
  Beta  occ. eigenvalues --   -0.85798  -0.83832  -0.76566  -0.68413  -0.61843
  Beta  occ. eigenvalues --   -0.54148  -0.53687  -0.52153  -0.49875  -0.45380
  Beta  occ. eigenvalues --   -0.42862  -0.41385  -0.39975  -0.36046  -0.33878
  Beta  occ. eigenvalues --   -0.31741  -0.28798  -0.28239  -0.25329  -0.23564
  Beta  occ. eigenvalues --   -0.22045  -0.20955  -0.20335  -0.18914  -0.17549
  Beta  occ. eigenvalues --   -0.13933  -0.10063  -0.09920  -0.08833
  Beta virt. eigenvalues --    0.06139   0.08074   0.08514   0.09519   0.09545
  Beta virt. eigenvalues --    0.11354   0.11716   0.12870   0.13405   0.14176
  Beta virt. eigenvalues --    0.14976   0.15702   0.15899   0.16645   0.17170

 Mulliken charges and spin densities:
               1          2
     1  C    0.024332  -0.324504
     2  C   -0.238965  -0.054002
     3  C   -0.241629   0.067233
     4  N   -0.210821   0.005953
     5  C    0.246081  -0.028439
     6  N   -0.197682  -0.018296
     7  N   -0.015066   0.111240
     8  C    0.312934   0.019243
     9  O    0.021182   0.017005
    10  S   -1.030553   0.406236
    11  S   -0.214399   0.266206
    12  H   -0.038360   0.167801
    13  H    0.110566   0.019114
    14  H    0.111115   0.031640
    15  H    0.192784  -0.019521
    16  H   -0.033963   0.230839
    17  H    0.273267   0.007807
    18  H   -0.070823   0.094446
 Sum of Mulliken charges =  -1.00000   1.00000

 Dipole moment (field-independent basis, Debye):
    X=              8.2975    Y=             -0.7368    Z=             -0.3673  Tot=              8.3383
 Quadrupole moment (field-independent basis, Debye-Ang):
   XX=           -117.2089   YY=           -108.4695   ZZ=            -92.9532
   XY=             -4.2571   XZ=              3.5934   YZ=              1.3191

 Summary of Natural Population Analysis:

                                       Natural Population
                Natural  -----------------------------------------------
    Atom  No    Charge         Core      Valence    Rydberg      Total
 -----------------------------------------------------------------------
      C    1   -0.20422      0.99963     2.19632    0.00828     3.20422
      C    2   -0.19352      0.99963     2.18502    0.00888     3.19352
      C    3   -0.02083      0.99958     2.00755    0.01370     3.02083
      N    4   -0.32182      0.99965     2.81264    0.00953     3.82182
      C    5    0.35024      0.99961     1.63110    0.01906     2.64976
      N    6   -0.21723      0.99969     2.70405    0.01349     3.71723
      N    7   -0.11772      0.99964     2.60087    0.01721     3.61772
      C    8    0.14120      0.99959     1.83304    0.02617     2.85880
      O    9   -0.24412      0.99985     3.23573    0.00854     4.24412
      S   10    0.09917      4.99952     2.87736    0.02395     7.90083
      S   11   -0.02635      4.99971     3.00782    0.01882     8.02635
      H   12    0.10174      0.00000     0.39729    0.00098     0.39826
      H   13    0.10396      0.00000     0.39510    0.00094     0.39604
      H   14    0.10375      0.00000     0.39526    0.00099     0.39625
      H   15    0.11205      0.00000     0.38698    0.00097     0.38795
      H   16    0.09555      0.00000     0.40268    0.00176     0.40445
      H   17    0.19357      0.00000     0.30309    0.00334     0.30643
      H   18    0.04460      0.00000     0.45165    0.00375     0.45540
 =======================================================================
   * Total *    0.00000     18.99610    29.82353    0.18037    49.00000

 Normal termination of Gaussian 16 at Tue Dec  8 19:21:36 2020.
