 Gaussian 16, Revision A.03,

 -----------------------------------------------------------
 # opt freq B3LYP/6-31G(d) empiricaldispersion=gd3bj scf=xqc
 -----------------------------------------------------------

 -------------------------------
 CID_152494704_JID_9739_neutraal
 -------------------------------
 Symbolic Z-matrix:
 Charge =  0 Multiplicity = 1

 SCF Done:  E(RB3LYP) =  -820.102077589     A.U. after   16 cycles
 SCF Done:  E(RB3LYP) =  -820.111497678     A.U. after   16 cycles
 SCF Done:  E(RB3LYP) =  -820.114495345     A.U. after   15 cycles
 SCF Done:  E(RB3LYP) =  -820.116929283     A.U. after   15 cycles
 SCF Done:  E(RB3LYP) =  -820.118408457     A.U. after   16 cycles
 SCF Done:  E(RB3LYP) =  -820.119014520     A.U. after   14 cycles
 SCF Done:  E(RB3LYP) =  -820.118969139     A.U. after   13 cycles
 SCF Done:  E(RB3LYP) =  -820.119221965     A.U. after   13 cycles
 SCF Done:  E(RB3LYP) =  -820.119274629     A.U. after   11 cycles
 SCF Done:  E(RB3LYP) =  -820.119325136     A.U. after   12 cycles
 SCF Done:  E(RB3LYP) =  -820.119423339     A.U. after   10 cycles
 SCF Done:  E(RB3LYP) =  -820.119425125     A.U. after    9 cycles
 SCF Done:  E(RB3LYP) =  -820.119425466     A.U. after    8 cycles
 SCF Done:  E(RB3LYP) =  -820.119425515     A.U. after    7 cycles
 SCF Done:  E(RB3LYP) =  -820.119425542     A.U. after    7 cycles
 Optimization completed.
    -- Stationary point found.
 Normal termination of Gaussian 16 at Mon Dec 14 13:36:37 2020.

 --------------------------------------------------------------------
 #N Geom=AllCheck Guess=TCheck SCRF=Check GenChk RB3LYP/6-31G(d) Freq
 --------------------------------------------------------------------

 Structure from the checkpoint file:  "JID_9739.chk"
 -------------------------------
 CID_152494704_JID_9739_neutraal
 -------------------------------
 Charge =  0 Multiplicity = 1

 SCF Done:  E(RB3LYP) =  -820.119425542     A.U. after    1 cycles

  Exact polarizability: 252.802 -24.383 189.663  25.687  17.627 103.482
 Approx polarizability: 404.511 -64.074 341.016  62.713  40.317 169.854

                      1                      2                      3
                      A                      A                      A
 Frequencies --     23.1358                44.4331                51.4968
 Red. masses --      3.5939                 3.2167                 5.6158
 Frc consts  --      0.0011                 0.0037                 0.0088
 IR Inten    --      0.0081                 0.3403                 0.0243

                      4                      5                      6
                      A                      A                      A
 Frequencies --     64.7218                89.2210               138.0950
 Red. masses --      4.5726                 3.3788                 5.2967
 Frc consts  --      0.0113                 0.0158                 0.0595
 IR Inten    --      0.5201                 0.7667                 1.6278

                      7                      8                      9
                      A                      A                      A
 Frequencies --    157.5391               164.6098               228.5406
 Red. masses --      7.6607                 4.1822                 2.8064
 Frc consts  --      0.1120                 0.0668                 0.0864
 IR Inten    --      0.0763                 0.2317                 0.0702

                     10                     11                     12
                      A                      A                      A
 Frequencies --    236.8503               259.3927               289.4620
 Red. masses --      4.2619                 3.1048                 6.7163
 Frc consts  --      0.1409                 0.1231                 0.3316
 IR Inten    --      0.2367                 0.6232                 5.1458

                     13                     14                     15
                      A                      A                      A
 Frequencies --    346.5600               403.6511               429.8623
 Red. masses --      4.2662                 4.1342                 3.4493
 Frc consts  --      0.3019                 0.3969                 0.3755
 IR Inten    --      0.6913                 3.1028                 0.7912

                     16                     17                     18
                      A                      A                      A
 Frequencies --    438.0618               440.8627               470.3488
 Red. masses --      6.1839                 4.0434                 3.6612
 Frc consts  --      0.6992                 0.4630                 0.4772
 IR Inten    --      1.2462                 5.3707                 3.8827

                     19                     20                     21
                      A                      A                      A
 Frequencies --    533.6217               537.3812               550.6590
 Red. masses --     10.5985                 5.0925                 7.7568
 Frc consts  --      1.7781                 0.8665                 1.3858
 IR Inten    --      9.6418                 5.4419                 0.9430

                     22                     23                     24
                      A                      A                      A
 Frequencies --    553.7345               571.3370               587.6496
 Red. masses --      2.7306                 3.1835                 3.1565
 Frc consts  --      0.4933                 0.6123                 0.6422
 IR Inten    --      0.6138                 4.1765                 3.4086

                     25                     26                     27
                      A                      A                      A
 Frequencies --    659.4315               670.7515               673.7033
 Red. masses --      2.7866                 6.1539                 4.6035
 Frc consts  --      0.7139                 1.6313                 1.2310
 IR Inten    --      0.1759                14.8427                11.8229

                     28                     29                     30
                      A                      A                      A
 Frequencies --    723.4879               768.3386               770.7195
 Red. masses --      2.5446                 1.6224                 5.0664
 Frc consts  --      0.7847                 0.5643                 1.7731
 IR Inten    --      0.3564                18.6705                 9.0054

                     31                     32                     33
                      A                      A                      A
 Frequencies --    788.9227               799.7948               815.7305
 Red. masses --      3.5293                 2.7456                 1.8753
 Frc consts  --      1.2942                 1.0348                 0.7352
 IR Inten    --      1.0565                 9.2297                 6.8547

                     34                     35                     36
                      A                      A                      A
 Frequencies --    831.5909               867.9548               874.7928
 Red. masses --      1.7408                 2.1087                 4.7557
 Frc consts  --      0.7093                 0.9360                 2.1443
 IR Inten    --     33.5596                 1.6029                 1.6277

                     37                     38                     39
                      A                      A                      A
 Frequencies --    885.1857               912.6184               920.9972
 Red. masses --      1.6096                 2.3840                 2.2731
 Frc consts  --      0.7431                 1.1699                 1.1360
 IR Inten    --      1.8879                 2.5019                 4.1816

                     40                     41                     42
                      A                      A                      A
 Frequencies --    942.1103               954.3872               961.8983
 Red. masses --      1.2995                 3.4756                 1.3512
 Frc consts  --      0.6796                 1.8652                 0.7366
 IR Inten    --      0.6801                15.1466                 0.6929

                     43                     44                     45
                      A                      A                      A
 Frequencies --    962.3053               993.6268              1014.5337
 Red. masses --      1.6365                 1.2721                 3.5810
 Frc consts  --      0.8929                 0.7400                 2.1717
 IR Inten    --      4.3473                 0.0340                90.6944

                     46                     47                     48
                      A                      A                      A
 Frequencies --   1034.2417              1057.4744              1059.3923
 Red. masses --      1.6473                 1.9254                 2.2414
 Frc consts  --      1.0381                 1.2685                 1.4821
 IR Inten    --      4.4531                12.3219                 2.3590

                     49                     50                     51
                      A                      A                      A
 Frequencies --   1082.1299              1108.9247              1177.7579
 Red. masses --      3.3909                 2.0452                 1.4846
 Frc consts  --      2.3395                 1.4818                 1.2133
 IR Inten    --     60.5466                 7.9766                 0.5723

                     52                     53                     54
                      A                      A                      A
 Frequencies --   1185.3138              1191.9183              1203.8077
 Red. masses --      1.4216                 1.1736                 1.4837
 Frc consts  --      1.1767                 0.9824                 1.2668
 IR Inten    --      2.0607                 5.2031                23.7371

                     55                     56                     57
                      A                      A                      A
 Frequencies --   1209.5968              1249.3976              1252.6360
 Red. masses --      1.5321                 1.3765                 1.7357
 Frc consts  --      1.3207                 1.2660                 1.6047
 IR Inten    --     32.1021                 8.1323                 0.1861

                     58                     59                     60
                      A                      A                      A
 Frequencies --   1254.0853              1268.2173              1298.2279
 Red. masses --      1.4941                 2.9381                 1.8327
 Frc consts  --      1.3845                 2.7842                 1.8199
 IR Inten    --      0.5941                86.3287                21.3950

                     61                     62                     63
                      A                      A                      A
 Frequencies --   1318.6961              1328.3691              1354.1498
 Red. masses --      1.2435                 1.3198                 3.4463
 Frc consts  --      1.2741                 1.3721                 3.7234
 IR Inten    --     10.6428                 0.3035                12.5513

                     64                     65                     66
                      A                      A                      A
 Frequencies --   1358.5117              1370.6412              1377.0244
 Red. masses --      1.4519                 1.3951                 1.5637
 Frc consts  --      1.5788                 1.5442                 1.7470
 IR Inten    --      1.0061                 1.3999                 0.9783

                     67                     68                     69
                      A                      A                      A
 Frequencies --   1384.8116              1418.4485              1426.9780
 Red. masses --      3.1436                 5.4145                 1.4639
 Frc consts  --      3.5519                 6.4185                 1.7563
 IR Inten    --     26.0148                 0.9905                 5.3209

                     70                     71                     72
                      A                      A                      A
 Frequencies --   1439.0064              1478.0873              1509.3650
 Red. masses --      4.4433                 2.4180                 1.1248
 Frc consts  --      5.4210                 3.1125                 1.5097
 IR Inten    --    190.9584                 5.8889                 6.2833

                     73                     74                     75
                      A                      A                      A
 Frequencies --   1511.4962              1517.8934              1525.0710
 Red. masses --      1.5166                 1.4121                 1.1120
 Frc consts  --      2.0415                 1.9168                 1.5238
 IR Inten    --     24.5636                16.5915                 0.7610

                     76                     77                     78
                      A                      A                      A
 Frequencies --   1542.9342              1560.1848              1620.0482
 Red. masses --      1.1045                 3.3560                 7.8174
 Frc consts  --      1.5492                 4.8131                12.0884
 IR Inten    --     11.4898                15.7050                13.0677

                     79                     80                     81
                      A                      A                      A
 Frequencies --   1651.6459              1682.1878              2267.5053
 Red. masses --      5.9199                 6.0729                13.9634
 Frc consts  --      9.5147                10.1250                42.2999
 IR Inten    --     14.0220                 4.2382               793.7301

                     82                     83                     84
                      A                      A                      A
 Frequencies --   3052.2408              3056.4591              3072.4583
 Red. masses --      1.0666                 1.0720                 1.0605
 Frc consts  --      5.8544                 5.9003                 5.8982
 IR Inten    --     31.4712                17.1660                23.8166

                     85                     86                     87
                      A                      A                      A
 Frequencies --   3082.4679              3099.9105              3114.9126
 Red. masses --      1.0652                 1.0973                 1.0885
 Frc consts  --      5.9632                 6.2126                 6.2224
 IR Inten    --     24.0163                30.5857                12.8151

                     88                     89                     90
                      A                      A                      A
 Frequencies --   3116.7112              3131.0573              3135.9473
 Red. masses --      1.1045                 1.1008                 1.0955
 Frc consts  --      6.3213                 6.3582                 6.3475
 IR Inten    --     23.2590                47.5911                31.6038

                     91                     92                     93
                      A                      A                      A
 Frequencies --   3182.1425              3192.3457              3194.6793
 Red. masses --      1.0864                 1.0889                 1.0895
 Frc consts  --      6.4814                 6.5384                 6.5515
 IR Inten    --      1.1109                 0.4088                23.1164

                     94                     95                     96
                      A                      A                      A
 Frequencies --   3208.8122              3225.9853              3228.8169
 Red. masses --      1.0951                 1.0931                 1.0932
 Frc consts  --      6.6435                 6.7025                 6.7150
 IR Inten    --     34.4832                12.5292                 6.1664

 - Thermochemistry -
 -------------------
 Temperature   298.150 Kelvin.  Pressure   1.00000 Atm.
 Atom     1 has atomic number  6 and mass  12.00000

 Molecular mass:   253.12151 amu.
 Principal axes and moments of inertia in atomic units:
                           1         2         3
     Eigenvalues --  2753.280906210.174217815.30335
           X            0.99979   0.02014  -0.00336
           Y           -0.02011   0.99976   0.00866
           Z            0.00353  -0.00859   0.99996
 This molecule is an asymmetric top.
 Rotational symmetry number  1.
 Warning -- assumption of classical behavior for rotation
           may cause significant error
 Rotational temperatures (Kelvin)      0.03146     0.01395     0.01108
 Rotational constants (GHZ):           0.65549     0.29061     0.23092
 Zero-point vibrational energy     728377.6 (Joules/Mol)
                                  174.08644 (Kcal/Mol)
 Warning -- explicit consideration of  24 degrees of freedom as
           vibrations may cause significant error
 Vibrational temperatures:     33.29    63.93    74.09    93.12   128.37
          (Kelvin)            198.69   226.66   236.84   328.82   340.77
                              373.21   416.47   498.62   580.76   618.48
                              630.27   634.30   676.73   767.76   773.17
                              792.28   796.70   822.03   845.50   948.77
                              965.06   969.31  1040.94  1105.47  1108.89
                             1135.08  1150.73  1173.65  1196.47  1248.79
                             1258.63  1273.58  1313.05  1325.11  1355.49
                             1373.15  1383.96  1384.54  1429.61  1459.69
                             1488.04  1521.47  1524.23  1556.94  1595.50
                             1694.53  1705.40  1714.90  1732.01  1740.34
                             1797.60  1802.26  1804.35  1824.68  1867.86
                             1897.31  1911.23  1948.32  1954.60  1972.05
                             1981.23  1992.44  2040.83  2053.10  2070.41
                             2126.64  2171.64  2174.71  2183.91  2194.24
                             2219.94  2244.76  2330.89  2376.35  2420.29
                             3262.43  4391.49  4397.56  4420.58  4434.98
                             4460.08  4481.66  4484.25  4504.89  4511.93
                             4578.39  4593.07  4596.43  4616.77  4641.47
                             4645.55

 Zero-point correction=                           0.277424 (Hartree/Particle)
 Thermal correction to Energy=                    0.292996
 Thermal correction to Enthalpy=                  0.293940
 Thermal correction to Gibbs Free Energy=         0.233029
 Sum of electronic and zero-point Energies=           -819.842001
 Sum of electronic and thermal Energies=              -819.826429
 Sum of electronic and thermal Enthalpies=            -819.825485
 Sum of electronic and thermal Free Energies=         -819.886397

                     E (Thermal)             CV                S
                      KCal/Mol        Cal/Mol-Kelvin    Cal/Mol-Kelvin
 Total                  183.858             61.476            128.200
 Electronic               0.000              0.000              0.000
 Translational            0.889              2.981             42.486
 Rotational               0.889              2.981             33.257
 Vibrational            182.080             55.514             52.456
 Vibration     1          0.593              1.985              6.345
 Vibration     2          0.595              1.980              5.051
 Vibration     3          0.596              1.977              4.759
 Vibration     4          0.597              1.971              4.308
 Vibration     5          0.602              1.957              3.677
 Vibration     6          0.614              1.915              2.830
 Vibration     7          0.621              1.894              2.579
 Vibration     8          0.623              1.886              2.496
 Vibration     9          0.651              1.797              1.890
 Vibration    10          0.656              1.784              1.826
 Vibration    11          0.668              1.747              1.666
 Vibration    12          0.686              1.693              1.477
 Vibration    13          0.725              1.582              1.182
 Vibration    14          0.769              1.462              0.949
 Vibration    15          0.791              1.405              0.859
 Vibration    16          0.798              1.387              0.833
 Vibration    17          0.801              1.381              0.824
 Vibration    18          0.827              1.316              0.737
 Vibration    19          0.889              1.176              0.579
 Vibration    20          0.892              1.167              0.571
 Vibration    21          0.906              1.138              0.543
 Vibration    22          0.909              1.132              0.536
 Vibration    23          0.927              1.093              0.502
 Vibration    24          0.945              1.058              0.471

                           ! Non-Optimized Parameters !
 Normal termination of Gaussian 16 at Mon Dec 14 13:56:08 2020.

 ----------------------------------------------------------------------
 # B3LYP/6-311++G(d,p) empiricaldispersion=gd3bj scf=xqc pop=npa geom=c
 heck
 ----------------------------------------------------------------------

 ---------------------------------------
 CID_152494704_JID_9739_Energie_neutraal
 ---------------------------------------
 Structure from the checkpoint file:  "JID_9739.chk"
 Charge =  0 Multiplicity = 1

 SCF Done:  E(RB3LYP) =  -820.328841426     A.U. after   17 cycles
 Normal termination of Gaussian 16 at Mon Dec 14 14:05:21 2020.

 ----------------------------------------------------------------------
 # B3LYP/6-311++G(d,p) empiricaldispersion=gd3bj scf=xqc pop=npa geom=c
 heck
 ----------------------------------------------------------------------

 -------------------------------------
 CID_152494704_JID_9739_Energie_kation
 -------------------------------------
 Structure from the checkpoint file:  "JID_9739.chk"
 Charge =  1 Multiplicity = 2

 SCF Done:  E(UB3LYP) =  -820.055672778     A.U. after   24 cycles
 Normal termination of Gaussian 16 at Mon Dec 14 14:23:29 2020.
 Gaussian 16:  ES64L-G16RevA.03 25-Dec-2016

 ----------------------------------------------------------------------
 # B3LYP/6-311++G(d,p) empiricaldispersion=gd3bj scf=xqc pop=npa geom=c
 heck
 ----------------------------------------------------------------------

 ------------------------------------
 CID_152494704_JID_9739_Energie_anion
 ------------------------------------
 Structure from the checkpoint file:  "JID_9739.chk"
 Charge = -1 Multiplicity = 2

                         Standard orientation:
 ---------------------------------------------------------------------
 Center     Atomic      Atomic             Coordinates (Angstroms)
 Number     Number       Type             X           Y           Z
 ---------------------------------------------------------------------
      1          6           0       -3.459358   -1.933430    0.764073
      2          6           0       -2.271483   -1.386934    1.574816
      3          6           0       -2.332652    0.123425    1.302058
      4          6           0       -2.742554    0.253983   -0.178737
      5          6           0       -3.506503   -1.056682   -0.510340
      6          8           0       -1.638933    0.491748   -1.102008
      7          6           0       -0.402663   -0.036447   -0.834773
      8          6           0        0.572846    0.784144   -0.280282
      9          6           0        1.887146    0.277529   -0.032690
     10          6           0        2.906460    1.075957    0.546265
     11          6           0        4.158720    0.553013    0.779077
     12          6           0        4.451684   -0.789193    0.441677
     13          6           0        3.481968   -1.584282   -0.124214
     14          6           0        2.179518   -1.080325   -0.376054
     15          6           0        1.167455   -1.880732   -0.966755
     16          6           0       -0.086577   -1.367974   -1.194525
     17          7           0        0.358582    2.125429    0.095101
     18          7           0       -0.695503    2.719980   -0.170200
     19          7           0       -1.568889    3.441478   -0.301871
     20          1           0       -4.384601   -1.805972    1.339502
     21          1           0       -3.366963   -3.000145    0.536211
     22          1           0       -2.336165   -1.627400    2.640903
     23          1           0       -1.329169   -1.799721    1.198829
     24          1           0       -1.408514    0.655876    1.538781
     25          1           0       -3.129015    0.573164    1.908361
     26          1           0       -3.362195    1.137989   -0.341533
     27          1           0       -3.015385   -1.544648   -1.356064
     28          1           0       -4.533354   -0.846340   -0.825399
     29          1           0        2.678960    2.104431    0.802109
     30          1           0        4.929440    1.175725    1.224101
     31          1           0        5.444141   -1.188524    0.629546
     32          1           0        3.698043   -2.616152   -0.389044
     33          1           0        1.400685   -2.904558   -1.245201
     34          1           0       -0.857812   -1.968230   -1.663819
 ---------------------------------------------------------------------

 SCF Done:  E(UB3LYP) =  -820.334374586     A.U. after   33 cycles
 SCF Done:  E(UB3LYP) =  -820.334374586     a.u. after    1 cycles

 The electronic state is 2-A.
 Alpha  occ. eigenvalues --  -19.01015 -14.33822 -14.23682 -14.23216 -10.11685
 Alpha  occ. eigenvalues --  -10.08007 -10.07150 -10.06632 -10.06444 -10.06266
 Alpha  occ. eigenvalues --  -10.06167 -10.04316 -10.04100 -10.03194 -10.02988
 Alpha  occ. eigenvalues --  -10.02971 -10.02449 -10.02073 -10.01724  -1.00377
 Alpha  occ. eigenvalues --   -0.92515  -0.84731  -0.73542  -0.72884  -0.67973
 Alpha  occ. eigenvalues --   -0.64297  -0.61806  -0.61384  -0.59282  -0.58141
 Alpha  occ. eigenvalues --   -0.51976  -0.48921  -0.48358  -0.47417  -0.44958
 Alpha  occ. eigenvalues --   -0.41600  -0.40117  -0.39691  -0.39135  -0.37797
 Alpha  occ. eigenvalues --   -0.35879  -0.35306  -0.34538  -0.32910  -0.32521
 Alpha  occ. eigenvalues --   -0.31748  -0.30537  -0.29923  -0.28290  -0.27826
 Alpha  occ. eigenvalues --   -0.26943  -0.26156  -0.25204  -0.24632  -0.24347
 Alpha  occ. eigenvalues --   -0.23948  -0.22866  -0.22224  -0.20944  -0.20522
 Alpha  occ. eigenvalues --   -0.19679  -0.17564  -0.17493  -0.14624  -0.12421
 Alpha  occ. eigenvalues --   -0.10705  -0.07180   0.04716
 Alpha virt. eigenvalues --    0.06609   0.08631   0.08771   0.09006   0.09505
 Alpha virt. eigenvalues --    0.10041   0.10533   0.11033   0.11270   0.11764
 Alpha virt. eigenvalues --    0.12122   0.12158   0.12645   0.13522   0.14148

  Beta  occ. eigenvalues --  -19.01007 -14.33611 -14.23415 -14.23355 -10.11667
  Beta  occ. eigenvalues --  -10.07897 -10.07145 -10.06629 -10.06266 -10.06163
  Beta  occ. eigenvalues --  -10.06141 -10.04374 -10.04177 -10.03164 -10.02929
  Beta  occ. eigenvalues --  -10.02910 -10.02207 -10.01865 -10.01388  -1.00018
  Beta  occ. eigenvalues --   -0.92441  -0.84597  -0.73415  -0.72731  -0.67612
  Beta  occ. eigenvalues --   -0.63807  -0.61694  -0.61369  -0.58989  -0.57853
  Beta  occ. eigenvalues --   -0.51647  -0.48770  -0.48123  -0.47325  -0.44793
  Beta  occ. eigenvalues --   -0.41362  -0.40045  -0.39542  -0.39017  -0.36946
  Beta  occ. eigenvalues --   -0.35686  -0.35167  -0.34360  -0.32724  -0.32383
  Beta  occ. eigenvalues --   -0.31353  -0.30422  -0.29797  -0.28132  -0.27710
  Beta  occ. eigenvalues --   -0.26819  -0.25689  -0.24907  -0.24595  -0.24311
  Beta  occ. eigenvalues --   -0.23861  -0.22835  -0.22000  -0.20755  -0.20405
  Beta  occ. eigenvalues --   -0.18900  -0.17514  -0.16485  -0.14538  -0.11488
  Beta  occ. eigenvalues --   -0.10047  -0.05638
  Beta virt. eigenvalues --    0.06587   0.08577   0.08721   0.08958   0.09699
  Beta virt. eigenvalues --    0.09864   0.10002   0.10531   0.11204   0.11568
  Beta virt. eigenvalues --    0.11747   0.12061   0.12553   0.12899   0.13626

 Mulliken charges and spin densities:
               1          2
     1  C   -0.227309  -0.220204
     2  C   -0.422316   0.053844
     3  C   -0.235165   0.005374
     4  C    0.068156   0.029286
     5  C   -0.375459  -0.021926
     6  O   -0.122802  -0.005413
     7  C   -0.749695   0.102566
     8  C   -0.322060   0.188553
     9  C    0.434449  -0.025701
    10  C   -0.124763   0.121237
    11  C   -0.510790   0.081262
    12  C   -0.475671   0.032637
    13  C   -0.172545   0.165024
    14  C    0.478630  -0.074916
    15  C   -0.279202   0.247288
    16  C    0.065520   0.006977
    17  N   -0.102904  -0.072450
    18  N    0.708693   0.075458
    19  N   -0.470597   0.135400
    20  H    0.059549   0.059469
    21  H    0.101412   0.029602
    22  H    0.100526   0.045861
    23  H    0.198111  -0.013348
    24  H    0.158413  -0.001072
    25  H    0.158900   0.005778
    26  H    0.191379   0.025967
    27  H    0.139780   0.003848
    28  H    0.059191   0.072319
    29  H    0.162569  -0.011628
    30  H    0.106738  -0.005487
    31  H    0.102750  -0.002456
    32  H    0.086425  -0.013723
    33  H    0.108976  -0.019747
    34  H    0.101112   0.000319
 Sum of Mulliken charges =  -1.00000   1.00000

 Dipole moment (field-independent basis, Debye):
    X=             -3.9309    Y=             -2.6203    Z=              1.3907  Tot=              4.9246
 Quadrupole moment (field-independent basis, Debye-Ang):
   XX=           -154.0660   YY=           -138.3960   ZZ=           -126.5760
   XY=              6.6446   XZ=             -2.0016   YZ=              3.5076

 Summary of Natural Population Analysis:

                                       Natural Population
                Natural  -----------------------------------------------
    Atom  No    Charge         Core      Valence    Rydberg      Total
 -----------------------------------------------------------------------
      C    1   -0.19260      0.99965     2.18583    0.00712     3.19260
      C    2   -0.19724      0.99964     2.19013    0.00747     3.19724
      C    3   -0.20997      0.99961     2.20284    0.00752     3.20997
      C    4    0.06881      0.99953     1.91529    0.01637     2.93119
      C    5   -0.20652      0.99962     2.19912    0.00777     3.20652
      O    6   -0.29955      0.99986     3.28928    0.01040     4.29955
      C    7    0.12398      0.99939     1.85590    0.02073     2.87602
      C    8    0.15429      0.99935     1.83322    0.01314     2.84571
      C    9   -0.05778      0.99952     2.04193    0.01633     3.05778
      C   10   -0.06440      0.99954     2.05540    0.00946     3.06440
      C   11   -0.09676      0.99957     2.08732    0.00986     3.09676
      C   12   -0.11241      0.99958     2.10266    0.01017     3.11241
      C   13   -0.05307      0.99954     2.04461    0.00892     3.05307
      C   14   -0.04200      0.99950     2.03418    0.00832     3.04200
      C   15   -0.03879      0.99954     2.03051    0.00875     3.03879
      C   16   -0.11856      0.99953     2.11019    0.00884     3.11856
      N   17   -0.20739      0.99967     2.68994    0.01778     3.70739
      N   18    0.13962      0.99970     2.34323    0.01745     3.36038
      N   19   -0.02808      0.99982     2.51546    0.01280     3.52808
      H   20    0.08914      0.00000     0.40926    0.00160     0.41086
      H   21    0.09678      0.00000     0.40184    0.00138     0.40322
      H   22    0.09414      0.00000     0.40452    0.00134     0.40586
      H   23    0.10996      0.00000     0.38880    0.00123     0.39004
      H   24    0.11445      0.00000     0.38421    0.00134     0.38555
      H   25    0.09626      0.00000     0.40268    0.00107     0.40374
      H   26    0.09374      0.00000     0.40492    0.00134     0.40626
      H   27    0.10592      0.00000     0.39254    0.00154     0.39408
      H   28    0.09632      0.00000     0.40239    0.00130     0.40368
      H   29    0.09965      0.00000     0.39929    0.00105     0.40035
      H   30    0.08851      0.00000     0.41041    0.00107     0.41149
      H   31    0.09012      0.00000     0.40926    0.00063     0.40988
      H   32    0.08655      0.00000     0.41179    0.00166     0.41345
      H   33    0.08590      0.00000     0.41252    0.00158     0.41410
      H   34    0.09270      0.00000     0.40581    0.00149     0.40730
 =======================================================================
   * Total *    0.00175     18.99216    47.76727    0.23882    66.99825

 Normal termination of Gaussian 16 at Mon Dec 14 14:49:12 2020.
