 Gaussian 16, Revision A.03,

 -----------------------------------------------------------
 # opt freq B3LYP/6-31G(d) empiricaldispersion=gd3bj scf=xqc
 -----------------------------------------------------------

 -------------------------------
 CID_151821363_JID_2507_neutraal
 -------------------------------
 Symbolic Z-matrix:
 Charge =  0 Multiplicity = 1

 SCF Done:  E(RB3LYP) =  -553.527801095     A.U. after   15 cycles
 SCF Done:  E(RB3LYP) =  -553.535818776     A.U. after   13 cycles
 SCF Done:  E(RB3LYP) =  -553.536135126     A.U. after   11 cycles
 SCF Done:  E(RB3LYP) =  -553.536156683     A.U. after    9 cycles
 SCF Done:  E(RB3LYP) =  -553.536158537     A.U. after    8 cycles
 SCF Done:  E(RB3LYP) =  -553.536159176     A.U. after    8 cycles
 Optimization completed.
    -- Stationary point found.
 Normal termination of Gaussian 16 at Wed Dec  9 17:24:23 2020.

 --------------------------------------------------------------------
 #N Geom=AllCheck Guess=TCheck SCRF=Check GenChk RB3LYP/6-31G(d) Freq
 --------------------------------------------------------------------

 Structure from the checkpoint file:  "JID_2507.chk"
 -------------------------------
 CID_151821363_JID_2507_neutraal
 -------------------------------
 Charge =  0 Multiplicity = 1

 SCF Done:  E(RB3LYP) =  -553.536159176     A.U. after    1 cycles

  Exact polarizability: 173.771  -5.027 110.935   0.012   0.029  52.923
 Approx polarizability: 253.156 -16.573 188.140   0.002   0.060  80.683

                      1                      2                      3
                      A                      A                      A
 Frequencies --     19.0657                75.9397               104.0085
 Red. masses --      3.9067                 4.9092                 4.5046
 Frc consts  --      0.0008                 0.0167                 0.0287
 IR Inten    --      0.7735                 0.3194                 0.0515

                      4                      5                      6
                      A                      A                      A
 Frequencies --    131.2742               178.2776               211.8294
 Red. masses --      3.2413                 2.3130                 5.3840
 Frc consts  --      0.0329                 0.0433                 0.1423
 IR Inten    --      0.0348                 0.6524                 0.0900

                      7                      8                      9
                      A                      A                      A
 Frequencies --    212.5468               329.2535               336.5607
 Red. masses --      3.1890                 7.3493                 2.6188
 Frc consts  --      0.0849                 0.4694                 0.1748
 IR Inten    --      0.0054                 0.8472                 0.9512

                     10                     11                     12
                      A                      A                      A
 Frequencies --    409.4358               423.0222               465.2348
 Red. masses --      6.6487                 3.5652                 5.5648
 Frc consts  --      0.6567                 0.3759                 0.7097
 IR Inten    --      3.5135                 7.6339                10.3671

                     13                     14                     15
                      A                      A                      A
 Frequencies --    546.5753               591.3991               611.6849
 Red. masses --      4.8263                 2.0080                 6.4372
 Frc consts  --      0.8495                 0.4138                 1.4191
 IR Inten    --      1.3549                 0.0332                38.9690

                     16                     17                     18
                      A                      A                      A
 Frequencies --    631.7539               673.5675               754.4928
 Red. masses --      1.3796                 5.0245                 1.0911
 Frc consts  --      0.3244                 1.3431                 0.3660
 IR Inten    --     99.5032                30.3408                 0.3891

                     19                     20                     21
                      A                      A                      A
 Frequencies --    765.2672               807.3591               867.8932
 Red. masses --      4.5457                 4.9475                 1.1626
 Frc consts  --      1.5685                 1.9001                 0.5160
 IR Inten    --     46.0366                 7.4958                 0.4926

                     22                     23                     24
                      A                      A                      A
 Frequencies --    907.8405               947.2850               964.3534
 Red. masses --      3.3647                 1.3567                 4.5565
 Frc consts  --      1.6339                 0.7173                 2.4966
 IR Inten    --     11.3162                 2.6647                18.1852

                     25                     26                     27
                      A                      A                      A
 Frequencies --    972.5940              1004.9258              1025.5513
 Red. masses --      2.1877                 1.4638                 3.3308
 Frc consts  --      1.2193                 0.8710                 2.0640
 IR Inten    --      0.1809                 0.9147                37.2871

                     28                     29                     30
                      A                      A                      A
 Frequencies --   1052.4898              1059.1258              1093.8545
 Red. masses --      1.5560                 3.5493                 1.8359
 Frc consts  --      1.0156                 2.3458                 1.2942
 IR Inten    --     22.2466                64.3840                 0.4320

                     31                     32                     33
                      A                      A                      A
 Frequencies --   1102.8619              1133.0536              1173.6598
 Red. masses --      1.4821                 2.5257                 3.2328
 Frc consts  --      1.0621                 1.9104                 2.6237
 IR Inten    --      0.5880                30.7339                63.8308

                     34                     35                     36
                      A                      A                      A
 Frequencies --   1175.7976              1201.9917              1231.8050
 Red. masses --      1.2477                 2.2320                 1.0825
 Frc consts  --      1.0163                 1.9000                 0.9677
 IR Inten    --      0.0239               275.5352                 0.2839

                     37                     38                     39
                      A                      A                      A
 Frequencies --   1302.6219              1340.3522              1381.0746
 Red. masses --      5.2386                 1.3199                 2.1698
 Frc consts  --      5.2373                 1.3971                 2.4384
 IR Inten    --     56.1625                 6.1114               110.8355

                     40                     41                     42
                      A                      A                      A
 Frequencies --   1413.3061              1426.3815              1474.8559
 Red. masses --      1.6592                 1.9775                 1.0870
 Frc consts  --      1.9527                 2.3705                 1.3931
 IR Inten    --      9.7930                 6.9758                 1.4207

                     43                     44                     45
                      A                      A                      A
 Frequencies --   1491.4330              1496.3913              1604.6768
 Red. masses --      1.0971                 1.2062                 7.2578
 Frc consts  --      1.4378                 1.5913                11.0111
 IR Inten    --      2.1540                 0.8458               284.4411

                     46                     47                     48
                      A                      A                      A
 Frequencies --   1691.6686              1814.3573              1819.5341
 Red. masses --      6.3849                 9.5945                11.1628
 Frc consts  --     10.7655                18.6088                21.7742
 IR Inten    --     41.0376               362.8594                 3.3896

                     49                     50                     51
                      A                      A                      A
 Frequencies --   3033.9390              3052.6837              3117.7131
 Red. masses --      1.0604                 1.1014                 1.0536
 Frc consts  --      5.7508                 6.0473                 6.0337
 IR Inten    --      9.4476                 9.6697                14.1580

                     52                     53                     54
                      A                      A                      A
 Frequencies --   3121.5318              3143.6430              3185.8103
 Red. masses --      1.0531                 1.0896                 1.1170
 Frc consts  --      6.0455                 6.3441                 6.6793
 IR Inten    --     16.2798                16.6305                 0.3989

                     55                     56                     57
                      A                      A                      A
 Frequencies --   3198.8928              3219.7473              3697.5083
 Red. masses --      1.1148                 1.0915                 1.0641
 Frc consts  --      6.7215                 6.6670                 8.5711
 IR Inten    --     13.4531                 9.8334                73.3255

 - Thermochemistry -
 -------------------
 Temperature   298.150 Kelvin.  Pressure   1.00000 Atm.
 Atom     1 has atomic number  6 and mass  12.00000

 Molecular mass:   163.06333 amu.
 Principal axes and moments of inertia in atomic units:
                           1         2         3
     Eigenvalues --   915.208683366.040694246.35101
           X            0.99998  -0.00661   0.00004
           Y            0.00661   0.99998   0.00005
           Z           -0.00004  -0.00005   1.00000
 This molecule is an asymmetric top.
 Rotational symmetry number  1.
 Warning -- assumption of classical behavior for rotation
           may cause significant error
 Rotational temperatures (Kelvin)      0.09464     0.02573     0.02040
 Rotational constants (GHZ):           1.97195     0.53616     0.42501
 Zero-point vibrational energy     431982.0 (Joules/Mol)
                                  103.24618 (Kcal/Mol)
 Warning -- explicit consideration of  15 degrees of freedom as
           vibrations may cause significant error
 Vibrational temperatures:     27.43   109.26   149.65   188.87   256.50
          (Kelvin)            304.78   305.81   473.72   484.24   589.09
                              608.63   669.37   786.40   850.89   880.08
                              908.95   969.11  1085.55  1101.05  1161.61
                             1248.70  1306.18  1362.93  1387.49  1399.35
                             1445.86  1475.54  1514.30  1523.85  1573.81
                             1586.77  1630.21  1688.63  1691.71  1729.40
                             1772.29  1874.18  1928.47  1987.06  2033.43
                             2052.24  2121.99  2145.84  2152.97  2308.77
                             2433.93  2610.46  2617.90  4365.16  4392.13
                             4485.69  4491.19  4523.00  4583.67  4602.49
                             4632.50  5319.89

 Zero-point correction=                           0.164533 (Hartree/Particle)
 Thermal correction to Energy=                    0.175344
 Thermal correction to Enthalpy=                  0.176288
 Thermal correction to Gibbs Free Energy=         0.126435
 Sum of electronic and zero-point Energies=           -553.371626
 Sum of electronic and thermal Energies=              -553.360815
 Sum of electronic and thermal Enthalpies=            -553.359871
 Sum of electronic and thermal Free Energies=         -553.409724

                     E (Thermal)             CV                S
                      KCal/Mol        Cal/Mol-Kelvin    Cal/Mol-Kelvin
 Total                  110.030             40.108            104.926
 Electronic               0.000              0.000              0.000
 Translational            0.889              2.981             41.176
 Rotational               0.889              2.981             30.948
 Vibrational            108.253             34.146             32.802
 Vibration     1          0.593              1.986              6.729
 Vibration     2          0.599              1.965              3.993
 Vibration     3          0.605              1.946              3.378
 Vibration     4          0.612              1.922              2.927
 Vibration     5          0.629              1.869              2.346
 Vibration     6          0.643              1.823              2.028
 Vibration     7          0.644              1.822              2.022
 Vibration     8          0.712              1.617              1.264
 Vibration     9          0.717              1.602              1.228
 Vibration    10          0.774              1.450              0.929
 Vibration    11          0.785              1.420              0.882
 Vibration    12          0.823              1.327              0.751
 Vibration    13          0.902              1.147              0.551
 Vibration    14          0.949              1.050              0.465
 Vibration    15          0.971              1.007              0.430

                           ! Non-Optimized Parameters !
 Normal termination of Gaussian 16 at Wed Dec  9 17:28:35 2020.

 ----------------------------------------------------------------------
 # B3LYP/6-311++G(d,p) empiricaldispersion=gd3bj scf=xqc pop=npa geom=c
 heck
 ----------------------------------------------------------------------

 ---------------------------------------
 CID_151821363_JID_2507_Energie_neutraal
 ---------------------------------------
 Structure from the checkpoint file:  "JID_2507.chk"
 Charge =  0 Multiplicity = 1

 SCF Done:  E(RB3LYP) =  -553.695338653     A.U. after   16 cycles
 Normal termination of Gaussian 16 at Wed Dec  9 17:30:51 2020.

 ----------------------------------------------------------------------
 # B3LYP/6-311++G(d,p) empiricaldispersion=gd3bj scf=xqc pop=npa geom=c
 heck
 ----------------------------------------------------------------------

 -------------------------------------
 CID_151821363_JID_2507_Energie_kation
 -------------------------------------
 Structure from the checkpoint file:  "JID_2507.chk"
 Charge =  1 Multiplicity = 2

 SCF Done:  E(UB3LYP) =  -553.392516629     A.U. after   21 cycles
 Normal termination of Gaussian 16 at Wed Dec  9 17:34:25 2020.
 Gaussian 16:  ES64L-G16RevA.03 25-Dec-2016

 ----------------------------------------------------------------------
 # B3LYP/6-311++G(d,p) empiricaldispersion=gd3bj scf=xqc pop=npa geom=c
 heck
 ----------------------------------------------------------------------

 ------------------------------------
 CID_151821363_JID_2507_Energie_anion
 ------------------------------------
 Structure from the checkpoint file:  "JID_2507.chk"
 Charge = -1 Multiplicity = 2

                         Standard orientation:
 ---------------------------------------------------------------------
 Center     Atomic      Atomic             Coordinates (Angstroms)
 Number     Number       Type             X           Y           Z
 ---------------------------------------------------------------------
      1          6           0        3.872071   -0.086310    0.003943
      2          6           0        3.279411   -1.507264    0.003002
      3          6           0        2.425030   -0.320261    0.000329
      4          6           0        1.190164    0.189919   -0.002858
      5          6           0       -0.057633   -0.676127   -0.006951
      6          6           0       -1.314909    0.159602   -0.001147
      7          6           0       -1.265471    1.508540    0.001162
      8          7           0       -0.095826    2.278676   -0.001008
      9          6           0        1.027204    1.638315   -0.002658
     10          6           0       -2.638890   -0.489686    0.001153
     11          8           0       -3.718389    0.070643    0.006071
     12          8           0       -2.535935   -1.849684   -0.001729
     13          1           0        4.352118    0.266845   -0.907716
     14          1           0        4.347395    0.267585    0.917785
     15          1           0        3.363254   -2.097066   -0.909297
     16          1           0        3.358510   -2.096350    0.916185
     17          1           0       -0.058331   -1.340878   -0.881281
     18          1           0       -0.056807   -1.351877    0.858722
     19          1           0       -2.190356    2.076959    0.004958
     20          1           0        1.941524    2.234598   -0.003382
     21          1           0       -3.453794   -2.178591    0.000500
 ---------------------------------------------------------------------

 SCF Done:  E(UB3LYP) =  -553.731388072     A.U. after   20 cycles

 The electronic state is 2-A.
 Alpha  occ. eigenvalues --  -19.02835 -18.95217 -14.13143 -10.14133 -10.05752
 Alpha  occ. eigenvalues --  -10.05676 -10.03438 -10.03384 -10.03200 -10.03138
 Alpha  occ. eigenvalues --  -10.02949 -10.01031  -0.96162  -0.86638  -0.76703
 Alpha  occ. eigenvalues --   -0.73569  -0.64845  -0.61638  -0.51716  -0.51239
 Alpha  occ. eigenvalues --   -0.48789  -0.45615  -0.40726  -0.37039  -0.35843
 Alpha  occ. eigenvalues --   -0.35049  -0.33832  -0.31337  -0.31331  -0.30401
 Alpha  occ. eigenvalues --   -0.27870  -0.26322  -0.25433  -0.23464  -0.21037
 Alpha  occ. eigenvalues --   -0.20979  -0.18821  -0.18489  -0.17267  -0.14072
 Alpha  occ. eigenvalues --   -0.13421  -0.09153  -0.07177   0.02475
 Alpha virt. eigenvalues --    0.08537   0.09252   0.10183   0.10450   0.12229
 Alpha virt. eigenvalues --    0.12737   0.13214   0.13233   0.13814   0.14712
 Alpha virt. eigenvalues --    0.15692   0.17041   0.17209   0.18416   0.18686

  Beta  occ. eigenvalues --  -19.02800 -18.95072 -14.13076 -10.14021 -10.05783
  Beta  occ. eigenvalues --  -10.05713 -10.03545 -10.03401 -10.02990 -10.02668
  Beta  occ. eigenvalues --  -10.02518 -10.00877  -0.96018  -0.86419  -0.76192
  Beta  occ. eigenvalues --   -0.73080  -0.64649  -0.61198  -0.51223  -0.51021
  Beta  occ. eigenvalues --   -0.48686  -0.45028  -0.40356  -0.36855  -0.35388
  Beta  occ. eigenvalues --   -0.34691  -0.33590  -0.31074  -0.30743  -0.30235
  Beta  occ. eigenvalues --   -0.27529  -0.26161  -0.25229  -0.23273  -0.20778
  Beta  occ. eigenvalues --   -0.19531  -0.18781  -0.17782  -0.16984  -0.13267
  Beta  occ. eigenvalues --   -0.12585  -0.08991  -0.05575
  Beta virt. eigenvalues --    0.08446   0.08498   0.09243   0.10135   0.10804
  Beta virt. eigenvalues --    0.12182   0.13146   0.13189   0.13757   0.14024
  Beta virt. eigenvalues --    0.15033   0.15623   0.17013   0.17165   0.18521

 Mulliken charges and spin densities:
               1          2
     1  C   -0.326197  -0.003139
     2  C   -0.153072  -0.026716
     3  C    0.251766   0.234366
     4  C    0.752042  -0.035693
     5  C   -1.446869   0.021053
     6  C    0.900498   0.091454
     7  C   -0.643513   0.136806
     8  N   -0.091458   0.028102
     9  C   -0.772342   0.308354
    10  C   -0.106796   0.090193
    11  O   -0.405726   0.052510
    12  O   -0.222636   0.009376
    13  H    0.092313   0.023335
    14  H    0.092479   0.023397
    15  H    0.091587   0.029686
    16  H    0.091625   0.029608
    17  H    0.163429   0.013448
    18  H    0.162932   0.013320
    19  H    0.180007  -0.012060
    20  H    0.126220  -0.026830
    21  H    0.263712  -0.000570
 Sum of Mulliken charges =  -1.00000   1.00000

 Dipole moment (field-independent basis, Debye):
    X=              2.5888    Y=             -4.4417    Z=             -0.0074  Tot=              5.1411
 Quadrupole moment (field-independent basis, Debye-Ang):
   XX=           -107.6576   YY=            -89.9035   ZZ=            -75.8521
   XY=              6.9485   XZ=              0.0281   YZ=             -0.0057

 Summary of Natural Population Analysis:

                                       Natural Population
                Natural  -----------------------------------------------
    Atom  No    Charge         Core      Valence    Rydberg      Total
 -----------------------------------------------------------------------
      C    1   -0.21060      0.99963     2.20508    0.00589     3.21060
      C    2   -0.21310      0.99963     2.20732    0.00615     3.21310
      C    3    0.08760      0.99949     1.90210    0.01081     2.91240
      C    4   -0.07256      0.99942     2.06528    0.00786     3.07256
      C    5   -0.20177      0.99959     2.19445    0.00773     3.20177
      C    6   -0.08001      0.99943     2.07120    0.00938     3.08001
      C    7    0.07777      0.99947     1.90877    0.01398     2.92223
      N    8   -0.26084      0.99970     2.74678    0.01436     3.76084
      C    9    0.16051      0.99959     1.82489    0.01500     2.83949
      C   10    0.40229      0.99965     1.57366    0.02440     2.59771
      O   11   -0.32419      0.99987     3.31757    0.00674     4.32419
      O   12   -0.35563      0.99988     3.34946    0.00629     4.35563
      H   13    0.09869      0.00000     0.40000    0.00132     0.40131
      H   14    0.09872      0.00000     0.39997    0.00132     0.40128
      H   15    0.09912      0.00000     0.39952    0.00136     0.40088
      H   16    0.09913      0.00000     0.39951    0.00136     0.40087
      H   17    0.10369      0.00000     0.39487    0.00144     0.39631
      H   18    0.10383      0.00000     0.39474    0.00143     0.39617
      H   19    0.08999      0.00000     0.40869    0.00132     0.41001
      H   20    0.07059      0.00000     0.42764    0.00177     0.42941
      H   21    0.22679      0.00000     0.26728    0.00592     0.27321
 =======================================================================
   * Total *    0.00000     11.99537    30.85877    0.14586    43.00000

 Normal termination of Gaussian 16 at Wed Dec  9 17:38:16 2020.
