 Gaussian 16, Revision A.03,

 -----------------------------------------------------------
 # opt freq B3LYP/6-31G(d) empiricaldispersion=gd3bj scf=xqc
 -----------------------------------------------------------

 -------------------------------
 CID_146368699_JID_9660_neutraal
 -------------------------------
 Symbolic Z-matrix:
 Charge =  0 Multiplicity = 1

 SCF Done:  E(RB3LYP) =  -803.939249673     A.U. after   16 cycles
 SCF Done:  E(RB3LYP) =  -803.958968424     A.U. after   13 cycles
 SCF Done:  E(RB3LYP) =  -803.959833699     A.U. after   12 cycles
 SCF Done:  E(RB3LYP) =  -803.952514666     A.U. after   14 cycles
 SCF Done:  E(RB3LYP) =  -803.960251502     A.U. after   12 cycles
 SCF Done:  E(RB3LYP) =  -803.960616814     A.U. after   12 cycles
 SCF Done:  E(RB3LYP) =  -803.959166804     A.U. after   13 cycles
 SCF Done:  E(RB3LYP) =  -803.960880919     A.U. after   11 cycles
 SCF Done:  E(RB3LYP) =  -803.961174016     A.U. after   12 cycles
 SCF Done:  E(RB3LYP) =  -803.960960288     A.U. after   12 cycles
 SCF Done:  E(RB3LYP) =  -803.961464965     A.U. after    8 cycles
 SCF Done:  E(RB3LYP) =  -803.961464978     A.U. after    7 cycles
 SCF Done:  E(RB3LYP) =  -803.961464981     A.U. after    6 cycles
 SCF Done:  E(RB3LYP) =  -803.961464981     A.U. after    6 cycles
 SCF Done:  E(RB3LYP) =  -803.961464980     A.U. after    6 cycles
 Optimization completed.
    -- Stationary point found.
 Normal termination of Gaussian 16 at Mon Dec 14 17:16:19 2020.

 --------------------------------------------------------------------
 #N Geom=AllCheck Guess=TCheck SCRF=Check GenChk RB3LYP/6-31G(d) Freq
 --------------------------------------------------------------------

 Structure from the checkpoint file:  "JID_9660.chk"
 -------------------------------
 CID_146368699_JID_9660_neutraal
 -------------------------------
 Charge =  0 Multiplicity = 1

 SCF Done:  E(RB3LYP) =  -803.961464980     A.U. after    1 cycles

  Exact polarizability: 202.133 -12.918 195.431  15.342  11.216 124.675
 Approx polarizability: 290.582 -28.478 311.187  29.831  25.783 207.433

                      1                      2                      3
                      A                      A                      A
 Frequencies --     11.8165                21.1123                24.7475
 Red. masses --      5.5801                 5.2488                 4.6321
 Frc consts  --      0.0005                 0.0014                 0.0017
 IR Inten    --      0.0771                 0.2119                 0.1636

                      4                      5                      6
                      A                      A                      A
 Frequencies --     49.9903                66.4560                89.2559
 Red. masses --      5.3326                 3.1013                 4.3124
 Frc consts  --      0.0079                 0.0081                 0.0202
 IR Inten    --      0.1865                 0.2464                 0.8738

                      7                      8                      9
                      A                      A                      A
 Frequencies --    113.6456               135.0988               172.3676
 Red. masses --      3.7420                 5.5062                 3.4916
 Frc consts  --      0.0285                 0.0592                 0.0611
 IR Inten    --      1.5812                 0.3548                 1.0991

                     10                     11                     12
                      A                      A                      A
 Frequencies --    187.1203               210.6934               229.6097
 Red. masses --      3.8856                 3.3819                 4.7895
 Frc consts  --      0.0802                 0.0885                 0.1488
 IR Inten    --      6.2772                 0.2449                 0.6088

                     13                     14                     15
                      A                      A                      A
 Frequencies --    272.7542               295.0422               298.0113
 Red. masses --      2.4698                 3.3332                 1.1783
 Frc consts  --      0.1083                 0.1710                 0.0617
 IR Inten    --      2.0345                 8.0227               104.0103

                     16                     17                     18
                      A                      A                      A
 Frequencies --    324.6158               344.5601               355.3698
 Red. masses --      2.7494                 3.7451                 3.3322
 Frc consts  --      0.1707                 0.2620                 0.2479
 IR Inten    --      3.6110                 0.8616                 3.1092

                     19                     20                     21
                      A                      A                      A
 Frequencies --    372.8423               407.1188               434.8260
 Red. masses --      5.1941                 3.6329                 3.2555
 Frc consts  --      0.4254                 0.3548                 0.3627
 IR Inten    --      5.1743                 1.8426                 0.9962

                     22                     23                     24
                      A                      A                      A
 Frequencies --    450.3015               486.4511               496.5462
 Red. masses --      4.8383                 4.1369                 6.3030
 Frc consts  --      0.5780                 0.5768                 0.9156
 IR Inten    --      2.0022                 1.9893                 1.7718

                     25                     26                     27
                      A                      A                      A
 Frequencies --    527.9932               533.7279               588.1839
 Red. masses --      3.2325                 4.4928                 3.5939
 Frc consts  --      0.5309                 0.7541                 0.7326
 IR Inten    --      0.4062                 1.6426                 4.5080

                     28                     29                     30
                      A                      A                      A
 Frequencies --    589.0135               610.7706               611.7237
 Red. masses --      1.1908                 2.5209                 1.3319
 Frc consts  --      0.2434                 0.5541                 0.2937
 IR Inten    --     45.1432                 7.9277                38.1174

                     31                     32                     33
                      A                      A                      A
 Frequencies --    630.9026               642.7244               661.0930
 Red. masses --      1.2208                 1.3104                 3.1745
 Frc consts  --      0.2863                 0.3189                 0.8174
 IR Inten    --     40.6862                28.9742                13.4954

                     34                     35                     36
                      A                      A                      A
 Frequencies --    684.8469               722.6892               755.7076
 Red. masses --      4.0434                 4.8162                 2.6244
 Frc consts  --      1.1173                 1.4820                 0.8830
 IR Inten    --     22.1595                14.2351                27.6131

                     37                     38                     39
                      A                      A                      A
 Frequencies --    779.4826               784.6988               794.0343
 Red. masses --      1.5840                 1.5095                 2.0170
 Frc consts  --      0.5670                 0.5476                 0.7493
 IR Inten    --      7.1984                99.6866                37.4558

                     40                     41                     42
                      A                      A                      A
 Frequencies --    798.7170               860.9713               871.9521
 Red. masses --      3.2366                 1.6695                 1.9851
 Frc consts  --      1.2165                 0.7291                 0.8892
 IR Inten    --      6.0329                15.7362                10.2939

                     43                     44                     45
                      A                      A                      A
 Frequencies --    892.7299               903.5513               943.2439
 Red. masses --      1.2611                 2.9353                 3.2761
 Frc consts  --      0.5922                 1.4119                 1.7173
 IR Inten    --      0.8155                45.9913                16.4493

                     46                     47                     48
                      A                      A                      A
 Frequencies --    956.2533               974.0058               987.4514
 Red. masses --      3.7493                 2.8357                 2.0541
 Frc consts  --      2.0200                 1.5850                 1.1801
 IR Inten    --     31.4292                 5.5245                 5.1780

                     49                     50                     51
                      A                      A                      A
 Frequencies --    999.4924              1034.2190              1050.1306
 Red. masses --      2.0881                 2.4403                 2.4886
 Frc consts  --      1.2290                 1.5378                 1.6170
 IR Inten    --      4.7845                14.3258                21.1358

                     52                     53                     54
                      A                      A                      A
 Frequencies --   1113.9364              1138.2280              1145.3300
 Red. masses --      2.0830                 2.4755                 3.1976
 Frc consts  --      1.5229                 1.8896                 2.4714
 IR Inten    --     18.9186                10.0236                47.1925

                     55                     56                     57
                      A                      A                      A
 Frequencies --   1172.8732              1205.1822              1206.9238
 Red. masses --      1.3828                 1.5097                 1.3588
 Frc consts  --      1.1208                 1.2919                 1.1662
 IR Inten    --      8.1644                86.1375                44.0423

                     58                     59                     60
                      A                      A                      A
 Frequencies --   1227.8030              1241.4351              1246.6693
 Red. masses --      1.3057                 1.4714                 1.4130
 Frc consts  --      1.1597                 1.3360                 1.2939
 IR Inten    --     47.9252                10.4816                14.8963

                     61                     62                     63
                      A                      A                      A
 Frequencies --   1276.0757              1306.7682              1315.5991
 Red. masses --      2.2572                 1.5794                 1.2726
 Frc consts  --      2.1656                 1.5890                 1.2977
 IR Inten    --     24.3824                77.2596                20.4903

                     64                     65                     66
                      A                      A                      A
 Frequencies --   1364.1114              1378.4709              1391.1204
 Red. masses --      1.5615                 1.8589                 1.5368
 Frc consts  --      1.7120                 2.0811                 1.7522
 IR Inten    --     48.5010                55.3112                68.0096

                     67                     68                     69
                      A                      A                      A
 Frequencies --   1397.5478              1406.2686              1413.8702
 Red. masses --      2.8673                 1.4925                 1.5009
 Frc consts  --      3.2996                 1.7390                 1.7677
 IR Inten    --     37.1751                48.0009                 4.4493

                     70                     71                     72
                      A                      A                      A
 Frequencies --   1425.7222              1438.6764              1496.3690
 Red. masses --      2.5553                 3.2505                 1.2892
 Frc consts  --      3.0603                 3.9640                 1.7008
 IR Inten    --      5.5257                27.5569                19.8915

                     73                     74                     75
                      A                      A                      A
 Frequencies --   1504.9185              1506.5766              1515.4103
 Red. masses --      1.4487                 1.4380                 1.1445
 Frc consts  --      1.9331                 1.9230                 1.5486
 IR Inten    --     73.2398                45.4702                 5.3720

                     76                     77                     78
                      A                      A                      A
 Frequencies --   1526.2440              1529.6498              1554.7078
 Red. masses --      1.1863                 1.0986                 3.7167
 Frc consts  --      1.6282                 1.5145                 5.2930
 IR Inten    --     42.8375                 2.7179                31.9344

                     79                     80                     81
                      A                      A                      A
 Frequencies --   1610.4440              1638.0084              1691.1695
 Red. masses --      5.6983                 6.7838                 6.6572
 Frc consts  --      8.7074                10.7240                11.2180
 IR Inten    --     10.7178                60.6021                26.7492

                     82                     83                     84
                      A                      A                      A
 Frequencies --   2247.5112              2247.9551              2939.7999
 Red. masses --      5.9636                 5.9142                 1.0727
 Frc consts  --     17.7485                17.6084                 5.4620
 IR Inten    --      0.2856                 1.4646                52.4182

                     85                     86                     87
                      A                      A                      A
 Frequencies --   3037.9324              3038.4246              3039.4511
 Red. masses --      1.0735                 1.0664                 1.0732
 Frc consts  --      5.8372                 5.8007                 5.8415
 IR Inten    --     25.5631                24.5845                15.9537

                     88                     89                     90
                      A                      A                      A
 Frequencies --   3049.3356              3077.8452              3094.6381
 Red. masses --      1.0607                 1.1019                 1.0964
 Frc consts  --      5.8111                 6.1503                 6.1864
 IR Inten    --     74.8465                12.3636                 4.5804

                     91                     92                     93
                      A                      A                      A
 Frequencies --   3099.2322              3170.2158              3209.7552
 Red. masses --      1.1029                 1.0887                 1.0927
 Frc consts  --      6.2416                 6.4466                 6.6329
 IR Inten    --     58.0338                20.2729                13.5329

                     94                     95                     96
                      A                      A                      A
 Frequencies --   3213.6365              3253.8090              3494.0101
 Red. masses --      1.0908                 1.0962                 1.0734
 Frc consts  --      6.6374                 6.8377                 7.7211
 IR Inten    --      3.7127                 1.7133                 1.2053

                     97                     98                     99
                      A                      A                      A
 Frequencies --   3495.3442              3496.6412              3760.0337
 Red. masses --      1.1619                 1.1607                 1.0660
 Frc consts  --      8.3635                 8.3615                 8.8793
 IR Inten    --     59.7967                53.6685                44.6290

 - Thermochemistry -
 -------------------
 Temperature   298.150 Kelvin.  Pressure   1.00000 Atm.
 Atom     1 has atomic number  6 and mass  12.00000

 Molecular mass:   252.12626 amu.
 Principal axes and moments of inertia in atomic units:
                           1         2         3
     Eigenvalues --  4083.376517018.742789804.86684
           X            0.99991   0.01064   0.00866
           Y           -0.01074   0.99987   0.01183
           Z           -0.00854  -0.01192   0.99989
 This molecule is an asymmetric top.
 Rotational symmetry number  1.
 Warning -- assumption of classical behavior for rotation
           may cause significant error
 Rotational temperatures (Kelvin)      0.02121     0.01234     0.00883
 Rotational constants (GHZ):           0.44197     0.25713     0.18407
 Zero-point vibrational energy     744031.4 (Joules/Mol)
                                  177.82778 (Kcal/Mol)
 Warning -- explicit consideration of  30 degrees of freedom as
           vibrations may cause significant error
 Vibrational temperatures:     17.00    30.38    35.61    71.92    95.62
          (Kelvin)            128.42   163.51   194.38   248.00   269.22
                              303.14   330.36   392.43   424.50   428.77
                              467.05   495.75   511.30   536.44   585.75
                              625.62   647.88   699.89   714.42   759.66
                              767.92   846.27   847.46   878.76   880.13
                              907.73   924.74   951.17   985.34  1039.79
                             1087.29  1121.50  1129.01  1142.44  1149.18
                             1238.75  1254.54  1284.44  1300.01  1357.12
                             1375.84  1401.38  1420.72  1438.05  1488.01
                             1510.90  1602.71  1637.66  1647.87  1687.50
                             1733.99  1736.49  1766.53  1786.15  1793.68
                             1835.99  1880.15  1892.85  1962.65  1983.31
                             2001.51  2010.76  2023.31  2034.24  2051.30
                             2069.93  2152.94  2165.24  2167.63  2180.34
                             2195.92  2200.82  2236.88  2317.07  2356.73
                             2433.22  3233.67  3234.31  4229.72  4370.91
                             4371.62  4373.09  4387.31  4428.33  4452.49
                             4459.10  4561.23  4618.12  4623.71  4681.51
                             5027.10  5029.02  5030.89  5409.85

 Zero-point correction=                           0.283387 (Hartree/Particle)
 Thermal correction to Energy=                    0.301887
 Thermal correction to Enthalpy=                  0.302831
 Thermal correction to Gibbs Free Energy=         0.233841
 Sum of electronic and zero-point Energies=           -803.678078
 Sum of electronic and thermal Energies=              -803.659578
 Sum of electronic and thermal Enthalpies=            -803.658634
 Sum of electronic and thermal Free Energies=         -803.727624

                     E (Thermal)             CV                S
                      KCal/Mol        Cal/Mol-Kelvin    Cal/Mol-Kelvin
 Total                  189.437             70.191            145.202
 Electronic               0.000              0.000              0.000
 Translational            0.889              2.981             42.475
 Rotational               0.889              2.981             33.996
 Vibrational            187.660             64.229             68.731
 Vibration     1          0.593              1.987              7.679
 Vibration     2          0.593              1.985              6.527
 Vibration     3          0.593              1.985              6.211
 Vibration     4          0.595              1.978              4.818
 Vibration     5          0.598              1.970              4.256
 Vibration     6          0.602              1.957              3.676
 Vibration     7          0.607              1.938              3.206
 Vibration     8          0.613              1.918              2.872
 Vibration     9          0.626              1.876              2.410
 Vibration    10          0.632              1.858              2.256
 Vibration    11          0.643              1.825              2.038
 Vibration    12          0.652              1.796              1.882
 Vibration    13          0.676              1.724              1.579
 Vibration    14          0.689              1.683              1.445
 Vibration    15          0.691              1.677              1.428
 Vibration    16          0.709              1.626              1.287
 Vibration    17          0.723              1.586              1.191
 Vibration    18          0.731              1.564              1.142
 Vibration    19          0.744              1.528              1.068
 Vibration    20          0.772              1.455              0.937
 Vibration    21          0.795              1.394              0.843
 Vibration    22          0.809              1.360              0.795
 Vibration    23          0.842              1.280              0.693
 Vibration    24          0.852              1.258              0.667
 Vibration    25          0.883              1.188              0.592
 Vibration    26          0.889              1.175              0.579
 Vibration    27          0.945              1.057              0.470
 Vibration    28          0.946              1.055              0.469
 Vibration    29          0.970              1.009              0.431
 Vibration    30          0.971              1.007              0.430

                           ! Non-Optimized Parameters !
 Normal termination of Gaussian 16 at Mon Dec 14 17:31:39 2020.

 ----------------------------------------------------------------------
 # B3LYP/6-311++G(d,p) empiricaldispersion=gd3bj scf=xqc pop=npa geom=c
 heck
 ----------------------------------------------------------------------

 ---------------------------------------
 CID_146368699_JID_9660_Energie_neutraal
 ---------------------------------------
 Structure from the checkpoint file:  "JID_9660.chk"
 Charge =  0 Multiplicity = 1

 SCF Done:  E(RB3LYP) =  -804.193061264     A.U. after   16 cycles
 Normal termination of Gaussian 16 at Mon Dec 14 17:38:05 2020.

 ----------------------------------------------------------------------
 # B3LYP/6-311++G(d,p) empiricaldispersion=gd3bj scf=xqc pop=npa geom=c
 heck
 ----------------------------------------------------------------------

 -------------------------------------
 CID_146368699_JID_9660_Energie_kation
 -------------------------------------
 Structure from the checkpoint file:  "JID_9660.chk"
 Charge =  1 Multiplicity = 2

 SCF Done:  E(UB3LYP) =  -803.929371823     A.U. after   26 cycles
 Normal termination of Gaussian 16 at Mon Dec 14 17:52:43 2020.
 Gaussian 16:  ES64L-G16RevA.03 25-Dec-2016

 ----------------------------------------------------------------------
 # B3LYP/6-311++G(d,p) empiricaldispersion=gd3bj scf=xqc pop=npa geom=c
 heck
 ----------------------------------------------------------------------

 ------------------------------------
 CID_146368699_JID_9660_Energie_anion
 ------------------------------------
 Structure from the checkpoint file:  "JID_9660.chk"
 Charge = -1 Multiplicity = 2

                         Standard orientation:
 ---------------------------------------------------------------------
 Center     Atomic      Atomic             Coordinates (Angstroms)
 Number     Number       Type             X           Y           Z
 ---------------------------------------------------------------------
      1          6           0       -5.023011    1.254889    1.696990
      2          6           0       -4.562152    0.546238    0.835750
      3          6           0       -3.969681   -0.280213   -0.217060
      4          7           0       -2.968843   -1.198290    0.330162
      5          6           0       -2.272937   -1.982251   -0.685434
      6          6           0       -1.408290   -1.177196   -1.691085
      7          6           0       -0.401093   -0.313065   -0.997211
      8          6           0       -0.498227    1.033774   -0.741860
      9          7           0        0.580520    1.464871    0.012884
     10          6           0        1.415317    0.381478    0.242735
     11          6           0        0.818784   -0.756614   -0.365632
     12          6           0        1.451766   -2.004100   -0.266927
     13          6           0        2.657631   -2.085661    0.420480
     14          6           0        3.242922   -0.943647    1.007409
     15          6           0        2.630799    0.302414    0.922187
     16          8           0        3.257634   -3.319111    0.500644
     17          6           0        0.853130    2.833268    0.409494
     18          6           0        1.950258    3.453209   -0.342823
     19          6           0        2.864917    3.952335   -0.950357
     20          1           0       -5.444587    1.861265    2.465767
     21          1           0       -4.752948   -0.883486   -0.697272
     22          1           0       -3.581788    0.393398   -1.004145
     23          1           0       -2.283750   -0.656307    0.854731
     24          1           0       -1.628926   -2.693685   -0.156277
     25          1           0       -3.019634   -2.570268   -1.234754
     26          1           0       -0.905367   -1.888379   -2.359883
     27          1           0       -2.051028   -0.559782   -2.329589
     28          1           0       -1.262736    1.738601   -1.041278
     29          1           0        1.031333   -2.899244   -0.713391
     30          1           0        4.192949   -1.040428    1.528996
     31          1           0        3.098648    1.179239    1.358247
     32          1           0        4.081580   -3.230762    1.002802
     33          1           0       -0.070026    3.407587    0.277014
     34          1           0        1.084028    2.853314    1.483119
     35          1           0        3.668633    4.386602   -1.500502
 ---------------------------------------------------------------------

 SCF Done:  E(UB3LYP) =  -804.183054846     A.U. after   33 cycles
 SCF Done:  E(UB3LYP) =  -804.183054968     a.u. after    2 cycles

 The electronic state is 2-A.
 Alpha  occ. eigenvalues --  -19.05351 -14.27064 -14.21879 -10.15358 -10.13920
 Alpha  occ. eigenvalues --  -10.13484 -10.11344 -10.11149 -10.10742 -10.09735
 Alpha  occ. eigenvalues --  -10.09429 -10.09138 -10.08730 -10.08362 -10.08327
 Alpha  occ. eigenvalues --  -10.08051 -10.07765 -10.07634 -10.07288  -0.96256
 Alpha  occ. eigenvalues --   -0.90089  -0.83291  -0.75980  -0.72889  -0.70165
 Alpha  occ. eigenvalues --   -0.68337  -0.65566  -0.65200  -0.63138  -0.61465
 Alpha  occ. eigenvalues --   -0.59151  -0.53562  -0.53189  -0.51267  -0.47618
 Alpha  occ. eigenvalues --   -0.46119  -0.46020  -0.44177  -0.42758  -0.42052
 Alpha  occ. eigenvalues --   -0.40432  -0.39550  -0.39374  -0.37545  -0.36577
 Alpha  occ. eigenvalues --   -0.35774  -0.35007  -0.34103  -0.33467  -0.32563
 Alpha  occ. eigenvalues --   -0.31624  -0.30599  -0.30240  -0.29394  -0.28931
 Alpha  occ. eigenvalues --   -0.27586  -0.27041  -0.24183  -0.21794  -0.20572
 Alpha  occ. eigenvalues --   -0.19936  -0.19858  -0.19522  -0.18296  -0.15074
 Alpha  occ. eigenvalues --   -0.12308  -0.10993   0.03885
 Alpha virt. eigenvalues --    0.05329   0.05900   0.06193   0.06721   0.07263
 Alpha virt. eigenvalues --    0.07776   0.08288   0.08753   0.09660   0.09895
 Alpha virt. eigenvalues --    0.10076   0.10159   0.10572   0.10678   0.11016

  Beta  occ. eigenvalues --  -19.05320 -14.27064 -14.21875 -10.15314 -10.13906
  Beta  occ. eigenvalues --  -10.13493 -10.11341 -10.11115 -10.10744 -10.09730
  Beta  occ. eigenvalues --  -10.09428 -10.09135 -10.08716 -10.08339 -10.08309
  Beta  occ. eigenvalues --  -10.08039 -10.07763 -10.07588 -10.07261  -0.96198
  Beta  occ. eigenvalues --   -0.90073  -0.83282  -0.75940  -0.72845  -0.70142
  Beta  occ. eigenvalues --   -0.68310  -0.65535  -0.65160  -0.63083  -0.61431
  Beta  occ. eigenvalues --   -0.59110  -0.53534  -0.53116  -0.51213  -0.47578
  Beta  occ. eigenvalues --   -0.46074  -0.45988  -0.44134  -0.42710  -0.42026
  Beta  occ. eigenvalues --   -0.40376  -0.39503  -0.39335  -0.37512  -0.36544
  Beta  occ. eigenvalues --   -0.35737  -0.34979  -0.34078  -0.33431  -0.32536
  Beta  occ. eigenvalues --   -0.31592  -0.30569  -0.30201  -0.29360  -0.28892
  Beta  occ. eigenvalues --   -0.27570  -0.27019  -0.24157  -0.21708  -0.20532
  Beta  occ. eigenvalues --   -0.19918  -0.19831  -0.19502  -0.18207  -0.15062
  Beta  occ. eigenvalues --   -0.12201  -0.10915
  Beta virt. eigenvalues --    0.05752   0.06262   0.06417   0.06833   0.07107
  Beta virt. eigenvalues --    0.07760   0.08202   0.08477   0.08928   0.09763
  Beta virt. eigenvalues --    0.10034   0.10175   0.10364   0.10520   0.10699

 Mulliken charges and spin densities:
               1          2
     1  C   -1.055907   0.503589
     2  C    2.517023  -1.919293
     3  C   -1.240267   0.598561
     4  N   -0.077552   0.023250
     5  C   -0.643359   0.129876
     6  C   -0.009065  -0.048276
     7  C    0.585761   0.057882
     8  C   -0.353216   0.054053
     9  N    0.335356   0.052098
    10  C   -0.761665   0.563729
    11  C    1.034448   0.054501
    12  C   -0.295320  -0.527336
    13  C    0.313263  -1.337197
    14  C    0.986405  -0.816535
    15  C   -1.089461   0.316748
    16  O   -0.269501   0.033430
    17  C   -0.522197   0.271265
    18  C    2.064192  -1.591214
    19  C   -0.906610   0.203392
    20  H   -0.577717   0.747466
    21  H    0.066255   0.095848
    22  H    0.017671   0.062249
    23  H    0.255580  -0.033306
    24  H    0.135105   0.069687
    25  H    0.113717   0.005179
    26  H    0.153401   0.002405
    27  H    0.067048   0.100729
    28  H   -0.005739   0.181398
    29  H    0.153805  -0.006459
    30  H   -0.894663   1.063955
    31  H    0.134534   0.008310
    32  H   -0.038992   0.307187
    33  H   -0.463513   0.659697
    34  H   -0.428440   0.642134
    35  H   -0.300378   0.471002
 Sum of Mulliken charges =  -1.00000   1.00000

 Dipole moment (field-independent basis, Debye):
    X=             -3.2393    Y=             -2.4126    Z=             -4.9797  Tot=              6.4118
 Quadrupole moment (field-independent basis, Debye-Ang):
   XX=           -201.7535   YY=           -174.1114   ZZ=           -143.6462
   XY=             17.1501   XZ=              2.1920   YZ=              1.0790

 Summary of Natural Population Analysis:

                                       Natural Population
                Natural  -----------------------------------------------
    Atom  No    Charge         Core      Valence    Rydberg      Total
 -----------------------------------------------------------------------
      C    1   -0.11693      0.99927     2.11432    0.00334     3.11693
      C    2   -0.00042      0.99937     1.99326    0.00779     3.00042
      C    3   -0.12983      0.99956     2.11878    0.01148     3.12983
      N    4   -0.33190      0.99975     2.82106    0.01109     3.83190
      C    5   -0.08312      0.99963     2.07317    0.01032     3.08312
      C    6   -0.20648      0.99960     2.19930    0.00758     3.20648
      C    7   -0.06345      0.99949     2.05292    0.01103     3.06345
      C    8    0.01265      0.99948     1.97596    0.01191     2.98735
      N    9   -0.20712      0.99961     2.69572    0.01179     3.70712
      C   10    0.07525      0.99947     1.91402    0.01126     2.92475
      C   11   -0.03282      0.99947     2.02395    0.00940     3.03282
      C   12   -0.12230      0.99949     2.11471    0.00811     3.12230
      C   13    0.14816      0.99940     1.83911    0.01333     2.85184
      C   14   -0.13172      0.99954     2.12178    0.01039     3.13172
      C   15   -0.10239      0.99953     2.09396    0.00890     3.10239
      O   16   -0.34596      0.99988     3.33939    0.00669     4.34596
      C   17   -0.12143      0.99955     2.10832    0.01356     3.12143
      C   18   -0.00363      0.99934     1.99608    0.00821     3.00363
      C   19   -0.11125      0.99926     2.10873    0.00326     3.11125
      H   20    0.11173      0.00000     0.38685    0.00142     0.38827
      H   21    0.10296      0.00000     0.39573    0.00131     0.39704
      H   22    0.09532      0.00000     0.40276    0.00192     0.40468
      H   23    0.17961      0.00000     0.31714    0.00325     0.32039
      H   24    0.09769      0.00000     0.40122    0.00110     0.40231
      H   25    0.08759      0.00000     0.41135    0.00106     0.41241
      H   26    0.10329      0.00000     0.39560    0.00111     0.39671
      H   27    0.09884      0.00000     0.40000    0.00116     0.40116
      H   28    0.10163      0.00000     0.39692    0.00145     0.39837
      H   29    0.10299      0.00000     0.39564    0.00137     0.39701
      H   30    0.10195      0.00000     0.39561    0.00244     0.39805
      H   31    0.10713      0.00000     0.39118    0.00169     0.39287
      H   32    0.23620      0.00000     0.25903    0.00477     0.26380
      H   33    0.11987      0.00000     0.37759    0.00254     0.38013
      H   34    0.11647      0.00000     0.38114    0.00239     0.38353
      H   35    0.11143      0.00000     0.38737    0.00120     0.38857
 =======================================================================
   * Total *   -0.00000     18.99067    47.79969    0.20963    67.00000

 Normal termination of Gaussian 16 at Mon Dec 14 18:28:18 2020.
