 Gaussian 16, Revision A.03,

 -----------------------------------------------------------
 # opt freq B3LYP/6-31G(d) empiricaldispersion=gd3bj scf=xqc
 -----------------------------------------------------------

 -------------------------------
 CID_151408922_JID_1236_neutraal
 -------------------------------
 Symbolic Z-matrix:
 Charge =  0 Multiplicity = 1

 SCF Done:  E(RB3LYP) =  -475.729499427     A.U. after   14 cycles
 SCF Done:  E(RB3LYP) =  -475.734802059     A.U. after   12 cycles
 SCF Done:  E(RB3LYP) =  -475.736591667     A.U. after   12 cycles
 SCF Done:  E(RB3LYP) =  -475.738168987     A.U. after   12 cycles
 SCF Done:  E(RB3LYP) =  -475.738584077     A.U. after   11 cycles
 SCF Done:  E(RB3LYP) =  -475.738651955     A.U. after   10 cycles
 SCF Done:  E(RB3LYP) =  -475.738660207     A.U. after   10 cycles
 SCF Done:  E(RB3LYP) =  -475.738666292     A.U. after    8 cycles
 SCF Done:  E(RB3LYP) =  -475.738671824     A.U. after    9 cycles
 SCF Done:  E(RB3LYP) =  -475.738674582     A.U. after    9 cycles
 SCF Done:  E(RB3LYP) =  -475.738677390     A.U. after    7 cycles
 SCF Done:  E(RB3LYP) =  -475.738677457     A.U. after    7 cycles
 SCF Done:  E(RB3LYP) =  -475.738677524     A.U. after    7 cycles
 SCF Done:  E(RB3LYP) =  -475.738677587     A.U. after    8 cycles
 SCF Done:  E(RB3LYP) =  -475.738677629     A.U. after    7 cycles
 Optimization completed.
    -- Stationary point found.

 1\1\GINC-NODE107\FOpt\RB3LYP\6-31G(d)\C8H11N3\VSC10255\08-Dec-2020\0\\
 # opt freq B3LYP/6-31G(d) empiricaldispersion=gd3bj scf=xqc\\CID_15140
 8922_JID_1236_neutraal\\0,1\C,1.0829048094,-0.0792314444,0.0373887512\
 C,0.53496288,-0.0531734933,1.4280737526\N,0.4232978193,1.090329598,2.1
 160199427\N,-0.05450167,0.7323603768,3.3201838978\C,-0.5802316475,1.69
 33788399,4.2723914108\C,-0.5150799846,1.0923325794,5.6849722388\C,-1.0
 135147241,-0.3349682375,5.7164774233\C,-0.883292606,-1.1317745223,4.63
 94900224\C,-0.3097377603,-0.6160904422,3.4176127939\C,0.0874286846,-1.

 Normal termination of Gaussian 16 at Tue Dec  8 19:33:47 2020.

 --------------------------------------------------------------------
 #N Geom=AllCheck Guess=TCheck SCRF=Check GenChk RB3LYP/6-31G(d) Freq
 --------------------------------------------------------------------

 Structure from the checkpoint file:  "JID_1236.chk"
 -------------------------------
 CID_151408922_JID_1236_neutraal
 -------------------------------
 Charge =  0 Multiplicity = 1

 SCF Done:  E(RB3LYP) =  -475.738677629     A.U. after    1 cycles

  Exact polarizability: 155.336  -2.150 101.414  -0.442  -0.609  54.885
 Approx polarizability: 237.139  -5.361 161.551   1.452  -3.135  83.519

                      1                      2                      3
                      A                      A                      A
 Frequencies --     97.9040               103.8592               128.8499
 Red. masses --      1.8742                 1.6696                 1.8017
 Frc consts  --      0.0106                 0.0106                 0.0176
 IR Inten    --      6.8889                 7.0946                 1.0412

                      4                      5                      6
                      A                      A                      A
 Frequencies --    166.6814               228.6146               239.7156
 Red. masses --      1.2103                 2.1597                 2.7801
 Frc consts  --      0.0198                 0.0665                 0.0941
 IR Inten    --     19.7678                 6.8643                 2.2881

                      7                      8                      9
                      A                      A                      A
 Frequencies --    247.6643               284.2758               333.8218
 Red. masses --      2.9134                 3.5355                 4.3246
 Frc consts  --      0.1053                 0.1683                 0.2839
 IR Inten    --      3.4484                 1.7385                 1.0415

                     10                     11                     12
                      A                      A                      A
 Frequencies --    432.6925               488.8144               533.0171
 Red. masses --      3.1343                 3.9716                 4.0742
 Frc consts  --      0.3457                 0.5591                 0.6820
 IR Inten    --      2.2349                 3.3418                 0.7752

                     13                     14                     15
                      A                      A                      A
 Frequencies --    556.1297               636.7731               652.3862
 Red. masses --      4.5314                 3.1875                 3.1940
 Frc consts  --      0.8257                 0.7615                 0.8009
 IR Inten    --      6.7553                17.0161                 1.9198

                     16                     17                     18
                      A                      A                      A
 Frequencies --    679.9493               685.3953               749.5226
 Red. masses --      3.4360                 3.0935                 1.8211
 Frc consts  --      0.9360                 0.8562                 0.6028
 IR Inten    --      4.3821                86.2236                86.6609

                     19                     20                     21
                      A                      A                      A
 Frequencies --    767.9203               807.5840               859.6048
 Red. masses --      2.0366                 2.1638                 3.5751
 Frc consts  --      0.7076                 0.8315                 1.5565
 IR Inten    --    166.5264                27.0350                 2.6460

                     22                     23                     24
                      A                      A                      A
 Frequencies --    900.0807               955.9780               965.8141
 Red. masses --      2.4983                 2.2663                 1.3991
 Frc consts  --      1.1925                 1.2203                 0.7689
 IR Inten    --     14.5665                 7.1266                 1.8601

                     25                     26                     27
                      A                      A                      A
 Frequencies --   1014.6761              1035.6836              1075.2958
 Red. masses --      1.7651                 1.8270                 1.6633
 Frc consts  --      1.0707                 1.1547                 1.1331
 IR Inten    --      4.0442                 5.4585                 6.4632

                     28                     29                     30
                      A                      A                      A
 Frequencies --   1077.3013              1143.4065              1186.3146
 Red. masses --      1.5690                 2.3879                 1.3362
 Frc consts  --      1.0729                 1.8393                 1.1080
 IR Inten    --      4.4527                12.4681                 0.7350

                     31                     32                     33
                      A                      A                      A
 Frequencies --   1214.7495              1240.7229              1259.4272
 Red. masses --      1.4117                 1.5983                 1.6613
 Frc consts  --      1.2274                 1.4497                 1.5526
 IR Inten    --      7.7108                 4.6814                 4.4005

                     34                     35                     36
                      A                      A                      A
 Frequencies --   1289.0545              1357.3735              1370.0158
 Red. masses --      2.1983                 2.1976                 1.8051
 Frc consts  --      2.1522                 2.3856                 1.9962
 IR Inten    --     22.8661                 3.7051                77.6618

                     37                     38                     39
                      A                      A                      A
 Frequencies --   1392.8479              1411.4679              1437.2318
 Red. masses --      2.4713                 2.0411                 1.2911
 Frc consts  --      2.8247                 2.3958                 1.5713
 IR Inten    --     47.1340                 8.8436                 2.1802

                     40                     41                     42
                      A                      A                      A
 Frequencies --   1452.3662              1499.9767              1507.1350
 Red. masses --      2.0013                 1.4336                 1.6306
 Frc consts  --      2.4872                 1.9004                 2.1822
 IR Inten    --     18.0541                16.2071                18.2383

                     43                     44                     45
                      A                      A                      A
 Frequencies --   1512.2622              1531.1247              1534.2458
 Red. masses --      1.0438                 1.2456                 1.4769
 Frc consts  --      1.4065                 1.7205                 2.0483
 IR Inten    --      6.7499                14.3212                25.2228

                     46                     47                     48
                      A                      A                      A
 Frequencies --   1551.2488              1631.7699              1688.4819
 Red. masses --      4.4228                 5.3665                 1.5986
 Frc consts  --      6.2706                 8.4190                 2.6853
 IR Inten    --     23.8740                20.1663                29.9509

                     49                     50                     51
                      A                      A                      A
 Frequencies --   1703.3586              3011.4354              3027.5458
 Red. masses --      2.6656                 1.0725                 1.0638
 Frc consts  --      4.5567                 5.7303                 5.7449
 IR Inten    --     60.2511                27.4696                70.0001

                     52                     53                     54
                      A                      A                      A
 Frequencies --   3028.4085              3076.5697              3088.3667
 Red. masses --      1.0493                 1.0967                 1.0916
 Frc consts  --      5.6699                 6.1159                 6.1347
 IR Inten    --     31.7475                25.6126                39.6510

                     55                     56                     57
                      A                      A                      A
 Frequencies --   3133.3767              3143.6401              3184.4861
 Red. masses --      1.0937                 1.0975                 1.0857
 Frc consts  --      6.3265                 6.3903                 6.4872
 IR Inten    --     16.3695                 8.7875                 3.3522

                     58                     59                     60
                      A                      A                      A
 Frequencies --   3205.4655              3517.5341              3611.1085
 Red. masses --      1.0969                 1.0486                 1.0958
 Frc consts  --      6.6402                 7.6443                 8.4193
 IR Inten    --     25.6336                 2.8811                 5.2994

 - Thermochemistry -
 -------------------
 Temperature   298.150 Kelvin.  Pressure   1.00000 Atm.
 Atom     1 has atomic number  6 and mass  12.00000

 Molecular mass:   149.09530 amu.
 Principal axes and moments of inertia in atomic units:
                           1         2         3
     Eigenvalues --   796.159182010.696142747.16180
           X            0.99998  -0.00541  -0.00250
           Y            0.00543   0.99996   0.00659
           Z            0.00247  -0.00660   0.99998
 This molecule is an asymmetric top.
 Rotational symmetry number  1.
 Warning -- assumption of classical behavior for rotation
           may cause significant error
 Rotational temperatures (Kelvin)      0.10879     0.04308     0.03153
 Rotational constants (GHZ):           2.26681     0.89757     0.65695
 Zero-point vibrational energy     488366.6 (Joules/Mol)
                                  116.72243 (Kcal/Mol)
 Warning -- explicit consideration of  13 degrees of freedom as
           vibrations may cause significant error
 Vibrational temperatures:    140.86   149.43   185.39   239.82   328.93
          (Kelvin)            344.90   356.33   409.01   480.30   622.55
                              703.29   766.89   800.15   916.17   938.64
                              978.30   986.13  1078.40  1104.87  1161.93
                             1236.78  1295.02  1375.44  1389.59  1459.89
                             1490.12  1547.11  1550.00  1645.11  1706.84
                             1747.75  1785.12  1812.03  1854.66  1952.96
                             1971.15  2004.00  2030.79  2067.86  2089.63
                             2158.13  2168.43  2175.81  2202.95  2207.44
                             2231.90  2347.75  2429.35  2450.75  4332.78
                             4355.96  4357.20  4426.50  4443.47  4508.23
                             4523.00  4581.77  4611.95  5060.95  5195.58

 Zero-point correction=                           0.186009 (Hartree/Particle)
 Thermal correction to Energy=                    0.196098
 Thermal correction to Enthalpy=                  0.197042
 Thermal correction to Gibbs Free Energy=         0.150823
 Sum of electronic and zero-point Energies=           -475.552669
 Sum of electronic and thermal Energies=              -475.542580
 Sum of electronic and thermal Enthalpies=            -475.541636
 Sum of electronic and thermal Free Energies=         -475.587855

                     E (Thermal)             CV                S
                      KCal/Mol        Cal/Mol-Kelvin    Cal/Mol-Kelvin
 Total                  123.053             38.513             97.276
 Electronic               0.000              0.000              0.000
 Translational            0.889              2.981             40.909
 Rotational               0.889              2.981             29.865
 Vibrational            121.276             32.551             26.502
 Vibration     1          0.603              1.951              3.496
 Vibration     2          0.605              1.946              3.381
 Vibration     3          0.611              1.924              2.963
 Vibration     4          0.624              1.883              2.473
 Vibration     5          0.651              1.797              1.890
 Vibration     6          0.657              1.780              1.805
 Vibration     7          0.661              1.767              1.747
 Vibration     8          0.683              1.703              1.508
 Vibration     9          0.715              1.608              1.242
 Vibration    10          0.794              1.399              0.850
 Vibration    11          0.845              1.275              0.687
 Vibration    12          0.888              1.177              0.581
 Vibration    13          0.912              1.126              0.532

 Optimization completed.
    -- Stationary point found.

 1\1\GINC-NODE107\Freq\RB3LYP\6-31G(d)\C8H11N3\VSC10255\08-Dec-2020\0\\
 #N Geom=AllCheck Guess=TCheck SCRF=Check GenChk RB3LYP/6-31G(d) Freq\\
 CID_151408922_JID_1236_neutraal\\0,1\C,1.0829048094,-0.0792314444,0.03
 73887512\C,0.53496288,-0.0531734933,1.4280737526\N,0.4232978193,1.0903
 29598,2.1160199427\N,-0.05450167,0.7323603768,3.3201838978\C,-0.580231
 6475,1.6933788399,4.2723914108\C,-0.5150799846,1.0923325794,5.68497223
 88\C,-1.0135147241,-0.3349682375,5.7164774233\C,-0.883292606,-1.131774
 5223,4.6394900224\C,-0.3097377603,-0.6160904422,3.4176127939\C,0.08742

 Normal termination of Gaussian 16 at Tue Dec  8 19:38:15 2020.

 ----------------------------------------------------------------------
 # B3LYP/6-311++G(d,p) empiricaldispersion=gd3bj scf=xqc pop=npa geom=c
 heck
 ----------------------------------------------------------------------

 ---------------------------------------
 CID_151408922_JID_1236_Energie_neutraal
 ---------------------------------------
 Structure from the checkpoint file:  "JID_1236.chk"
 Charge =  0 Multiplicity = 1

 SCF Done:  E(RB3LYP) =  -475.871152852     A.U. after   15 cycles
 Normal termination of Gaussian 16 at Tue Dec  8 19:40:15 2020.

 ----------------------------------------------------------------------
 # B3LYP/6-311++G(d,p) empiricaldispersion=gd3bj scf=xqc pop=npa geom=c
 heck
 ----------------------------------------------------------------------

 -------------------------------------
 CID_151408922_JID_1236_Energie_kation
 -------------------------------------
 Structure from the checkpoint file:  "JID_1236.chk"
 Charge =  1 Multiplicity = 2

 SCF Done:  E(UB3LYP) =  -475.605209450     A.U. after   22 cycles
 Normal termination of Gaussian 16 at Tue Dec  8 19:44:21 2020.
 Gaussian 16:  ES64L-G16RevA.03 25-Dec-2016

 ------------------------------------
 CID_151408922_JID_1236_Energie_anion
 ------------------------------------
 Structure from the checkpoint file:  "JID_1236.chk"
 Charge = -1 Multiplicity = 2

                         Standard orientation:
 ---------------------------------------------------------------------
 Center     Atomic      Atomic             Coordinates (Angstroms)
 Number     Number       Type             X           Y           Z
 ---------------------------------------------------------------------
      1          6           0       -3.160009   -0.935906    0.069142
      2          6           0       -1.715673   -0.553897    0.015401
      3          7           0       -0.746199   -1.477702    0.008782
      4          7           0        0.403845   -0.782140    0.002618
      5          6           0        1.688664   -1.393971   -0.282952
      6          6           0        2.805904   -0.525863    0.316253
      7          6           0        2.600106    0.943295    0.023268
      8          6           0        1.360574    1.447586   -0.121680
      9          6           0        0.208274    0.578728   -0.049789
     10          6           0       -1.171774    0.758818   -0.020687
     11          7           0       -1.896713    1.960169   -0.072506
     12          1           0       -3.253774   -2.024786    0.073137
     13          1           0       -3.712017   -0.544138   -0.794715
     14          1           0       -3.653886   -0.551466    0.972874
     15          1           0        1.817813   -1.477458   -1.371721
     16          1           0        1.684171   -2.401387    0.138461
     17          1           0        3.770176   -0.871139   -0.073052
     18          1           0        2.836964   -0.678085    1.406384
     19          1           0        3.470575    1.591201   -0.022097
     20          1           0        1.199301    2.506878   -0.302928
     21          1           0       -2.795070    1.887570    0.394009
     22          1           0       -1.387181    2.747785    0.313652
 ---------------------------------------------------------------------

 SCF Done:  E(UB3LYP) =  -475.858591891     A.U. after   33 cycles
 SCF Done:  E(UB3LYP) =  -475.858591891     a.u. after    1 cycles

 The electronic state is 2-A.
 Alpha  occ. eigenvalues --  -14.25738 -14.20846 -14.19789 -10.10545 -10.08205
 Alpha  occ. eigenvalues --  -10.08116 -10.07534 -10.07397 -10.06216 -10.06134
 Alpha  occ. eigenvalues --  -10.05811  -0.93032  -0.79139  -0.75112  -0.68205
 Alpha  occ. eigenvalues --   -0.66484  -0.62155  -0.58844  -0.52597  -0.48809
 Alpha  occ. eigenvalues --   -0.46515  -0.41811  -0.40213  -0.37855  -0.36051
 Alpha  occ. eigenvalues --   -0.34549  -0.34002  -0.32703  -0.31722  -0.29820
 Alpha  occ. eigenvalues --   -0.28796  -0.27126  -0.26552  -0.25753  -0.23383
 Alpha  occ. eigenvalues --   -0.20899  -0.18388  -0.17713  -0.10913  -0.08036
 Alpha  occ. eigenvalues --    0.04721
 Alpha virt. eigenvalues --    0.06692   0.07677   0.08047   0.09114   0.09660
 Alpha virt. eigenvalues --    0.10053   0.11246   0.11515   0.12043   0.12628
 Alpha virt. eigenvalues --    0.14556   0.14627   0.15569   0.16659   0.17200

  Beta  occ. eigenvalues --  -14.25689 -14.20809 -14.19717 -10.10536 -10.08184
  Beta  occ. eigenvalues --  -10.08114 -10.07545 -10.07384 -10.06167 -10.06108
  Beta  occ. eigenvalues --  -10.05722  -0.92965  -0.79040  -0.75045  -0.68099
  Beta  occ. eigenvalues --   -0.66426  -0.62073  -0.58772  -0.52504  -0.48683
  Beta  occ. eigenvalues --   -0.46464  -0.41719  -0.40126  -0.37754  -0.35954
  Beta  occ. eigenvalues --   -0.34456  -0.33925  -0.32647  -0.31678  -0.29745
  Beta  occ. eigenvalues --   -0.28750  -0.27045  -0.26508  -0.25683  -0.23313
  Beta  occ. eigenvalues --   -0.20780  -0.18143  -0.17629  -0.10712  -0.07833
  Beta virt. eigenvalues --    0.07167   0.07732   0.08235   0.08741   0.09766
  Beta virt. eigenvalues --    0.09890   0.10648   0.11521   0.11828   0.12531
  Beta virt. eigenvalues --    0.13060   0.14543   0.15309   0.15698   0.16770

 Mulliken charges and spin densities:
               1          2
     1  C   -0.078515  -0.679890
     2  C   -0.094715   0.217093
     3  N   -0.016793   0.067190
     4  N    0.066582   0.100402
     5  C   -0.259755  -0.079032
     6  C    0.855233  -1.405022
     7  C    0.516309  -0.577248
     8  C   -0.000300  -0.460003
     9  C   -0.582496   1.150385
    10  C    0.924128  -1.188249
    11  N   -0.284301  -0.074144
    12  H    0.091020   0.056746
    13  H   -0.077654   0.230432
    14  H   -0.278059   0.424724
    15  H    0.092937   0.050949
    16  H    0.024023   0.146896
    17  H   -0.236528   0.378383
    18  H   -0.128035   0.278548
    19  H   -0.430650   0.605469
    20  H   -0.383102   0.525866
    21  H   -0.255142   0.512891
    22  H   -0.464185   0.717614
 Sum of Mulliken charges =  -1.00000   1.00000

 Dipole moment (field-independent basis, Debye):
    X=              1.2061    Y=             -4.5394    Z=             -1.5959  Tot=              4.9606
 Quadrupole moment (field-independent basis, Debye-Ang):
   XX=           -121.2304   YY=           -110.4462   ZZ=            -89.4473
   XY=              5.4293   XZ=              2.9758   YZ=             -1.0207

 Summary of Natural Population Analysis:

                                       Natural Population
                Natural  -----------------------------------------------
    Atom  No    Charge         Core      Valence    Rydberg      Total
 -----------------------------------------------------------------------
      C    1   -0.30051      0.99964     2.29503    0.00585     3.30051
      C    2    0.05092      0.99955     1.93484    0.01469     2.94908
      N    3   -0.15085      0.99970     2.64016    0.01100     3.65085
      N    4   -0.10333      0.99962     2.59145    0.01227     3.60333
      C    5   -0.07536      0.99962     2.06463    0.01111     3.07536
      C    6   -0.21398      0.99962     2.20485    0.00950     3.21398
      C    7   -0.07729      0.99956     2.06753    0.01020     3.07729
      C    8   -0.10838      0.99951     2.09908    0.00979     3.10838
      C    9    0.04053      0.99948     1.94655    0.01344     2.95947
      C   10    0.05029      0.99938     1.93796    0.01237     2.94971
      N   11   -0.40094      0.99972     2.89024    0.01097     3.90094
      H   12    0.10691      0.00000     0.39212    0.00096     0.39309
      H   13    0.10199      0.00000     0.39695    0.00106     0.39801
      H   14    0.10193      0.00000     0.39666    0.00141     0.39807
      H   15    0.08933      0.00000     0.40939    0.00129     0.41067
      H   16    0.10407      0.00000     0.39444    0.00149     0.39593
      H   17    0.10287      0.00000     0.39589    0.00124     0.39713
      H   18    0.10401      0.00000     0.39420    0.00179     0.39599
      H   19    0.09639      0.00000     0.40236    0.00125     0.40361
      H   20    0.10627      0.00000     0.39230    0.00142     0.39373
      H   21    0.18647      0.00000     0.30809    0.00544     0.31353
      H   22    0.18867      0.00000     0.30441    0.00692     0.31133
 =======================================================================
   * Total *   -0.00000     10.99541    28.85912    0.14547    40.00000

 Normal termination of Gaussian 16 at Tue Dec  8 19:51:07 2020.
