 Gaussian 16, Revision A.03,

 -----------------------------------------------------------
 # opt freq B3LYP/6-31G(d) empiricaldispersion=gd3bj scf=xqc
 -----------------------------------------------------------

 ----------------------------
 CID_67132144_JID_12_neutraal
 ----------------------------
 Symbolic Z-matrix:
 Charge =  0 Multiplicity = 1

 SCF Done:  E(RB3LYP) =  -422.826831219     A.U. after   15 cycles
 SCF Done:  E(RB3LYP) =  -422.839468998     A.U. after   14 cycles
 SCF Done:  E(RB3LYP) =  -422.840665157     A.U. after   13 cycles
 SCF Done:  E(RB3LYP) =  -422.838627360     A.U. after   14 cycles
 SCF Done:  E(RB3LYP) =  -422.840978391     A.U. after   13 cycles
 SCF Done:  E(RB3LYP) =  -422.841041706     A.U. after   12 cycles
 SCF Done:  E(RB3LYP) =  -422.841064854     A.U. after   12 cycles
 SCF Done:  E(RB3LYP) =  -422.841069505     A.U. after   12 cycles
 SCF Done:  E(RB3LYP) =  -422.841070701     A.U. after   10 cycles
 Optimization completed.
    -- Stationary point found.
 Normal termination of Gaussian 16 at Tue Dec  8 10:14:31 2020.

 --------------------------------------------------------------------
 #N Geom=AllCheck Guess=TCheck SCRF=Check GenChk RB3LYP/6-31G(d) Freq
 --------------------------------------------------------------------

 Structure from the checkpoint file:  "JID_12.chk"
 ----------------------------
 CID_67132144_JID_12_neutraal
 ----------------------------
 Charge =  0 Multiplicity = 1

 SCF Done:  E(RB3LYP) =  -422.841070701     A.U. after    1 cycles

  Exact polarizability:  77.126  -0.000 100.501   0.017   0.000  87.412
 Approx polarizability: 122.770   0.000 253.627   0.107   0.003 151.584

                      1                      2                      3
                      A                      A                      A
 Frequencies --     65.2604               261.1105               312.0637
 Red. masses --      4.5088                 2.1565                 6.1822
 Frc consts  --      0.0113                 0.0866                 0.3547
 IR Inten    --      7.4912                 0.0001                23.3002

                      4                      5                      6
                      A                      A                      A
 Frequencies --    325.9793               380.6702               452.6312
 Red. masses --      1.7807                 4.0263                 6.6392
 Frc consts  --      0.1115                 0.3438                 0.8014
 IR Inten    --      0.4268                 0.5472                 4.7063

                      7                      8                      9
                      A                      A                      A
 Frequencies --    454.5995               515.6265               562.2828
 Red. masses --      2.6483                 2.1976                 1.7812
 Frc consts  --      0.3225                 0.3442                 0.3318
 IR Inten    --      0.0265                 0.6058                 0.0285

                     10                     11                     12
                      A                      A                      A
 Frequencies --    566.6093               585.9078               604.9907
 Red. masses --      3.5947                 5.0026                 4.7837
 Frc consts  --      0.6799                 1.0118                 1.0316
 IR Inten    --      0.0010                 0.0479                 2.0960

                     13                     14                     15
                      A                      A                      A
 Frequencies --    611.3109               724.6015               750.2900
 Red. masses --      6.2673                 3.7077                 2.9845
 Frc consts  --      1.3799                 1.1470                 0.9899
 IR Inten    --    171.4631                 6.3319                19.7039

                     16                     17                     18
                      A                      A                      A
 Frequencies --    810.1169               838.2835               907.4742
 Red. masses --      2.1478                 1.5235                 3.9381
 Frc consts  --      0.8305                 0.6308                 1.9108
 IR Inten    --     60.5482                 0.0000                41.7010

                     19                     20                     21
                      A                      A                      A
 Frequencies --    919.9435               927.9508               968.0948
 Red. masses --      1.9386                 1.4874                 3.2329
 Frc consts  --      0.9666                 0.7546                 1.7851
 IR Inten    --     10.0243                 0.0013                 0.1002

                     22                     23                     24
                      A                      A                      A
 Frequencies --    970.0524               983.6409              1130.2787
 Red. masses --      2.1721                 2.9545                 1.3838
 Frc consts  --      1.2043                 1.6843                 1.0416
 IR Inten    --      0.0328                79.8537                 2.1090

                     25                     26                     27
                      A                      A                      A
 Frequencies --   1130.8329              1142.8551              1143.8352
 Red. masses --      2.8058                 1.0626                 2.6083
 Frc consts  --      2.1140                 0.8177                 2.0106
 IR Inten    --     23.9010                 0.0079                 0.7899

                     28                     29                     30
                      A                      A                      A
 Frequencies --   1202.8843              1209.1535              1273.9068
 Red. masses --      1.5717                 1.2220                 1.2643
 Frc consts  --      1.3399                 1.0526                 1.2088
 IR Inten    --      0.8770                 1.1239                 0.2781

                     31                     32                     33
                      A                      A                      A
 Frequencies --   1296.3366              1308.8834              1310.6624
 Red. masses --      1.3163                 1.2550                 4.8817
 Frc consts  --      1.3033                 1.2668                 4.9409
 IR Inten    --     10.5700                 0.0000                 4.7028

                     34                     35                     36
                      A                      A                      A
 Frequencies --   1403.2683              1461.0309              1469.0218
 Red. masses --      2.5953                 1.4068                 1.0928
 Frc consts  --      3.0110                 1.7693                 1.3895
 IR Inten    --      2.1163                 2.7828                 0.0408

                     37                     38                     39
                      A                      A                      A
 Frequencies --   1476.4868              1531.3799              1544.8008
 Red. masses --      1.4332                 5.5910                 5.1645
 Frc consts  --      1.8409                 7.7252                 7.2614
 IR Inten    --      2.2250                 0.0015                 0.0211

                     40                     41                     42
                      A                      A                      A
 Frequencies --   1790.8608              3049.5045              3051.7099
 Red. masses --     12.6260                 1.0574                 1.0577
 Frc consts  --     23.8583                 5.7934                 5.8038
 IR Inten    --    141.3217                31.2737                32.7935

                     43                     44                     45
                      A                      A                      A
 Frequencies --   3101.8659              3102.4149              3164.6389
 Red. masses --      1.1048                 1.1058                 1.0841
 Frc consts  --      6.2631                 6.2710                 6.3969
 IR Inten    --      0.0000                15.4147                14.9490

                     46                     47                     48
                      A                      A                      A
 Frequencies --   3166.7751              3182.9268              3185.4428
 Red. masses --      1.0843                 1.0923                 1.0939
 Frc consts  --      6.4068                 6.5200                 6.5401
 IR Inten    --      0.1505                13.0897                 2.6991

 - Thermochemistry -
 -------------------
 Temperature   298.150 Kelvin.  Pressure   1.00000 Atm.
 Atom     1 has atomic number  6 and mass  12.00000

 Molecular mass:   132.05751 amu.
 Principal axes and moments of inertia in atomic units:
                           1         2         3
     Eigenvalues --   813.481731196.577611362.07763
           X            1.00000  -0.00000  -0.00011
           Y            0.00000   1.00000  -0.00001
           Z            0.00011   0.00001   1.00000
 This molecule is an asymmetric top.
 Rotational symmetry number  1.
 Warning -- assumption of classical behavior for rotation
           may cause significant error
 Rotational temperatures (Kelvin)      0.10647     0.07238     0.06359
 Rotational constants (GHZ):           2.21854     1.50825     1.32499
 Zero-point vibrational energy     372823.7 (Joules/Mol)
                                   89.10699 (Kcal/Mol)
 Warning -- explicit consideration of  13 degrees of freedom as
           vibrations may cause significant error
 Vibrational temperatures:     93.90   375.68   448.99   469.01   547.70
          (Kelvin)            651.24   654.07   741.87   809.00   815.22
                              842.99   870.45   879.54  1042.54  1079.50
                             1165.58  1206.10  1305.65  1323.59  1335.11
                             1392.87  1395.69  1415.24  1626.22  1627.02
                             1644.31  1645.72  1730.68  1739.70  1832.87
                             1865.14  1883.19  1885.75  2018.99  2102.10
                             2113.59  2124.34  2203.31  2222.62  2576.65
                             4387.56  4390.73  4462.89  4463.68  4553.21
                             4556.28  4579.52  4583.14

 Zero-point correction=                           0.142001 (Hartree/Particle)
 Thermal correction to Energy=                    0.149617
 Thermal correction to Enthalpy=                  0.150562
 Thermal correction to Gibbs Free Energy=         0.109939
 Sum of electronic and zero-point Energies=           -422.699070
 Sum of electronic and thermal Energies=              -422.691453
 Sum of electronic and thermal Enthalpies=            -422.690509
 Sum of electronic and thermal Free Energies=         -422.731131

                     E (Thermal)             CV                S
                      KCal/Mol        Cal/Mol-Kelvin    Cal/Mol-Kelvin
 Total                   93.886             31.593             85.497
 Electronic               0.000              0.000              0.000
 Translational            0.889              2.981             40.547
 Rotational               0.889              2.981             28.674
 Vibrational             92.109             25.631             16.276
 Vibration     1          0.597              1.971              4.291
 Vibration     2          0.669              1.744              1.654
 Vibration     3          0.700              1.651              1.351
 Vibration     4          0.710              1.624              1.280
 Vibration     5          0.750              1.511              1.036
 Vibration     6          0.811              1.355              0.788
 Vibration     7          0.813              1.351              0.782
 Vibration     8          0.871              1.215              0.620
 Vibration     9          0.918              1.113              0.519
 Vibration    10          0.923              1.103              0.511
 Vibration    11          0.943              1.062              0.475
 Vibration    12          0.964              1.021              0.441
 Vibration    13          0.970              1.008              0.431

                           ! Non-Optimized Parameters !
 Normal termination of Gaussian 16 at Tue Dec  8 10:17:52 2020.

 ----------------------------------------------------------------------
 # B3LYP/6-311++G(d,p) empiricaldispersion=gd3bj scf=xqc pop=npa geom=c
 heck
 ----------------------------------------------------------------------

 ------------------------------------
 CID_67132144_JID_12_Energie_neutraal
 ------------------------------------
 Structure from the checkpoint file:  "JID_12.chk"
 Charge =  0 Multiplicity = 1

 SCF Done:  E(RB3LYP) =  -422.958086648     A.U. after   14 cycles
 Normal termination of Gaussian 16 at Tue Dec  8 10:18:40 2020.

 ----------------------------------------------------------------------
 # B3LYP/6-311++G(d,p) empiricaldispersion=gd3bj scf=xqc pop=npa geom=c
 heck
 ----------------------------------------------------------------------

 ----------------------------------
 CID_67132144_JID_12_Energie_kation
 ----------------------------------
 Structure from the checkpoint file:  "JID_12.chk"
 Charge =  1 Multiplicity = 2

 SCF Done:  E(UB3LYP) =  -422.689328752     A.U. after   19 cycles
 Normal termination of Gaussian 16 at Tue Dec  8 10:22:12 2020.
 Gaussian 16:  ES64L-G16RevA.03 25-Dec-2016

 ----------------------------------------------------------------------
 # B3LYP/6-311++G(d,p) empiricaldispersion=gd3bj scf=xqc pop=npa geom=c
 heck
 ----------------------------------------------------------------------

 ---------------------------------
 CID_67132144_JID_12_Energie_anion
 ---------------------------------
 Structure from the checkpoint file:  "JID_12.chk"
 Charge = -1 Multiplicity = 2

                         Standard orientation:
 ---------------------------------------------------------------------
 Center     Atomic      Atomic             Coordinates (Angstroms)
 Number     Number       Type             X           Y           Z
 ---------------------------------------------------------------------
      1          6           0        0.739069    1.451156   -0.000243
      2          6           0        1.420197   -0.000000    0.000124
      3          8           0        2.635511    0.000000    0.000710
      4          6           0        0.739069   -1.451156   -0.000284
      5          6           0       -0.792520   -1.322994   -0.000391
      6          6           0       -1.214330   -0.695864   -1.197529
      7          6           0       -1.214346    0.695935   -1.197487
      8          6           0       -0.792520    1.322994   -0.000320
      9          6           0       -1.214074    0.695318    1.197777
     10          6           0       -1.214089   -0.695389    1.197735
     11          1           0        1.140815    1.961112    0.883715
     12          1           0        1.141129    1.960613   -0.884344
     13          1           0        1.141143   -1.960597   -0.884386
     14          1           0        1.140803   -1.961126    0.883672
     15          1           0       -1.094841   -1.198321   -2.155610
     16          1           0       -1.094866    1.198451   -2.155538
     17          1           0       -1.098491    1.199696    2.155295
     18          1           0       -1.098515   -1.199825    2.155222
 ---------------------------------------------------------------------

 SCF Done:  E(UB3LYP) =  -422.993468237     A.U. after   21 cycles

 The electronic state is 2-A.
 Alpha  occ. eigenvalues --  -18.97306 -10.12002 -10.04189 -10.04188 -10.00883
 Alpha  occ. eigenvalues --  -10.00880 -10.00826 -10.00823  -9.98610  -9.98606
 Alpha  occ. eigenvalues --   -0.90667  -0.71377  -0.62002  -0.58861  -0.57984
 Alpha  occ. eigenvalues --   -0.50550  -0.43403  -0.42710  -0.38863  -0.32421
 Alpha  occ. eigenvalues --   -0.31522  -0.31219  -0.30424  -0.28353  -0.26513
 Alpha  occ. eigenvalues --   -0.26362  -0.25845  -0.23250  -0.22590  -0.20042
 Alpha  occ. eigenvalues --   -0.17047  -0.12303  -0.11721  -0.09428  -0.03189
 Alpha  occ. eigenvalues --    0.02773
 Alpha virt. eigenvalues --    0.09987   0.10566   0.11287   0.11365   0.12633
 Alpha virt. eigenvalues --    0.12842   0.13918   0.14177   0.14629   0.15745
 Alpha virt. eigenvalues --    0.15945   0.16065   0.17556   0.18636   0.18991

  Beta  occ. eigenvalues --  -18.97287 -10.11871 -10.04144 -10.04143 -10.00846
  Beta  occ. eigenvalues --  -10.00843 -10.00791 -10.00788  -9.97986  -9.97981
  Beta  occ. eigenvalues --   -0.90583  -0.70723  -0.61358  -0.58397  -0.57730
  Beta  occ. eigenvalues --   -0.50209  -0.43257  -0.41807  -0.38594  -0.32257
  Beta  occ. eigenvalues --   -0.31100  -0.30834  -0.29846  -0.28131  -0.26451
  Beta  occ. eigenvalues --   -0.26091  -0.25454  -0.22463  -0.22138  -0.19966
  Beta  occ. eigenvalues --   -0.16711  -0.11685  -0.11224  -0.08968   0.00273
  Beta virt. eigenvalues --    0.09734   0.10241   0.10599   0.11270   0.11543
  Beta virt. eigenvalues --    0.12801   0.13049   0.14080   0.14167   0.14676
  Beta virt. eigenvalues --    0.15911   0.15975   0.16807   0.17542   0.18937

 Mulliken charges and spin densities:
               1          2
     1  C   -0.396104  -0.093542
     2  C   -0.149738   0.141115
     3  O   -0.281650  -0.003906
     4  C   -0.396104  -0.093542
     5  C    0.666291   0.488706
     6  C   -0.501394  -0.021760
     7  C   -0.501427  -0.021744
     8  C    0.666292   0.488708
     9  C   -0.501618  -0.021901
    10  C   -0.501650  -0.021885
    11  H    0.145958   0.003092
    12  H    0.146075   0.003066
    13  H    0.146077   0.003067
    14  H    0.145956   0.003091
    15  H    0.078079   0.036930
    16  H    0.078078   0.036927
    17  H    0.078440   0.036791
    18  H    0.078440   0.036788
 Sum of Mulliken charges =  -1.00000   1.00000

 Dipole moment (field-independent basis, Debye):
    X=              1.9196    Y=              0.0000    Z=              0.0054  Tot=              1.9196
 Quadrupole moment (field-independent basis, Debye-Ang):
   XX=            -91.3970   YY=            -76.9564   ZZ=            -66.1997
   XY=             -0.0000   XZ=             -0.0308   YZ=             -0.0003

 Summary of Natural Population Analysis:

                                       Natural Population
                Natural  -----------------------------------------------
    Atom  No    Charge         Core      Valence    Rydberg      Total
 -----------------------------------------------------------------------
      C    1   -0.23519      0.99955     2.22524    0.01041     3.23519
      C    2    0.32176      0.99971     1.65671    0.02182     2.67824
      O    3   -0.31743      0.99987     3.30598    0.01158     4.31743
      C    4   -0.23519      0.99955     2.22524    0.01041     3.23519
      C    5    0.06539      0.99927     1.91236    0.02299     2.93461
      C    6   -0.11245      0.99947     2.09975    0.01323     3.11245
      C    7   -0.11245      0.99947     2.09975    0.01323     3.11245
      C    8    0.06539      0.99927     1.91236    0.02299     2.93461
      C    9   -0.11247      0.99947     2.09979    0.01322     3.11247
      C   10   -0.11247      0.99947     2.09978    0.01322     3.11247
      H   11    0.10100      0.00000     0.39731    0.00168     0.39900
      H   12    0.10103      0.00000     0.39729    0.00168     0.39897
      H   13    0.10103      0.00000     0.39729    0.00168     0.39897
      H   14    0.10100      0.00000     0.39731    0.00168     0.39900
      H   15    0.09523      0.00000     0.40339    0.00139     0.40477
      H   16    0.09522      0.00000     0.40339    0.00139     0.40478
      H   17    0.09529      0.00000     0.40332    0.00138     0.40471
      H   18    0.09529      0.00000     0.40332    0.00138     0.40471
 =======================================================================
   * Total *   -0.00000      9.99506    24.83958    0.16536    35.00000

 Normal termination of Gaussian 16 at Tue Dec  8 10:24:04 2020.
