 Gaussian 16, Revision A.03,

 -----------------------------------------------------------
 # opt freq B3LYP/6-31G(d) empiricaldispersion=gd3bj scf=xqc
 -----------------------------------------------------------

 ------------------------------
 CID_139694976_JID_869_neutraal
 ------------------------------
 Symbolic Z-matrix:
 Charge =  0 Multiplicity = 1

 SCF Done:  E(RB3LYP) =  -537.784089683     A.U. after   13 cycles
 SCF Done:  E(RB3LYP) =  -537.789539761     A.U. after   12 cycles
 SCF Done:  E(RB3LYP) =  -537.787260216     A.U. after   13 cycles
 SCF Done:  E(RB3LYP) =  -537.790985205     A.U. after   12 cycles
 SCF Done:  E(RB3LYP) =  -537.790263694     A.U. after   13 cycles
 SCF Done:  E(RB3LYP) =  -537.788284035     A.U. after   12 cycles
 SCF Done:  E(RB3LYP) =  -537.789070494     A.U. after   12 cycles
 SCF Done:  E(RB3LYP) =  -537.791143025     A.U. after   10 cycles
 SCF Done:  E(RB3LYP) =  -537.791648984     A.U. after   12 cycles
 SCF Done:  E(RB3LYP) =  -537.791216802     A.U. after   12 cycles
 SCF Done:  E(RB3LYP) =  -537.792098136     A.U. after   10 cycles
 SCF Done:  E(RB3LYP) =  -537.792099154     A.U. after    9 cycles
 SCF Done:  E(RB3LYP) =  -537.792100839     A.U. after    9 cycles
 SCF Done:  E(RB3LYP) =  -537.792101132     A.U. after    7 cycles
 SCF Done:  E(RB3LYP) =  -537.792101212     A.U. after    7 cycles
 SCF Done:  E(RB3LYP) =  -537.792101241     A.U. after    6 cycles
 Optimization completed.
    -- Stationary point found.

 1\1\GINC-NODE375\FOpt\RB3LYP\6-31G(d)\C6H14O4\VSC10255\08-Dec-2020\0\\
 # opt freq B3LYP/6-31G(d) empiricaldispersion=gd3bj scf=xqc\\CID_13969
 4976_JID_869_neutraal\\0,1\C,1.3847167826,0.2798025178,0.0534439541\C,
 1.0470387046,-1.15694663,0.4270273596\O,0.9983931108,-1.3991735475,1.8
 267631462\O,2.377854335,-1.2798601461,2.3079054806\C,2.3100632689,-0.7
 808946915,3.6321084629\C,2.1027230824,0.7348516161,3.7810063836\O,0.81
 35533234,1.1566863094,4.1898644545\O,-0.0394539587,1.1348114565,2.9980
 021488\C,-1.3464065959,0.813047559,3.4547832718\C,-1.4943309547,-0.611

 Normal termination of Gaussian 16 at Tue Dec  8 13:27:00 2020.

 --------------------------------------------------------------------
 #N Geom=AllCheck Guess=TCheck SCRF=Check GenChk RB3LYP/6-31G(d) Freq
 --------------------------------------------------------------------

 Structure from the checkpoint file:  "JID_869.chk"
 ------------------------------
 CID_139694976_JID_869_neutraal
 ------------------------------
 Charge =  0 Multiplicity = 1

 SCF Done:  E(RB3LYP) =  -537.792101241     A.U. after    1 cycles

  Exact polarizability:  83.046   0.001  95.850  -3.014   0.000  69.216
 Approx polarizability: 107.421   0.001 135.741  -4.193   0.000  92.523

                      1                      2                      3
                      A                      A                      A
 Frequencies --     40.1341                79.7905                79.8548
 Red. masses --      3.7327                 2.3918                 4.0928
 Frc consts  --      0.0035                 0.0090                 0.0154
 IR Inten    --      0.0273                 1.2118                 0.1044

                      4                      5                      6
                      A                      A                      A
 Frequencies --     87.8684                95.8209               160.8649
 Red. masses --      4.0642                 2.6742                 2.7417
 Frc consts  --      0.0185                 0.0145                 0.0418
 IR Inten    --      5.3732                 0.0940                 0.4028

                      7                      8                      9
                      A                      A                      A
 Frequencies --    169.3052               218.4422               228.4271
 Red. masses --      2.6306                 1.8632                 1.3932
 Frc consts  --      0.0444                 0.0524                 0.0428
 IR Inten    --      5.9207                 1.6396                 2.5805

                     10                     11                     12
                      A                      A                      A
 Frequencies --    275.0195               299.9237               361.0276
 Red. masses --      1.6214                 1.6890                 3.4771
 Frc consts  --      0.0723                 0.0895                 0.2670
 IR Inten    --      3.1015                 8.6328                21.3720

                     13                     14                     15
                      A                      A                      A
 Frequencies --    362.8668               458.1260               461.5785
 Red. masses --      2.8584                 4.6830                 2.3844
 Frc consts  --      0.2218                 0.5791                 0.2993
 IR Inten    --      0.0464                 0.3637                 1.6161

                     16                     17                     18
                      A                      A                      A
 Frequencies --    512.5982               519.5186               753.7743
 Red. masses --      2.3676                 3.4973                 2.2908
 Frc consts  --      0.3665                 0.5561                 0.7669
 IR Inten    --      1.0001                 0.0443                 1.4744

                     19                     20                     21
                      A                      A                      A
 Frequencies --    794.4775               816.5786               854.4604
 Red. masses --      1.4446                 1.2568                 2.3203
 Frc consts  --      0.5372                 0.4938                 0.9981
 IR Inten    --      1.5222                 0.0205                 0.5456

                     22                     23                     24
                      A                      A                      A
 Frequencies --    893.2621               908.3200               919.2151
 Red. masses --      2.8484                 2.5466                 3.1419
 Frc consts  --      1.3391                 1.2379                 1.5642
 IR Inten    --      9.2265                 9.7063                 0.0345

                     25                     26                     27
                      A                      A                      A
 Frequencies --   1021.5229              1061.3658              1075.7325
 Red. masses --      2.7280                 3.1477                 3.6784
 Frc consts  --      1.6773                 2.0892                 2.5080
 IR Inten    --     50.1925                 0.2049                26.8030

                     28                     29                     30
                      A                      A                      A
 Frequencies --   1077.6454              1082.4474              1123.1486
 Red. masses --      4.4555                 3.1372                 2.7139
 Frc consts  --      3.0486                 2.1657                 2.0171
 IR Inten    --     19.0746                68.6358                 1.8752

                     31                     32                     33
                      A                      A                      A
 Frequencies --   1125.6308              1129.5419              1206.6368
 Red. masses --      1.9583                 2.1823                 1.7173
 Frc consts  --      1.4619                 1.6405                 1.4732
 IR Inten    --     33.6796                28.7665                12.2355

                     34                     35                     36
                      A                      A                      A
 Frequencies --   1213.5319              1294.6537              1326.0682
 Red. masses --      1.8949                 1.1748                 1.0956
 Frc consts  --      1.6442                 1.1602                 1.1351
 IR Inten    --      1.0484                 2.3682                 0.0010

                     37                     38                     39
                      A                      A                      A
 Frequencies --   1338.3274              1356.1531              1387.9203
 Red. masses --      1.1656                 1.1392                 1.2294
 Frc consts  --      1.2300                 1.2344                 1.3953
 IR Inten    --      3.4941                 1.8440                29.2411

                     40                     41                     42
                      A                      A                      A
 Frequencies --   1406.9150              1415.4652              1427.5687
 Red. masses --      1.2490                 1.2476                 1.3278
 Frc consts  --      1.4566                 1.4728                 1.5944
 IR Inten    --     26.7694                 1.5975                24.2952

                     43                     44                     45
                      A                      A                      A
 Frequencies --   1436.2395              1442.5604              1475.3733
 Red. masses --      1.3042                 1.3349                 1.0790
 Frc consts  --      1.5850                 1.6367                 1.3839
 IR Inten    --     48.0434                 0.9055                 4.2508

                     46                     47                     48
                      A                      A                      A
 Frequencies --   1478.9387              1502.7944              1504.7251
 Red. masses --      1.0903                 1.0865                 1.0853
 Frc consts  --      1.4050                 1.4457                 1.4478
 IR Inten    --      7.9433                 1.0800                 0.0005

                     49                     50                     51
                      A                      A                      A
 Frequencies --   1513.0308              1513.0852              1542.1773
 Red. masses --      1.0450                 1.0446                 1.0521
 Frc consts  --      1.4095                 1.4090                 1.4742
 IR Inten    --     11.1061                 0.4819                 0.7359

                     52                     53                     54
                      A                      A                      A
 Frequencies --   1543.5111              3033.7100              3034.2603
 Red. masses --      1.0540                 1.0628                 1.0629
 Frc consts  --      1.4794                 5.7631                 5.7658
 IR Inten    --      9.3657                97.0780                14.4231

                     55                     56                     57
                      A                      A                      A
 Frequencies --   3046.8698              3055.3762              3062.8385
 Red. masses --      1.0585                 1.0583                 1.0389
 Frc consts  --      5.7895                 5.8209                 5.7419
 IR Inten    --     21.4021                30.5085                35.2952

                     58                     59                     60
                      A                      A                      A
 Frequencies --   3063.1459              3088.4206              3089.0337
 Red. masses --      1.0390                 1.1011                 1.1012
 Frc consts  --      5.7438                 6.1878                 6.1910
 IR Inten    --      2.6213                22.9180                12.1786

                     61                     62                     63
                      A                      A                      A
 Frequencies --   3102.0079              3102.4243              3132.2313
 Red. masses --      1.1058                 1.1066                 1.0980
 Frc consts  --      6.2689                 6.2753                 6.3467
 IR Inten    --     35.9992                15.4764                12.6635

                     64                     65                     66
                      A                      A                      A
 Frequencies --   3132.5242              3159.6237              3159.9303
 Red. masses --      1.0979                 1.1034                 1.1034
 Frc consts  --      6.3476                 6.4900                 6.4916
 IR Inten    --     41.8321                22.7083                 9.6251

 - Thermochemistry -
 -------------------
 Temperature   298.150 Kelvin.  Pressure   1.00000 Atm.
 Atom     1 has atomic number  6 and mass  12.00000

 Molecular mass:   150.08921 amu.
 Principal axes and moments of inertia in atomic units:
                           1         2         3
     Eigenvalues --  1182.482281865.626352208.68429
           X            0.99885   0.00000  -0.04787
           Y           -0.00000   1.00000   0.00000
           Z            0.04787  -0.00000   0.99885
 This molecule is an asymmetric top.
 Rotational symmetry number  1.
 Warning -- assumption of classical behavior for rotation
           may cause significant error
 Rotational temperatures (Kelvin)      0.07325     0.04643     0.03922
 Rotational constants (GHZ):           1.52623     0.96736     0.81711
 Zero-point vibrational energy     542125.8 (Joules/Mol)
                                  129.57119 (Kcal/Mol)
 Warning -- explicit consideration of  17 degrees of freedom as
           vibrations may cause significant error
 Vibrational temperatures:     57.74   114.80   114.89   126.42   137.86
          (Kelvin)            231.45   243.59   314.29   328.66   395.69
                              431.52   519.44   522.08   659.14   664.11
                              737.51   747.47  1084.51  1143.08  1174.87
                             1229.38  1285.20  1306.87  1322.55  1469.74
                             1527.07  1547.74  1550.49  1557.40  1615.96
                             1619.53  1625.16  1736.08  1746.00  1862.72
                             1907.92  1925.55  1951.20  1996.91  2024.24
                             2036.54  2053.95  2066.43  2075.52  2122.73
                             2127.86  2162.19  2164.96  2176.91  2176.99
                             2218.85  2220.77  4364.83  4365.62  4383.77
                             4396.00  4406.74  4407.18  4443.55  4444.43
                             4463.10  4463.70  4506.58  4507.00  4545.99
                             4546.43

 Zero-point correction=                           0.206485 (Hartree/Particle)
 Thermal correction to Energy=                    0.218844
 Thermal correction to Enthalpy=                  0.219788
 Thermal correction to Gibbs Free Energy=         0.167458
 Sum of electronic and zero-point Energies=           -537.585616
 Sum of electronic and thermal Energies=              -537.573257
 Sum of electronic and thermal Enthalpies=            -537.572313
 Sum of electronic and thermal Free Energies=         -537.624643

                     E (Thermal)             CV                S
                      KCal/Mol        Cal/Mol-Kelvin    Cal/Mol-Kelvin
 Total                  137.327             43.268            110.138
 Electronic               0.000              0.000              0.000
 Translational            0.889              2.981             40.928
 Rotational               0.889              2.981             29.967
 Vibrational            135.549             37.307             39.242
 Vibration     1          0.594              1.981              5.252
 Vibration     2          0.600              1.963              3.896
 Vibration     3          0.600              1.963              3.894
 Vibration     4          0.601              1.958              3.707
 Vibration     5          0.603              1.952              3.538
 Vibration     6          0.622              1.890              2.540
 Vibration     7          0.625              1.880              2.443
 Vibration     8          0.646              1.813              1.972
 Vibration     9          0.651              1.798              1.891
 Vibration    10          0.677              1.720              1.564
 Vibration    11          0.692              1.674              1.417
 Vibration    12          0.735              1.553              1.118
 Vibration    13          0.737              1.549              1.110
 Vibration    14          0.816              1.343              0.772
 Vibration    15          0.819              1.335              0.762
 Vibration    16          0.868              1.222              0.627
 Vibration    17          0.875              1.207              0.611

 Optimization completed.
    -- Stationary point found.

 1\1\GINC-NODE375\Freq\RB3LYP\6-31G(d)\C6H14O4\VSC10255\08-Dec-2020\0\\
 #N Geom=AllCheck Guess=TCheck SCRF=Check GenChk RB3LYP/6-31G(d) Freq\\
 CID_139694976_JID_869_neutraal\\0,1\C,1.3847167826,0.2798025178,0.0534
 439541\C,1.0470387046,-1.15694663,0.4270273596\O,0.9983931108,-1.39917
 35475,1.8267631462\O,2.377854335,-1.2798601461,2.3079054806\C,2.310063
 2689,-0.7808946915,3.6321084629\C,2.1027230824,0.7348516161,3.78100638
 36\O,0.8135533234,1.1566863094,4.1898644545\O,-0.0394539587,1.13481145
 65,2.9980021488\C,-1.3464065959,0.813047559,3.4547832718\C,-1.49433095

 Normal termination of Gaussian 16 at Tue Dec  8 13:35:48 2020.

 ----------------------------------------------------------------------
 # B3LYP/6-311++G(d,p) empiricaldispersion=gd3bj scf=xqc pop=npa geom=c
 heck
 ----------------------------------------------------------------------

 --------------------------------------
 CID_139694976_JID_869_Energie_neutraal
 --------------------------------------
 Structure from the checkpoint file:  "JID_869.chk"
 Charge =  0 Multiplicity = 1

 SCF Done:  E(RB3LYP) =  -537.954252812     A.U. after   11 cycles
 Normal termination of Gaussian 16 at Tue Dec  8 13:37:53 2020.

 ----------------------------------------------------------------------
 # B3LYP/6-311++G(d,p) empiricaldispersion=gd3bj scf=xqc pop=npa geom=c
 heck
 ----------------------------------------------------------------------

 ------------------------------------
 CID_139694976_JID_869_Energie_kation
 ------------------------------------
 Structure from the checkpoint file:  "JID_869.chk"
 Charge =  1 Multiplicity = 2

 SCF Done:  E(UB3LYP) =  -537.638718961     A.U. after   17 cycles
 Normal termination of Gaussian 16 at Tue Dec  8 13:43:55 2020.
 Gaussian 16:  ES64L-G16RevA.03 25-Dec-2016

 -----------------------------------
 CID_139694976_JID_869_Energie_anion
 -----------------------------------
 Structure from the checkpoint file:  "JID_869.chk"
 Charge = -1 Multiplicity = 2

                         Standard orientation:
 ---------------------------------------------------------------------
 Center     Atomic      Atomic             Coordinates (Angstroms)
 Number     Number       Type             X           Y           Z
 ---------------------------------------------------------------------
      1          6           0       -2.135780   -1.063358    1.243189
      2          6           0       -2.149188   -1.182076   -0.274562
      3          8           0       -1.163440   -0.394894   -0.929500
      4          8           0       -1.562941    1.001797   -0.733794
      5          6           0       -0.371502    1.765881   -0.672775
      6          6           0        0.371642    1.765906    0.672730
      7          8           0        1.563017    1.001732    0.733842
      8          8           0        1.163390   -0.394926    0.929497
      9          6           0        2.149094   -1.182172    0.274565
     10          6           0        2.135714   -1.063450   -1.243184
     11          1           0       -1.139579   -1.281845    1.635646
     12          1           0       -2.857489   -1.763570    1.679925
     13          1           0       -2.414042   -0.051047    1.549090
     14          1           0       -1.886670   -2.197357   -0.595948
     15          1           0       -3.139100   -0.941535   -0.686505
     16          1           0        0.310034    1.478904   -1.482543
     17          1           0       -0.739095    2.779589   -0.876380
     18          1           0        0.739331    2.779597    0.876251
     19          1           0       -0.309938    1.479067    1.482512
     20          1           0        3.139017   -0.941701    0.686522
     21          1           0        1.886504   -2.197436    0.595943
     22          1           0        2.414027   -0.051150   -1.549077
     23          1           0        2.857401   -1.763690   -1.679914
     24          1           0        1.139510   -1.281891   -1.635658
 ---------------------------------------------------------------------

 SCF Done:  E(UB3LYP) =  -537.933695481     A.U. after   28 cycles

 The electronic state is 2-A.
 Alpha  occ. eigenvalues --  -19.07243 -19.07243 -19.06839 -19.06839 -10.11947
 Alpha  occ. eigenvalues --  -10.11925 -10.11518 -10.11518 -10.05257 -10.05256
 Alpha  occ. eigenvalues --   -1.01660  -1.01082  -0.83825  -0.82525  -0.64833
 Alpha  occ. eigenvalues --   -0.63941  -0.61416  -0.53080  -0.51277  -0.49544
 Alpha  occ. eigenvalues --   -0.42106  -0.41252  -0.39695  -0.37594  -0.37298
 Alpha  occ. eigenvalues --   -0.34333  -0.33404  -0.33022  -0.31753  -0.30018
 Alpha  occ. eigenvalues --   -0.28517  -0.27438  -0.27248  -0.26697  -0.25481
 Alpha  occ. eigenvalues --   -0.24729  -0.23210  -0.21429  -0.20891  -0.14607
 Alpha  occ. eigenvalues --   -0.13717   0.05017
 Alpha virt. eigenvalues --    0.06548   0.07247   0.08690   0.09499   0.10114
 Alpha virt. eigenvalues --    0.10218   0.10311   0.10609   0.11334   0.11725
 Alpha virt. eigenvalues --    0.12552   0.13992   0.14230   0.14848   0.15491

  Beta  occ. eigenvalues --  -19.07236 -19.07236 -19.06835 -19.06835 -10.11922
  Beta  occ. eigenvalues --  -10.11901 -10.11495 -10.11495 -10.05231 -10.05231
  Beta  occ. eigenvalues --   -1.01649  -1.01072  -0.83808  -0.82510  -0.64788
  Beta  occ. eigenvalues --   -0.63901  -0.61368  -0.53019  -0.51212  -0.49476
  Beta  occ. eigenvalues --   -0.42080  -0.41234  -0.39641  -0.37544  -0.37249
  Beta  occ. eigenvalues --   -0.34298  -0.33380  -0.32993  -0.31693  -0.29989
  Beta  occ. eigenvalues --   -0.28475  -0.27410  -0.27212  -0.26664  -0.25453
  Beta  occ. eigenvalues --   -0.24681  -0.23179  -0.21386  -0.20858  -0.14589
  Beta  occ. eigenvalues --   -0.13699
  Beta virt. eigenvalues --    0.07485   0.08110   0.08197   0.08952   0.10198
  Beta virt. eigenvalues --    0.10514   0.10723   0.10777   0.10883   0.11457
  Beta virt. eigenvalues --    0.12210   0.13126   0.14021   0.14385   0.14999

 Mulliken charges and spin densities:
               1          2
     1  C    0.379559  -0.816666
     2  C    0.093112  -0.336137
     3  O   -0.000551   0.028961
     4  O   -0.181071   0.020385
     5  C    0.371731  -0.681397
     6  C    0.371771  -0.681446
     7  O   -0.181089   0.020392
     8  O   -0.000529   0.028953
     9  C    0.093090  -0.336117
    10  C    0.379615  -0.816723
    11  H    0.052031   0.108592
    12  H   -0.347025   0.477614
    13  H   -0.019866   0.156470
    14  H   -0.339230   0.496037
    15  H   -0.040685   0.187836
    16  H    0.185508   0.013424
    17  H   -0.653530   0.844906
    18  H   -0.653500   0.844876
    19  H    0.185495   0.013432
    20  H   -0.040688   0.187841
    21  H   -0.339214   0.496017
    22  H   -0.019897   0.156501
    23  H   -0.347063   0.477654
    24  H    0.052029   0.108593
 Sum of Mulliken charges =  -1.00000   1.00000

 Dipole moment (field-independent basis, Debye):
    X=             -0.0002    Y=             -0.0832    Z=              0.0003  Tot=              0.0832
 Quadrupole moment (field-independent basis, Debye-Ang):
   XX=           -109.4057   YY=           -122.7678   ZZ=            -90.0133
   XY=             -0.0009   XZ=              3.4973   YZ=              0.0004

 Summary of Natural Population Analysis:

                                       Natural Population
                Natural  -----------------------------------------------
    Atom  No    Charge         Core      Valence    Rydberg      Total
 -----------------------------------------------------------------------
      C    1   -0.30361      0.99966     2.29869    0.00527     3.30361
      C    2   -0.01330      0.99962     1.99983    0.01385     3.01330
      O    3   -0.16172      0.99990     3.15272    0.00910     4.16172
      O    4   -0.16462      0.99990     3.15645    0.00828     4.16462
      C    5   -0.03082      0.99959     2.01664    0.01459     3.03082
      C    6   -0.03082      0.99959     2.01664    0.01459     3.03082
      O    7   -0.16462      0.99990     3.15645    0.00828     4.16462
      O    8   -0.16172      0.99990     3.15272    0.00910     4.16172
      C    9   -0.01330      0.99962     1.99983    0.01385     3.01330
      C   10   -0.30361      0.99966     2.29869    0.00527     3.30361
      H   11    0.10744      0.00000     0.39077    0.00178     0.39256
      H   12    0.09916      0.00000     0.39927    0.00157     0.40084
      H   13    0.10049      0.00000     0.39810    0.00141     0.39951
      H   14    0.09463      0.00000     0.40372    0.00164     0.40537
      H   15    0.08112      0.00000     0.41733    0.00155     0.41888
      H   16    0.09243      0.00000     0.40583    0.00173     0.40757
      H   17    0.09880      0.00000     0.39843    0.00277     0.40120
      H   18    0.09880      0.00000     0.39843    0.00277     0.40120
      H   19    0.09243      0.00000     0.40584    0.00173     0.40757
      H   20    0.08112      0.00000     0.41733    0.00155     0.41888
      H   21    0.09463      0.00000     0.40372    0.00164     0.40537
      H   22    0.10049      0.00000     0.39810    0.00141     0.39951
      H   23    0.09916      0.00000     0.39927    0.00157     0.40084
      H   24    0.10744      0.00000     0.39077    0.00178     0.39256
 =======================================================================
   * Total *   -0.00000      9.99733    30.87557    0.12710    41.00000

 Normal termination of Gaussian 16 at Tue Dec  8 13:52:51 2020.
