 Gaussian 16, Revision A.03,

 -----------------------------------------------------------
 # opt freq B3LYP/6-31G(d) empiricaldispersion=gd3bj scf=xqc
 -----------------------------------------------------------

 ------------------------------
 CID_105694335_JID_802_neutraal
 ------------------------------
 Symbolic Z-matrix:
 Charge =  0 Multiplicity = 1

 SCF Done:  E(RB3LYP) =  -407.918704331     A.U. after   13 cycles
 SCF Done:  E(RB3LYP) =  -407.921192645     A.U. after   11 cycles
 SCF Done:  E(RB3LYP) =  -407.921373289     A.U. after   10 cycles
 SCF Done:  E(RB3LYP) =  -407.921751547     A.U. after   10 cycles
 SCF Done:  E(RB3LYP) =  -407.921845426     A.U. after   10 cycles
 SCF Done:  E(RB3LYP) =  -407.921902089     A.U. after   10 cycles
 SCF Done:  E(RB3LYP) =  -407.921915742     A.U. after    9 cycles
 SCF Done:  E(RB3LYP) =  -407.921929327     A.U. after    9 cycles
 SCF Done:  E(RB3LYP) =  -407.921931559     A.U. after    9 cycles
 SCF Done:  E(RB3LYP) =  -407.921931925     A.U. after    7 cycles
 SCF Done:  E(RB3LYP) =  -407.921931994     A.U. after    6 cycles
 Optimization completed.
    -- Stationary point found.

 1\1\GINC-NODE112\FOpt\RB3LYP\6-31G(d)\C9H17N1\VSC10255\08-Dec-2020\0\\
 # opt freq B3LYP/6-31G(d) empiricaldispersion=gd3bj scf=xqc\\CID_10569
 4335_JID_802_neutraal\\0,1\C,1.1247546394,-0.052542908,0.0849484544\C,
 0.9812498249,1.0219254005,1.1787256438\C,1.7662476089,2.2471396342,0.7
 793408255\C,1.2588752022,3.3888848197,0.3132367638\N,-0.4336029423,1.3
 422217756,1.3902200939\C,-1.1701940904,0.3898668298,2.2152906247\C,-1.
 1013806508,0.5555174629,3.739483769\C,0.0042889265,1.3528773451,4.3901
 148466\C,-1.4000311759,1.9089370641,4.3377524367\C,-1.6246955479,-0.66

 Normal termination of Gaussian 16 at Tue Dec  8 12:43:44 2020.

 --------------------------------------------------------------------
 #N Geom=AllCheck Guess=TCheck SCRF=Check GenChk RB3LYP/6-31G(d) Freq
 --------------------------------------------------------------------

 Structure from the checkpoint file:  "JID_802.chk"
 ------------------------------
 CID_105694335_JID_802_neutraal
 ------------------------------
 Charge =  0 Multiplicity = 1

 SCF Done:  E(RB3LYP) =  -407.921931994     A.U. after    1 cycles

  Exact polarizability: 108.550   7.958  97.938  -1.736   6.379  88.145
 Approx polarizability: 131.205  12.126 139.416  -0.459  15.330 138.755

                      1                      2                      3
                      A                      A                      A
 Frequencies --     38.4910                52.7569               105.1058
 Red. masses --      3.3005                 2.8998                 2.9939
 Frc consts  --      0.0029                 0.0048                 0.0195
 IR Inten    --      0.0741                 0.0616                 0.4252

                      4                      5                      6
                      A                      A                      A
 Frequencies --    116.8333               222.3020               226.5417
 Red. masses --      2.1439                 1.1814                 2.4880
 Frc consts  --      0.0172                 0.0344                 0.0752
 IR Inten    --      0.2440                 0.0371                 0.4164

                      7                      8                      9
                      A                      A                      A
 Frequencies --    233.3550               253.3355               278.3587
 Red. masses --      2.1271                 1.2682                 2.2749
 Frc consts  --      0.0682                 0.0480                 0.1039
 IR Inten    --      0.7636                 0.5296                 1.1394

                     10                     11                     12
                      A                      A                      A
 Frequencies --    328.8507               347.2917               376.1033
 Red. masses --      1.8252                 2.0059                 2.0616
 Frc consts  --      0.1163                 0.1425                 0.1718
 IR Inten    --      0.0447                 0.4053                 1.7295

                     13                     14                     15
                      A                      A                      A
 Frequencies --    383.8250               441.3809               500.4784
 Red. masses --      2.3628                 2.2600                 2.8077
 Frc consts  --      0.2051                 0.2594                 0.4144
 IR Inten    --      0.2650                 9.4389                 1.1845

                     16                     17                     18
                      A                      A                      A
 Frequencies --    620.0161               670.7185               685.2691
 Red. masses --      2.4626                 2.1224                 2.1182
 Frc consts  --      0.5578                 0.5626                 0.5861
 IR Inten    --      6.6368                10.3012                 9.7890

                     19                     20                     21
                      A                      A                      A
 Frequencies --    771.3684               798.5338               822.9559
 Red. masses --      1.6439                 1.1552                 2.0262
 Frc consts  --      0.5763                 0.4340                 0.8085
 IR Inten    --     47.0371                10.5090                10.0222

                     22                     23                     24
                      A                      A                      A
 Frequencies --    862.7479               901.8345               936.7334
 Red. masses --      2.7562                 1.2413                 1.8482
 Frc consts  --      1.2087                 0.5948                 0.9555
 IR Inten    --      6.4462                 0.6791                14.3580

                     25                     26                     27
                      A                      A                      A
 Frequencies --    938.6601               942.8181               965.8140
 Red. masses --      1.7638                 1.4217                 1.7646
 Frc consts  --      0.9156                 0.7446                 0.9698
 IR Inten    --      2.1257                28.5065                 9.6996

                     28                     29                     30
                      A                      A                      A
 Frequencies --   1008.8524              1037.0830              1043.0738
 Red. masses --      1.6563                 1.1686                 1.2560
 Frc consts  --      0.9932                 0.7405                 0.8051
 IR Inten    --     14.8580                13.4962                 3.9851

                     31                     32                     33
                      A                      A                      A
 Frequencies --   1051.8229              1074.0400              1086.5609
 Red. masses --      1.2737                 2.1184                 1.3999
 Frc consts  --      0.8302                 1.4398                 0.9737
 IR Inten    --      5.7157                 1.3790                 2.2538

                     34                     35                     36
                      A                      A                      A
 Frequencies --   1098.7040              1119.8418              1145.1194
 Red. masses --      1.5795                 1.9926                 2.1069
 Frc consts  --      1.1234                 1.4722                 1.6278
 IR Inten    --      1.5307                29.9267                 9.1746

                     37                     38                     39
                      A                      A                      A
 Frequencies --   1169.5541              1196.4812              1201.2603
 Red. masses --      2.6701                 2.1083                 1.3207
 Frc consts  --      2.1519                 1.7783                 1.1229
 IR Inten    --     20.6946                17.6243                 0.0360

                     40                     41                     42
                      A                      A                      A
 Frequencies --   1286.6619              1316.3076              1337.9257
 Red. masses --      1.8265                 1.3016                 1.2549
 Frc consts  --      1.7816                 1.3287                 1.3235
 IR Inten    --      1.7213                 5.8961                 1.2298

                     43                     44                     45
                      A                      A                      A
 Frequencies --   1353.1319              1380.5152              1395.8807
 Red. masses --      2.4333                 1.4097                 1.3154
 Frc consts  --      2.6250                 1.5829                 1.5101
 IR Inten    --      1.2603                 6.2078                19.5327

                     46                     47                     48
                      A                      A                      A
 Frequencies --   1417.7344              1429.5012              1444.5085
 Red. masses --      1.3951                 1.2397                 1.3062
 Frc consts  --      1.6521                 1.4926                 1.6058
 IR Inten    --      5.1983                 8.5571                 1.4408

                     49                     50                     51
                      A                      A                      A
 Frequencies --   1469.8466              1492.0345              1510.3857
 Red. masses --      1.2155                 1.1046                 1.0961
 Frc consts  --      1.5472                 1.4488                 1.4732
 IR Inten    --      4.7548                 9.3562                 7.7031

                     52                     53                     54
                      A                      A                      A
 Frequencies --   1520.1621              1523.7442              1526.7368
 Red. masses --      1.1025                 1.0688                 1.0514
 Frc consts  --      1.5011                 1.4620                 1.4440
 IR Inten    --     13.9874                 3.0204                 4.5297

                     55                     56                     57
                      A                      A                      A
 Frequencies --   1529.8651              1531.3731              1546.1185
 Red. masses --      1.0742                 1.1513                 1.3344
 Frc consts  --      1.4813                 1.5908                 1.8794
 IR Inten    --      5.1144                11.6373                 2.4342

                     58                     59                     60
                      A                      A                      A
 Frequencies --   1727.7266              2944.5778              3018.9844
 Red. masses --      4.4899                 1.0806                 1.0678
 Frc consts  --      7.8966                 5.5201                 5.7339
 IR Inten    --      9.7017                46.5821                47.9132

                     61                     62                     63
                      A                      A                      A
 Frequencies --   3033.6735              3053.4048              3075.9948
 Red. masses --      1.0370                 1.0361                 1.0928
 Frc consts  --      5.6231                 5.6914                 6.0921
 IR Inten    --     49.4479                20.7004                29.3029

                     64                     65                     66
                      A                      A                      A
 Frequencies --   3090.7811              3109.9112              3117.8918
 Red. masses --      1.1018                 1.1012                 1.1016
 Frc consts  --      6.2012                 6.2751                 6.3094
 IR Inten    --     36.4857                30.5616                36.1279

                     67                     68                     69
                      A                      A                      A
 Frequencies --   3131.1871              3142.1982              3150.3046
 Red. masses --      1.0549                 1.1029                 1.0563
 Frc consts  --      6.0935                 6.4159                 6.1765
 IR Inten    --     17.9733                20.2763                14.1267

                     70                     71                     72
                      A                      A                      A
 Frequencies --   3154.0927              3171.6641              3207.3170
 Red. masses --      1.0805                 1.0689                 1.1166
 Frc consts  --      6.3332                 6.3352                 6.7677
 IR Inten    --     22.2367                 6.6367                10.2297

                     73                     74                     75
                      A                      A                      A
 Frequencies --   3232.8704              3246.8584              3509.9508
 Red. masses --      1.1152                 1.1161                 1.0733
 Frc consts  --      6.8671                 6.9321                 7.7903
 IR Inten    --     19.3904                17.6526                 1.4886

 - Thermochemistry -
 -------------------
 Temperature   298.150 Kelvin.  Pressure   1.00000 Atm.
 Atom     1 has atomic number  6 and mass  12.00000

 Molecular mass:   139.13610 amu.
 Principal axes and moments of inertia in atomic units:
                           1         2         3
     Eigenvalues --   804.090812364.613462755.08744
           X            1.00000   0.00194  -0.00055
           Y           -0.00193   0.99986   0.01642
           Z            0.00058  -0.01642   0.99986
 This molecule is an asymmetric top.
 Rotational symmetry number  1.
 Warning -- assumption of classical behavior for rotation
           may cause significant error
 Rotational temperatures (Kelvin)      0.10772     0.03663     0.03144
 Rotational constants (GHZ):           2.24445     0.76323     0.65506
 Zero-point vibrational energy     647100.1 (Joules/Mol)
                                  154.66065 (Kcal/Mol)
 Warning -- explicit consideration of  16 degrees of freedom as
           vibrations may cause significant error
 Vibrational temperatures:     55.38    75.91   151.22   168.10   319.84
          (Kelvin)            325.94   335.75   364.49   400.50   473.14
                              499.68   541.13   552.24   635.05   720.08
                              892.06   965.01   985.95  1109.83  1148.91
                             1184.05  1241.30  1297.54  1347.75  1350.52
                             1356.50  1389.59  1451.51  1492.13  1500.75
                             1513.34  1545.30  1563.32  1580.79  1611.20
                             1647.57  1682.73  1721.47  1728.35  1851.22
                             1893.87  1924.98  1946.86  1986.25  2008.36
                             2039.80  2056.73  2078.33  2114.78  2146.70
                             2173.11  2187.17  2192.33  2196.63  2201.13
                             2203.30  2224.52  2485.81  4236.59  4343.65
                             4364.78  4393.17  4425.67  4446.94  4474.47
                             4485.95  4505.08  4520.92  4532.59  4538.04
                             4563.32  4614.61  4651.38  4671.50  5050.04

 Zero-point correction=                           0.246467 (Hartree/Particle)
 Thermal correction to Energy=                    0.258158
 Thermal correction to Enthalpy=                  0.259103
 Thermal correction to Gibbs Free Energy=         0.208843
 Sum of electronic and zero-point Energies=           -407.675465
 Sum of electronic and thermal Energies=              -407.663774
 Sum of electronic and thermal Enthalpies=            -407.662829
 Sum of electronic and thermal Free Energies=         -407.713089

                     E (Thermal)             CV                S
                      KCal/Mol        Cal/Mol-Kelvin    Cal/Mol-Kelvin
 Total                  161.997             44.144            105.780
 Electronic               0.000              0.000              0.000
 Translational            0.889              2.981             40.703
 Rotational               0.889              2.981             30.039
 Vibrational            160.219             38.182             35.038
 Vibration     1          0.594              1.982              5.335
 Vibration     2          0.596              1.977              4.711
 Vibration     3          0.605              1.945              3.357
 Vibration     4          0.608              1.935              3.152
 Vibration     5          0.648              1.807              1.940
 Vibration     6          0.650              1.801              1.906
 Vibration     7          0.654              1.790              1.853
 Vibration     8          0.665              1.757              1.707
 Vibration     9          0.679              1.714              1.544
 Vibration    10          0.712              1.618              1.266
 Vibration    11          0.725              1.581              1.178
 Vibration    12          0.747              1.521              1.055
 Vibration    13          0.753              1.505              1.024
 Vibration    14          0.801              1.380              0.822
 Vibration    15          0.856              1.249              0.657
 Vibration    16          0.980              0.990              0.416

                           ! Non-Optimized Parameters !

 1\1\GINC-NODE112\Freq\RB3LYP\6-31G(d)\C9H17N1\VSC10255\08-Dec-2020\0\\
 #N Geom=AllCheck Guess=TCheck SCRF=Check GenChk RB3LYP/6-31G(d) Freq\\
 CID_105694335_JID_802_neutraal\\0,1\C,1.1247546394,-0.052542908,0.0849
 484544\C,0.9812498249,1.0219254005,1.1787256438\C,1.7662476089,2.24713
 96342,0.7793408255\C,1.2588752022,3.3888848197,0.3132367638\N,-0.43360
 29423,1.3422217756,1.3902200939\C,-1.1701940904,0.3898668298,2.2152906
 247\C,-1.1013806508,0.5555174629,3.739483769\C,0.0042889265,1.35287734
 51,4.3901148466\C,-1.4000311759,1.9089370641,4.3377524367\C,-1.6246955

 Normal termination of Gaussian 16 at Tue Dec  8 13:04:03 2020.

 ----------------------------------------------------------------------
 # B3LYP/6-311++G(d,p) empiricaldispersion=gd3bj scf=xqc pop=npa geom=c
 heck
 ----------------------------------------------------------------------

 --------------------------------------
 CID_105694335_JID_802_Energie_neutraal
 --------------------------------------
 Structure from the checkpoint file:  "JID_802.chk"
 Charge =  0 Multiplicity = 1

 SCF Done:  E(RB3LYP) =  -408.040802739     A.U. after   13 cycles
 Normal termination of Gaussian 16 at Tue Dec  8 13:09:13 2020.

 ----------------------------------------------------------------------
 # B3LYP/6-311++G(d,p) empiricaldispersion=gd3bj scf=xqc pop=npa geom=c
 heck
 ----------------------------------------------------------------------

 ------------------------------------
 CID_105694335_JID_802_Energie_kation
 ------------------------------------
 Structure from the checkpoint file:  "JID_802.chk"
 Charge =  1 Multiplicity = 2

 SCF Done:  E(UB3LYP) =  -407.737322104     A.U. after   22 cycles
 Normal termination of Gaussian 16 at Tue Dec  8 13:17:20 2020.
 Gaussian 16:  ES64L-G16RevA.03 25-Dec-2016

 -----------------------------------
 CID_105694335_JID_802_Energie_anion
 -----------------------------------
 Structure from the checkpoint file:  "JID_802.chk"
 Charge = -1 Multiplicity = 2

                         Standard orientation:
 ---------------------------------------------------------------------
 Center     Atomic      Atomic             Coordinates (Angstroms)
 Number     Number       Type             X           Y           Z
 ---------------------------------------------------------------------
      1          6           0       -2.049450    1.848715    0.226610
      2          6           0       -1.422439    0.449492    0.369639
      3          6           0       -2.519169   -0.572548    0.541389
      4          6           0       -2.951650   -1.425755   -0.387729
      5          7           0       -0.590957    0.146237   -0.799037
      6          6           0        0.736620    0.752682   -0.791918
      7          6           0        1.857544    0.020005   -0.042215
      8          6           0        1.545804   -1.019824    1.008111
      9          6           0        2.093525   -1.441848   -0.335748
     10          6           0        3.082103    0.890482    0.168585
     11          1           0       -2.661820    1.883963   -0.678895
     12          1           0       -1.278418    2.623480    0.156623
     13          1           0       -2.679141    2.082152    1.092618
     14          1           0       -0.829483    0.452040    1.302531
     15          1           0       -3.000397   -0.560142    1.519179
     16          1           0       -3.762314   -2.119428   -0.183766
     17          1           0       -2.529955   -1.449882   -1.388487
     18          1           0       -0.511847   -0.861990   -0.905737
     19          1           0        1.066433    0.888524   -1.832283
     20          1           0        0.639297    1.761816   -0.374503
     21          1           0        2.199532   -1.080161    1.874412
     22          1           0        0.509200   -1.262701    1.218920
     23          1           0        1.416194   -1.952992   -1.017551
     24          1           0        3.119479   -1.795716   -0.394699
     25          1           0        3.457532    1.279122   -0.787041
     26          1           0        2.849240    1.750059    0.810141
     27          1           0        3.895843    0.329790    0.641453
 ---------------------------------------------------------------------

 SCF Done:  E(UB3LYP) =  -408.022604848     A.U. after   32 cycles

 The electronic state is 2-A.
 Alpha  occ. eigenvalues --  -14.19377 -10.10191 -10.08913 -10.08084 -10.07518
 Alpha  occ. eigenvalues --  -10.06537 -10.06504 -10.06370 -10.05778 -10.05617
 Alpha  occ. eigenvalues --   -0.81302  -0.75754  -0.68450  -0.62820  -0.61744
 Alpha  occ. eigenvalues --   -0.56756  -0.51831  -0.50022  -0.44749  -0.44385
 Alpha  occ. eigenvalues --   -0.40281  -0.38935  -0.37001  -0.35458  -0.33173
 Alpha  occ. eigenvalues --   -0.32091  -0.30620  -0.29475  -0.28848  -0.28297
 Alpha  occ. eigenvalues --   -0.27311  -0.26005  -0.25865  -0.24884  -0.23319
 Alpha  occ. eigenvalues --   -0.19067  -0.17147  -0.16544  -0.12436   0.04756
 Alpha virt. eigenvalues --    0.06633   0.07404   0.08140   0.08770   0.09296
 Alpha virt. eigenvalues --    0.09660   0.09766   0.10665   0.10934   0.11752
 Alpha virt. eigenvalues --    0.12201   0.12855   0.13154   0.13624   0.14592

  Beta  occ. eigenvalues --  -14.19367 -10.10187 -10.08896 -10.08084 -10.07494
  Beta  occ. eigenvalues --  -10.06514 -10.06484 -10.06347 -10.05740 -10.05584
  Beta  occ. eigenvalues --   -0.81286  -0.75739  -0.68409  -0.62778  -0.61696
  Beta  occ. eigenvalues --   -0.56700  -0.51768  -0.49953  -0.44695  -0.44335
  Beta  occ. eigenvalues --   -0.40253  -0.38882  -0.36972  -0.35405  -0.33134
  Beta  occ. eigenvalues --   -0.32061  -0.30568  -0.29443  -0.28809  -0.28256
  Beta  occ. eigenvalues --   -0.27276  -0.25975  -0.25832  -0.24851  -0.23282
  Beta  occ. eigenvalues --   -0.19029  -0.17126  -0.16470  -0.12410
  Beta virt. eigenvalues --    0.06986   0.07677   0.08149   0.08648   0.09237
  Beta virt. eigenvalues --    0.09765   0.10124   0.10230   0.11117   0.11437
  Beta virt. eigenvalues --    0.12095   0.12794   0.13190   0.13498   0.13933

 Mulliken charges and spin densities:
               1          2
     1  C    0.804773  -1.411125
     2  C   -0.031646  -0.147420
     3  C   -1.279605   1.457684
     4  C    1.339146  -1.940670
     5  N   -0.075053   0.106253
     6  C    0.260589  -0.772754
     7  C   -1.963641   2.576628
     8  C    1.060619  -1.505346
     9  C    0.392842  -0.830224
    10  C    1.011290  -1.511811
    11  H    0.081673   0.070540
    12  H   -0.257102   0.380537
    13  H   -0.430746   0.565807
    14  H    0.180846  -0.046705
    15  H   -0.756531   0.948097
    16  H   -0.250372   0.388779
    17  H   -0.088304   0.214186
    18  H    0.191184  -0.039721
    19  H   -0.030767   0.222084
    20  H    0.221985  -0.114658
    21  H   -0.235900   0.400796
    22  H    0.188187  -0.052065
    23  H   -0.129269   0.263830
    24  H   -0.285753   0.441109
    25  H   -0.230449   0.367105
    26  H   -0.302761   0.451052
    27  H   -0.385235   0.518013
 Sum of Mulliken charges =  -1.00000   1.00000

 Dipole moment (field-independent basis, Debye):
    X=             -0.6208    Y=             -0.6899    Z=             -2.4968  Tot=              2.6637
 Quadrupole moment (field-independent basis, Debye-Ang):
   XX=           -138.7955   YY=           -108.0438   ZZ=            -97.8560
   XY=             -1.5374   XZ=              3.4735   YZ=             -0.9930

 Summary of Natural Population Analysis:

                                       Natural Population
                Natural  -----------------------------------------------
    Atom  No    Charge         Core      Valence    Rydberg      Total
 -----------------------------------------------------------------------
      C    1   -0.28066      0.99964     2.27431    0.00671     3.28066
      C    2   -0.03145      0.99958     2.01877    0.01311     3.03145
      C    3   -0.08043      0.99955     2.06906    0.01182     3.08043
      C    4   -0.20031      0.99956     2.19287    0.00789     3.20031
      N    5   -0.34488      0.99974     2.83373    0.01142     3.84488
      C    6   -0.07865      0.99956     2.06763    0.01146     3.07865
      C    7   -0.05433      0.99957     2.04309    0.01167     3.05433
      C    8   -0.19700      0.99958     2.18803    0.00938     3.19700
      C    9   -0.19888      0.99958     2.18983    0.00946     3.19888
      C   10   -0.27901      0.99962     2.27320    0.00618     3.27901
      H   11    0.09996      0.00000     0.39876    0.00128     0.40004
      H   12    0.09944      0.00000     0.39937    0.00119     0.40056
      H   13    0.09985      0.00000     0.39885    0.00130     0.40015
      H   14    0.08853      0.00000     0.40864    0.00283     0.41147
      H   15    0.09753      0.00000     0.40096    0.00151     0.40247
      H   16    0.09504      0.00000     0.40387    0.00109     0.40496
      H   17    0.09380      0.00000     0.40491    0.00129     0.40620
      H   18    0.17515      0.00000     0.32078    0.00407     0.32485
      H   19    0.09256      0.00000     0.40627    0.00117     0.40744
      H   20    0.09585      0.00000     0.40263    0.00152     0.40415
      H   21    0.10320      0.00000     0.39564    0.00117     0.39680
      H   22    0.10364      0.00000     0.39474    0.00162     0.39636
      H   23    0.09748      0.00000     0.40124    0.00128     0.40252
      H   24    0.10295      0.00000     0.39588    0.00117     0.39705
      H   25    0.09867      0.00000     0.40000    0.00134     0.40133
      H   26    0.10056      0.00000     0.39796    0.00148     0.39944
      H   27    0.10140      0.00000     0.39701    0.00158     0.39860
 =======================================================================
   * Total *   -0.00000      9.99598    28.87804    0.12598    39.00000

 Normal termination of Gaussian 16 at Tue Dec  8 13:27:07 2020.
