 Gaussian 16, Revision A.03,

 -----------------------------------------------------------
 # opt freq B3LYP/6-31G(d) empiricaldispersion=gd3bj scf=xqc
 -----------------------------------------------------------

 -------------------------------
 CID_141790268_JID_2859_neutraal
 -------------------------------
 Symbolic Z-matrix:
 Charge =  0 Multiplicity = 1

 SCF Done:  E(RB3LYP) =  -537.343857570     A.U. after   14 cycles
 SCF Done:  E(RB3LYP) =  -537.346519217     A.U. after   12 cycles
 SCF Done:  E(RB3LYP) =  -537.347175839     A.U. after   14 cycles
 SCF Done:  E(RB3LYP) =  -537.347219893     A.U. after   11 cycles
 SCF Done:  E(RB3LYP) =  -537.347221211     A.U. after   11 cycles
 SCF Done:  E(RB3LYP) =  -537.347354031     A.U. after   11 cycles
 SCF Done:  E(RB3LYP) =  -537.347297424     A.U. after   10 cycles
 SCF Done:  E(RB3LYP) =  -537.347756338     A.U. after   13 cycles
 SCF Done:  E(RB3LYP) =  -537.325924425     A.U. after   14 cycles
 SCF Done:  E(RB3LYP) =  -537.334684638     A.U. after   13 cycles
 SCF Done:  E(RB3LYP) =  -537.356602737     A.U. after    9 cycles
 SCF Done:  E(RB3LYP) =  -537.356603047     A.U. after    7 cycles
 SCF Done:  E(RB3LYP) =  -537.356603144     A.U. after    8 cycles
 SCF Done:  E(RB3LYP) =  -537.356603205     A.U. after    7 cycles
 SCF Done:  E(RB3LYP) =  -537.356603254     A.U. after    7 cycles
 SCF Done:  E(RB3LYP) =  -537.356603267     A.U. after    7 cycles
 Optimization completed.
    -- Stationary point found.
 Normal termination of Gaussian 16 at Wed Dec  9 18:44:10 2020.

 --------------------------------------------------------------------
 #N Geom=AllCheck Guess=TCheck SCRF=Check GenChk RB3LYP/6-31G(d) Freq
 --------------------------------------------------------------------

 Structure from the checkpoint file:  "JID_2859.chk"
 -------------------------------
 CID_141790268_JID_2859_neutraal
 -------------------------------
 Charge =  0 Multiplicity = 1

 SCF Done:  E(RB3LYP) =  -537.356603267     A.U. after    1 cycles

  Exact polarizability: 124.436  -6.049  86.041  -0.871   5.387 103.084
 Approx polarizability: 167.765  -8.501 122.838   3.718  10.831 164.260

                      1                      2                      3
                      A                      A                      A
 Frequencies --     42.0383                49.2355                61.9940
 Red. masses --      2.6389                 3.9884                 3.9283
 Frc consts  --      0.0027                 0.0057                 0.0089
 IR Inten    --      2.9159                 1.2299                 1.1396

                      4                      5                      6
                      A                      A                      A
 Frequencies --     79.4583                92.6116               102.4799
 Red. masses --      1.5581                 3.7428                 4.2229
 Frc consts  --      0.0058                 0.0189                 0.0261
 IR Inten    --     26.1547                 1.2138                 0.8422

                      7                      8                      9
                      A                      A                      A
 Frequencies --    147.8477               172.6025               229.1869
 Red. masses --      1.8062                 2.3551                 1.6167
 Frc consts  --      0.0233                 0.0413                 0.0500
 IR Inten    --      4.0857                 1.4811                 0.1948

                     10                     11                     12
                      A                      A                      A
 Frequencies --    236.2101               272.8621               292.1934
 Red. masses --      1.4262                 2.6434                 2.3349
 Frc consts  --      0.0469                 0.1160                 0.1175
 IR Inten    --      0.1823                 1.3334                 7.0167

                     13                     14                     15
                      A                      A                      A
 Frequencies --    358.6736               376.6421               410.0709
 Red. masses --      1.0705                 3.0661                 4.3967
 Frc consts  --      0.0811                 0.2563                 0.4356
 IR Inten    --    131.3202                 1.9762                 4.5545

                     16                     17                     18
                      A                      A                      A
 Frequencies --    455.7783               521.5409               632.2797
 Red. masses --      2.2300                 3.0038                 4.3921
 Frc consts  --      0.2729                 0.4814                 1.0345
 IR Inten    --      0.0288                 0.4324                 0.4286

                     19                     20                     21
                      A                      A                      A
 Frequencies --    668.8737               704.2933               715.6796
 Red. masses --      3.4178                 1.5356                 2.7048
 Frc consts  --      0.9009                 0.4488                 0.8163
 IR Inten    --      6.8390                28.3370                 3.5936

                     22                     23                     24
                      A                      A                      A
 Frequencies --    764.7484               816.4256               838.9751
 Red. masses --      3.5904                 2.0152                 1.2790
 Frc consts  --      1.2372                 0.7914                 0.5304
 IR Inten    --      3.4045                 0.7651                 6.6157

                     25                     26                     27
                      A                      A                      A
 Frequencies --    900.0679               944.7285               949.0495
 Red. masses --      1.7036                 4.5966                 1.9295
 Frc consts  --      0.8131                 2.4171                 1.0240
 IR Inten    --      3.1412                 4.0650                 0.4206

                     28                     29                     30
                      A                      A                      A
 Frequencies --    964.8736               981.0755              1032.1040
 Red. masses --      1.5707                 1.4116                 1.9378
 Frc consts  --      0.8616                 0.8005                 1.2162
 IR Inten    --      1.6957                 2.1170                 0.6628

                     31                     32                     33
                      A                      A                      A
 Frequencies --   1053.8559              1088.0360              1088.9354
 Red. masses --      3.8793                 1.3045                 2.2519
 Frc consts  --      2.5384                 0.9099                 1.5733
 IR Inten    --     91.8595                 1.6490                 5.4777

                     34                     35                     36
                      A                      A                      A
 Frequencies --   1107.8399              1145.0869              1166.6430
 Red. masses --      1.4339                 1.6337                 2.1870
 Frc consts  --      1.0369                 1.2621                 1.7538
 IR Inten    --      7.5551                 1.2927                12.4410

                     37                     38                     39
                      A                      A                      A
 Frequencies --   1174.0496              1185.4684              1204.7631
 Red. masses --      2.0978                 1.2583                 1.6769
 Frc consts  --      1.7037                 1.0419                 1.4340
 IR Inten    --      0.3326                 0.4159                 1.8409

                     40                     41                     42
                      A                      A                      A
 Frequencies --   1225.8802              1260.0327              1294.7103
 Red. masses --      2.2606                 1.5118                 1.7639
 Frc consts  --      2.0016                 1.4142                 1.7421
 IR Inten    --      2.6185                 3.4921                21.5285

                     43                     44                     45
                      A                      A                      A
 Frequencies --   1316.1608              1326.3910              1351.7126
 Red. masses --      1.4824                 1.8823                 1.3203
 Frc consts  --      1.5130                 1.9511                 1.4213
 IR Inten    --      2.1826                36.6091                 1.3079

                     46                     47                     48
                      A                      A                      A
 Frequencies --   1375.5278              1389.9717              1401.8265
 Red. masses --      1.5112                 1.3273                 1.8155
 Frc consts  --      1.6846                 1.5109                 2.1020
 IR Inten    --     10.3071                20.8610                 1.9759

                     49                     50                     51
                      A                      A                      A
 Frequencies --   1418.8453              1437.1221              1443.0202
 Red. masses --      1.4187                 1.7220                 1.3907
 Frc consts  --      1.6827                 2.0955                 1.7062
 IR Inten    --      2.7244                10.3544                14.5995

                     52                     53                     54
                      A                      A                      A
 Frequencies --   1482.3038              1512.2141              1516.1363
 Red. masses --      2.6039                 1.1333                 1.1453
 Frc consts  --      3.3709                 1.5270                 1.5511
 IR Inten    --     26.2422                 2.0028                 8.1392

                     55                     56                     57
                      A                      A                      A
 Frequencies --   1521.1978              1524.2191              1528.6078
 Red. masses --      1.1322                 2.0604                 1.0634
 Frc consts  --      1.5437                 2.8203                 1.4639
 IR Inten    --      2.4942                11.9309                 5.9862

                     58                     59                     60
                      A                      A                      A
 Frequencies --   1531.4648              1533.7042              1538.3506
 Red. masses --      1.0717                 1.1147                 1.0466
 Frc consts  --      1.4809                 1.5449                 1.4593
 IR Inten    --      3.6109                12.0271                 6.7020

                     61                     62                     63
                      A                      A                      A
 Frequencies --   1549.2884              1577.3647              3014.1208
 Red. masses --      1.4591                 5.0199                 1.0379
 Frc consts  --      2.0635                 7.3588                 5.5557
 IR Inten    --      9.9117                19.4370                60.7945

                     64                     65                     66
                      A                      A                      A
 Frequencies --   3024.0683              3026.4034              3040.2012
 Red. masses --      1.0659                 1.0670                 1.0390
 Frc consts  --      5.7433                 5.7577                 5.6582
 IR Inten    --     27.7475                35.5019                39.5765

                     67                     68                     69
                      A                      A                      A
 Frequencies --   3055.9925              3061.6679              3063.9612
 Red. masses --      1.0650                 1.0805                 1.1060
 Frc consts  --      5.8599                 5.9673                 6.1172
 IR Inten    --      7.3196                13.3586                70.7191

                     70                     71                     72
                      A                      A                      A
 Frequencies --   3083.3203              3087.2955              3103.6064
 Red. masses --      1.0973                 1.0976                 1.1007
 Frc consts  --      6.1465                 6.1640                 6.2469
 IR Inten    --     31.2335                19.5238                10.3513

                     73                     74                     75
                      A                      A                      A
 Frequencies --   3105.2238              3117.4976              3172.5513
 Red. masses --      1.1008                 1.1013                 1.0968
 Frc consts  --      6.2541                 6.3059                 6.5040
 IR Inten    --     52.8315                32.3364                 5.4016

                     76                     77                     78
                      A                      A                      A
 Frequencies --   3253.3986              3282.8544              3753.7668
 Red. masses --      1.0914                 1.1035                 1.0664
 Frc consts  --      6.8060                 7.0067                 8.8536
 IR Inten    --      9.7812                 6.8776                12.0251

 - Thermochemistry -
 -------------------
 Temperature   298.150 Kelvin.  Pressure   1.00000 Atm.
 Atom     1 has atomic number  6 and mass  12.00000

 Molecular mass:   168.12626 amu.
 Principal axes and moments of inertia in atomic units:
                           1         2         3
     Eigenvalues --  1657.380532350.224522902.40365
           X            0.99867   0.05093  -0.00844
           Y           -0.05098   0.99868  -0.00572
           Z            0.00814   0.00615   0.99995
 This molecule is an asymmetric top.
 Rotational symmetry number  1.
 Warning -- assumption of classical behavior for rotation
           may cause significant error
 Rotational temperatures (Kelvin)      0.05226     0.03685     0.02984
 Rotational constants (GHZ):           1.08891     0.76790     0.62181
 Zero-point vibrational energy     647964.8 (Joules/Mol)
                                  154.86731 (Kcal/Mol)
 Warning -- explicit consideration of  17 degrees of freedom as
           vibrations may cause significant error
 Vibrational temperatures:     60.48    70.84    89.20   114.32   133.25
          (Kelvin)            147.45   212.72   248.34   329.75   339.85
                              392.59   420.40   516.05   541.90   590.00
                              655.76   750.38   909.71   962.36  1013.32
                             1029.70  1100.30  1174.65  1207.10  1295.00
                             1359.25  1365.47  1388.24  1411.55  1484.97
                             1516.26  1565.44  1566.74  1593.93  1647.52
                             1678.54  1689.20  1705.62  1733.39  1763.77
                             1812.91  1862.80  1893.66  1908.38  1944.81
                             1979.08  1999.86  2016.92  2041.40  2067.70
                             2076.18  2132.70  2175.74  2181.38  2188.66
                             2193.01  2199.33  2203.44  2206.66  2213.34
                             2229.08  2269.48  4336.65  4350.96  4354.32
                             4374.17  4396.89  4405.06  4408.36  4436.21
                             4441.93  4465.40  4467.72  4485.38  4564.59
                             4680.91  4723.30  5400.83

 Zero-point correction=                           0.246797 (Hartree/Particle)
 Thermal correction to Energy=                    0.260328
 Thermal correction to Enthalpy=                  0.261272
 Thermal correction to Gibbs Free Energy=         0.205573
 Sum of electronic and zero-point Energies=           -537.109806
 Sum of electronic and thermal Energies=              -537.096276
 Sum of electronic and thermal Enthalpies=            -537.095331
 Sum of electronic and thermal Free Energies=         -537.151030

                     E (Thermal)             CV                S
                      KCal/Mol        Cal/Mol-Kelvin    Cal/Mol-Kelvin
 Total                  163.358             48.100            117.228
 Electronic               0.000              0.000              0.000
 Translational            0.889              2.981             41.267
 Rotational               0.889              2.981             30.803
 Vibrational            161.581             42.138             45.158
 Vibration     1          0.595              1.980              5.161
 Vibration     2          0.595              1.978              4.848
 Vibration     3          0.597              1.972              4.393
 Vibration     4          0.600              1.963              3.904
 Vibration     5          0.602              1.954              3.604
 Vibration     6          0.605              1.947              3.407
 Vibration     7          0.617              1.905              2.700
 Vibration     8          0.626              1.876              2.407
 Vibration     9          0.652              1.796              1.885
 Vibration    10          0.655              1.785              1.831
 Vibration    11          0.676              1.723              1.578
 Vibration    12          0.688              1.688              1.461
 Vibration    13          0.734              1.557              1.128
 Vibration    14          0.747              1.520              1.053
 Vibration    15          0.774              1.448              0.926
 Vibration    16          0.814              1.348              0.778
 Vibration    17          0.877              1.202              0.606

 Optimization completed.
    -- Stationary point found.
 Normal termination of Gaussian 16 at Wed Dec  9 18:51:26 2020.

 ----------------------------------------------------------------------
 # B3LYP/6-311++G(d,p) empiricaldispersion=gd3bj scf=xqc pop=npa geom=c
 heck
 ----------------------------------------------------------------------

 ---------------------------------------
 CID_141790268_JID_2859_Energie_neutraal
 ---------------------------------------
 Structure from the checkpoint file:  "JID_2859.chk"
 Charge =  0 Multiplicity = 1

 SCF Done:  E(RB3LYP) =  -537.516064768     A.U. after   13 cycles
 Normal termination of Gaussian 16 at Wed Dec  9 18:54:22 2020.

 ----------------------------------------------------------------------
 # B3LYP/6-311++G(d,p) empiricaldispersion=gd3bj scf=xqc pop=npa geom=c
 heck
 ----------------------------------------------------------------------

 -------------------------------------
 CID_141790268_JID_2859_Energie_kation
 -------------------------------------
 Structure from the checkpoint file:  "JID_2859.chk"
 Charge =  1 Multiplicity = 2

 SCF Done:  E(UB3LYP) =  -537.221174220     A.U. after   22 cycles
 Normal termination of Gaussian 16 at Wed Dec  9 19:01:15 2020.
 Gaussian 16:  ES64L-G16RevA.03 25-Dec-2016

 ----------------------------------------------------------------------
 # B3LYP/6-311++G(d,p) empiricaldispersion=gd3bj scf=xqc pop=npa geom=c
 heck
 ----------------------------------------------------------------------

 ------------------------------------
 CID_141790268_JID_2859_Energie_anion
 ------------------------------------
 Structure from the checkpoint file:  "JID_2859.chk"
 Charge = -1 Multiplicity = 2

                         Standard orientation:
 ---------------------------------------------------------------------
 Center     Atomic      Atomic             Coordinates (Angstroms)
 Number     Number       Type             X           Y           Z
 ---------------------------------------------------------------------
      1          6           0        3.307274    0.139079    0.674294
      2          6           0        1.858514    0.014550    0.200736
      3          6           0        1.687981    0.419361   -1.271990
      4          6           0        0.257693    0.135478   -1.755071
      5          6           0       -0.753086    0.644430   -0.775160
      6          7           0       -2.047788    0.823746   -0.979816
      7          6           0       -2.559676    1.233661    0.233091
      8          6           0       -1.567818    1.297738    1.179836
      9          7           0       -0.411422    0.913654    0.525629
     10          6           0        0.938887    0.873955    1.075898
     11          6           0       -1.487695   -2.385217    0.496041
     12          8           0       -0.214291   -2.760805   -0.027701
     13          1           0        3.963244   -0.516377    0.091437
     14          1           0        3.411548   -0.135796    1.730912
     15          1           0        3.673670    1.166932    0.557858
     16          1           0        1.527247   -1.027158    0.297998
     17          1           0        1.921689    1.488496   -1.381890
     18          1           0        2.404853   -0.128533   -1.894157
     19          1           0        0.067003    0.584852   -2.734905
     20          1           0        0.125836   -0.948430   -1.864326
     21          1           0       -3.611607    1.455731    0.353234
     22          1           0       -1.561580    1.581229    2.221902
     23          1           0        0.888671    0.474263    2.094836
     24          1           0        1.333243    1.898118    1.141256
     25          1           0       -1.938389   -1.704072   -0.226505
     26          1           0       -1.402971   -1.853571    1.454279
     27          1           0       -2.149284   -3.253678    0.626357
     28          1           0        0.183192   -3.395574    0.586577
 ---------------------------------------------------------------------

 SCF Done:  E(UB3LYP) =  -537.504962355     A.U. after   29 cycles

 The electronic state is 2-A.
 Alpha  occ. eigenvalues --  -19.01193 -14.26383 -14.18649 -10.12182 -10.10921
 Alpha  occ. eigenvalues --  -10.09583 -10.09277 -10.08209 -10.07484 -10.07380
 Alpha  occ. eigenvalues --  -10.07165 -10.05694  -0.91571  -0.90839  -0.78545
 Alpha  occ. eigenvalues --   -0.72113  -0.66654  -0.62842  -0.58926  -0.57064
 Alpha  occ. eigenvalues --   -0.53998  -0.49990  -0.48478  -0.43716  -0.41675
 Alpha  occ. eigenvalues --   -0.39796  -0.37462  -0.34986  -0.34800  -0.34150
 Alpha  occ. eigenvalues --   -0.33291  -0.32729  -0.31941  -0.31397  -0.30213
 Alpha  occ. eigenvalues --   -0.28547  -0.27409  -0.25687  -0.23808  -0.23479
 Alpha  occ. eigenvalues --   -0.22714  -0.22436  -0.17075  -0.16887  -0.16673
 Alpha  occ. eigenvalues --   -0.12361   0.04466
 Alpha virt. eigenvalues --    0.07039   0.07359   0.08245   0.09075   0.09314
 Alpha virt. eigenvalues --    0.09916   0.10248   0.11001   0.11773   0.12082
 Alpha virt. eigenvalues --    0.12673   0.12816   0.13410   0.14097   0.14422

  Beta  occ. eigenvalues --  -19.01145 -14.26382 -14.18646 -10.12180 -10.10887
  Beta  occ. eigenvalues --  -10.09556 -10.09266 -10.08208 -10.07479 -10.07369
  Beta  occ. eigenvalues --  -10.07152 -10.05652  -0.91562  -0.90736  -0.78533
  Beta  occ. eigenvalues --   -0.72094  -0.66628  -0.62817  -0.58867  -0.56960
  Beta  occ. eigenvalues --   -0.53952  -0.49970  -0.48432  -0.43680  -0.41638
  Beta  occ. eigenvalues --   -0.39665  -0.37421  -0.34958  -0.34777  -0.34121
  Beta  occ. eigenvalues --   -0.33259  -0.32696  -0.31910  -0.31357  -0.30179
  Beta  occ. eigenvalues --   -0.28513  -0.27381  -0.25663  -0.23764  -0.23436
  Beta  occ. eigenvalues --   -0.22661  -0.22404  -0.17065  -0.16844  -0.16653
  Beta  occ. eigenvalues --   -0.12352
  Beta virt. eigenvalues --    0.07028   0.07767   0.08209   0.08647   0.09471
  Beta virt. eigenvalues --    0.09681   0.10371   0.10798   0.11331   0.12223
  Beta virt. eigenvalues --    0.12409   0.12998   0.13126   0.13717   0.14377

 Mulliken charges and spin densities:
               1          2
     1  C    1.197356  -1.764836
     2  C   -2.113752   2.400385
     3  C    0.240010  -0.548639
     4  C   -0.168810  -0.358952
     5  C   -0.112127  -0.073537
     6  N   -0.143309   0.028783
     7  C    0.228305  -0.303330
     8  C    0.126306  -0.191514
     9  N   -0.038281   0.187447
    10  C    1.230483  -1.869348
    11  C    0.398170  -0.799105
    12  O   -0.296691  -0.005749
    13  H   -0.418336   0.568574
    14  H   -0.535148   0.690827
    15  H   -0.157082   0.283636
    16  H    0.668045  -0.459530
    17  H    0.084012   0.057237
    18  H   -0.064584   0.228022
    19  H    0.133185   0.056964
    20  H    0.229888  -0.015903
    21  H    0.113891   0.036132
    22  H   -0.448975   0.600690
    23  H   -0.315506   0.520466
    24  H   -0.099750   0.303263
    25  H    0.102653   0.043357
    26  H   -0.237047   0.376909
    27  H   -0.271519   0.409564
    28  H   -0.331385   0.598186
 Sum of Mulliken charges =  -1.00000   1.00000

 Dipole moment (field-independent basis, Debye):
    X=             -3.0550    Y=              4.2158    Z=             -3.9015  Tot=              6.5059
 Quadrupole moment (field-independent basis, Debye-Ang):
   XX=           -125.0864   YY=           -122.4980   ZZ=           -114.4735
   XY=              2.7672   XZ=            -10.5216   YZ=              3.4945

 Summary of Natural Population Analysis:

                                       Natural Population
                Natural  -----------------------------------------------
    Atom  No    Charge         Core      Valence    Rydberg      Total
 -----------------------------------------------------------------------
      C    1   -0.28153      0.99965     2.27586    0.00602     3.28153
      C    2   -0.12821      0.99959     2.11780    0.01081     3.12821
      C    3   -0.18280      0.99962     2.17470    0.00848     3.18280
      C    4   -0.21170      0.99959     2.20443    0.00768     3.21170
      C    5    0.20104      0.99960     1.78146    0.01791     2.79896
      N    6   -0.26806      0.99970     2.75939    0.00897     3.76806
      C    7   -0.03780      0.99958     2.02414    0.01408     3.03780
      C    8   -0.03957      0.99955     2.02807    0.01195     3.03957
      N    9   -0.20843      0.99961     2.69783    0.01100     3.70843
      C   10   -0.07371      0.99958     2.06268    0.01144     3.07371
      C   11   -0.10332      0.99963     2.09277    0.01092     3.10332
      O   12   -0.37167      0.99990     3.36377    0.00801     4.37167
      H   13    0.10195      0.00000     0.39679    0.00125     0.39805
      H   14    0.10485      0.00000     0.39326    0.00189     0.39515
      H   15    0.09473      0.00000     0.40401    0.00126     0.40527
      H   16    0.11280      0.00000     0.38407    0.00313     0.38720
      H   17    0.09214      0.00000     0.40665    0.00122     0.40786
      H   18    0.10174      0.00000     0.39742    0.00084     0.39826
      H   19    0.10562      0.00000     0.39323    0.00116     0.39438
      H   20    0.11730      0.00000     0.38086    0.00184     0.38270
      H   21    0.09358      0.00000     0.40556    0.00086     0.40642
      H   22    0.10423      0.00000     0.39470    0.00106     0.39577
      H   23    0.10657      0.00000     0.39078    0.00265     0.39343
      H   24    0.09313      0.00000     0.40542    0.00145     0.40687
      H   25    0.09198      0.00000     0.40630    0.00173     0.40802
      H   26    0.07888      0.00000     0.41921    0.00191     0.42112
      H   27    0.07315      0.00000     0.42565    0.00120     0.42685
      H   28    0.23311      0.00000     0.25654    0.01035     0.26689
 =======================================================================
   * Total *   -0.00000     11.99559    33.84334    0.16107    46.00000

 Normal termination of Gaussian 16 at Wed Dec  9 19:10:18 2020.
