 Gaussian 16, Revision A.03,

 -----------------------------------------------------------
 # opt freq B3LYP/6-31G(d) empiricaldispersion=gd3bj scf=xqc
 -----------------------------------------------------------

 -------------------------------
 CID_132030919_JID_4475_neutraal
 -------------------------------
 Symbolic Z-matrix:
 Charge =  0 Multiplicity = 1

 SCF Done:  E(RB3LYP) =  -698.800094760     A.U. after   15 cycles
 SCF Done:  E(RB3LYP) =  -698.803089424     A.U. after   12 cycles
 SCF Done:  E(RB3LYP) =  -698.803903125     A.U. after   13 cycles
 SCF Done:  E(RB3LYP) =  -698.804179070     A.U. after   12 cycles
 SCF Done:  E(RB3LYP) =  -698.804402012     A.U. after   12 cycles
 SCF Done:  E(RB3LYP) =  -698.804598569     A.U. after   12 cycles
 SCF Done:  E(RB3LYP) =  -698.804414602     A.U. after   15 cycles
 SCF Done:  E(RB3LYP) =  -698.804485834     A.U. after   13 cycles
 SCF Done:  E(RB3LYP) =  -698.804758943     A.U. after   11 cycles
 SCF Done:  E(RB3LYP) =  -698.804943719     A.U. after   12 cycles
 SCF Done:  E(RB3LYP) =  -698.805209233     A.U. after   10 cycles
 SCF Done:  E(RB3LYP) =  -698.805210152     A.U. after    9 cycles
 SCF Done:  E(RB3LYP) =  -698.805211208     A.U. after   10 cycles
 SCF Done:  E(RB3LYP) =  -698.805211338     A.U. after    8 cycles
 Optimization completed.
    -- Stationary point found.
 Normal termination of Gaussian 16 at Thu Dec 10 09:56:54 2020.

 --------------------------------------------------------------------
 #N Geom=AllCheck Guess=TCheck SCRF=Check GenChk RB3LYP/6-31G(d) Freq
 --------------------------------------------------------------------

 Structure from the checkpoint file:  "JID_4475.chk"
 -------------------------------
 CID_132030919_JID_4475_neutraal
 -------------------------------
 Charge =  0 Multiplicity = 1

 SCF Done:  E(RB3LYP) =  -698.805211338     A.U. after    1 cycles

  Exact polarizability: 113.303  -5.465 108.022   9.713   4.988  90.687
 Approx polarizability: 147.400 -13.277 170.601  21.396   9.878 150.287

                      1                      2                      3
                      A                      A                      A
 Frequencies --     22.1392                27.0386                44.3834
 Red. masses --      5.4130                 9.0452                 4.1253
 Frc consts  --      0.0016                 0.0039                 0.0048
 IR Inten    --      0.2222                 4.1830                 0.8970

                      4                      5                      6
                      A                      A                      A
 Frequencies --     58.8383               115.0022               137.7187
 Red. masses --      4.2932                 3.9281                 5.4555
 Frc consts  --      0.0088                 0.0306                 0.0610
 IR Inten    --      1.8715                 0.4326                 0.6439

                      7                      8                      9
                      A                      A                      A
 Frequencies --    139.8264               205.6260               234.6195
 Red. masses --      4.2215                 2.8917                 1.1599
 Frc consts  --      0.0486                 0.0720                 0.0376
 IR Inten    --      0.1624                 8.1779                 0.1816

                     10                     11                     12
                      A                      A                      A
 Frequencies --    246.4660               249.2280               302.5539
 Red. masses --      1.5089                 1.6213                 5.9871
 Frc consts  --      0.0540                 0.0593                 0.3229
 IR Inten    --      1.2545                 1.9300                 4.1186

                     13                     14                     15
                      A                      A                      A
 Frequencies --    353.1228               365.1874               424.3103
 Red. masses --      2.4008                 2.5313                 3.5215
 Frc consts  --      0.1764                 0.1989                 0.3735
 IR Inten    --      2.7672                 3.2449                 7.0927

                     16                     17                     18
                      A                      A                      A
 Frequencies --    454.9526               485.0032               533.2412
 Red. masses --      2.4069                 3.3200                 1.7253
 Frc consts  --      0.2935                 0.4601                 0.2890
 IR Inten    --      8.8020                12.2846               120.1243

                     19                     20                     21
                      A                      A                      A
 Frequencies --    564.0541               604.8180               663.4004
 Red. masses --      1.7258                 2.9730                 2.4067
 Frc consts  --      0.3235                 0.6408                 0.6241
 IR Inten    --     58.3694                18.8130                 4.4912

                     22                     23                     24
                      A                      A                      A
 Frequencies --    703.3727               731.9318               749.3377
 Red. masses --      3.3831                 2.5276                 3.7492
 Frc consts  --      0.9861                 0.7978                 1.2403
 IR Inten    --      5.0192                42.5185                 0.8267

                     25                     26                     27
                      A                      A                      A
 Frequencies --    772.2053               816.6457               869.5636
 Red. masses --     10.2735                 5.3928                 2.8045
 Frc consts  --      3.6094                 2.1190                 1.2494
 IR Inten    --     39.0644                 5.2276                 3.8190

                     28                     29                     30
                      A                      A                      A
 Frequencies --    917.2173               949.6576               957.2765
 Red. masses --      2.6564                 1.1731                 1.4511
 Frc consts  --      1.3167                 0.6233                 0.7835
 IR Inten    --      4.2978                 1.6247                 0.1138

                     31                     32                     33
                      A                      A                      A
 Frequencies --    964.3610              1003.7145              1037.8629
 Red. masses --      2.5046                 2.5749                 7.5741
 Frc consts  --      1.3724                 1.5284                 4.8068
 IR Inten    --      3.7207                31.3790                 8.7886

                     34                     35                     36
                      A                      A                      A
 Frequencies --   1068.4923              1074.9797              1126.7846
 Red. masses --      2.6314                 3.8307                 5.1801
 Frc consts  --      1.7701                 2.6081                 3.8750
 IR Inten    --     54.0617                10.0089                 4.5867

                     37                     38                     39
                      A                      A                      A
 Frequencies --   1152.9565              1172.2254              1188.5585
 Red. masses --      2.6114                 2.1301                 2.5596
 Frc consts  --      2.0453                 1.7245                 2.1304
 IR Inten    --     19.3112                 9.8668               160.3122

                     40                     41                     42
                      A                      A                      A
 Frequencies --   1195.3800              1219.0213              1225.2968
 Red. masses --      4.2794                 1.7983                 1.6524
 Frc consts  --      3.6029                 1.5745                 1.4617
 IR Inten    --     86.6324                 4.6565                 3.5058

                     43                     44                     45
                      A                      A                      A
 Frequencies --   1268.8599              1298.1397              1345.9865
 Red. masses --      5.5956                 1.3762                 2.5278
 Frc consts  --      5.3080                 1.3664                 2.6982
 IR Inten    --      2.6208                11.8504               299.7090

                     46                     47                     48
                      A                      A                      A
 Frequencies --   1368.4964              1383.5396              1390.1965
 Red. masses --      1.5892                 1.8044                 1.3132
 Frc consts  --      1.7536                 2.0350                 1.4953
 IR Inten    --     22.9422                17.3412                 3.8140

                     49                     50                     51
                      A                      A                      A
 Frequencies --   1417.0800              1428.3133              1442.5430
 Red. masses --      1.2447                 1.3444                 1.3478
 Frc consts  --      1.4727                 1.6159                 1.6524
 IR Inten    --      8.0103                17.5196                80.9340

                     52                     53                     54
                      A                      A                      A
 Frequencies --   1444.7109              1485.2028              1491.5925
 Red. masses --      1.4754                 1.5395                 2.2113
 Frc consts  --      1.8143                 2.0008                 2.8986
 IR Inten    --     32.9763                29.3812                 4.0280

                     55                     56                     57
                      A                      A                      A
 Frequencies --   1504.6831              1509.5924              1519.4699
 Red. masses --      1.1309                 1.0502                 1.1058
 Frc consts  --      1.5086                 1.4101                 1.5043
 IR Inten    --      9.9765                 1.1694                17.4985

                     58                     59                     60
                      A                      A                      A
 Frequencies --   1523.0885              1531.0849              1551.2404
 Red. masses --      1.1572                 1.0501                 1.0604
 Frc consts  --      1.5816                 1.4503                 1.5034
 IR Inten    --     35.1801                 1.6837                19.2232

                     61                     62                     63
                      A                      A                      A
 Frequencies --   1560.0014              1817.5301              3059.3992
 Red. masses --      4.1271                 8.5853                 1.0385
 Frc consts  --      5.9175                16.7097                 5.7268
 IR Inten    --     23.3640               373.5498                19.8095

                     64                     65                     66
                      A                      A                      A
 Frequencies --   3062.8582              3065.6226              3078.6029
 Red. masses --      1.0426                 1.0694                 1.0821
 Frc consts  --      5.7625                 5.9217                 6.0429
 IR Inten    --     13.8362                12.7690                32.6185

                     67                     68                     69
                      A                      A                      A
 Frequencies --   3092.5375              3123.2456              3126.2810
 Red. masses --      1.0604                 1.1016                 1.1021
 Frc consts  --      5.9751                 6.3313                 6.3467
 IR Inten    --     35.1481                14.3615                40.4111

                     70                     71                     72
                      A                      A                      A
 Frequencies --   3136.6697              3156.2209              3168.8529
 Red. masses --      1.1044                 1.0967                 1.1002
 Frc consts  --      6.4022                 6.4366                 6.5091
 IR Inten    --      6.6233                11.2090                 2.8465

                     73                     74                     75
                      A                      A                      A
 Frequencies --   3174.0615              3635.4027              3649.2350
 Red. masses --      1.0997                 1.0769                 1.0833
 Frc consts  --      6.5278                 8.3856                 8.4999
 IR Inten    --     15.0767                37.7188                96.6043

 - Thermochemistry -
 -------------------
 Temperature   298.150 Kelvin.  Pressure   1.00000 Atm.
 Atom     1 has atomic number  6 and mass  12.00000

 Molecular mass:   199.10692 amu.
 Principal axes and moments of inertia in atomic units:
                           1         2         3
     Eigenvalues --  1462.674924140.542514589.41389
           X            0.99978  -0.02106   0.00210
           Y            0.02102   0.99961   0.01812
           Z           -0.00248  -0.01807   0.99983
 This molecule is an asymmetric top.
 Rotational symmetry number  1.
 Warning -- assumption of classical behavior for rotation
           may cause significant error
 Rotational temperatures (Kelvin)      0.05922     0.02092     0.01887
 Rotational constants (GHZ):           1.23386     0.43587     0.39324
 Zero-point vibrational energy     585803.6 (Joules/Mol)
                                  140.01042 (Kcal/Mol)
 Warning -- explicit consideration of  20 degrees of freedom as
           vibrations may cause significant error
 Vibrational temperatures:     31.85    38.90    63.86    84.66   165.46
          (Kelvin)            198.15   201.18   295.85   337.57   354.61
                              358.58   435.31   508.06   525.42   610.49
                              654.58   697.81   767.22   811.55   870.20
                              954.49  1012.00  1053.09  1078.13  1111.03
                             1174.97  1251.11  1319.67  1366.35  1377.31
                             1387.50  1444.12  1493.25  1537.32  1546.66
                             1621.19  1658.85  1686.57  1710.07  1719.89
                             1753.90  1762.93  1825.61  1867.73  1936.57
                             1968.96  1990.60  2000.18  2038.86  2055.02
                             2075.50  2078.62  2136.88  2146.07  2164.90
                             2171.97  2186.18  2191.38  2202.89  2231.89
                             2244.49  2615.02  4401.79  4406.77  4410.75
                             4429.42  4449.47  4493.65  4498.02  4512.97
                             4541.10  4559.27  4566.77  5230.53  5250.44

 Zero-point correction=                           0.223121 (Hartree/Particle)
 Thermal correction to Energy=                    0.237120
 Thermal correction to Enthalpy=                  0.238064
 Thermal correction to Gibbs Free Energy=         0.179895
 Sum of electronic and zero-point Energies=           -698.582091
 Sum of electronic and thermal Energies=              -698.568092
 Sum of electronic and thermal Enthalpies=            -698.567148
 Sum of electronic and thermal Free Energies=         -698.625317

                     E (Thermal)             CV                S
                      KCal/Mol        Cal/Mol-Kelvin    Cal/Mol-Kelvin
 Total                  148.795             50.451            122.427
 Electronic               0.000              0.000              0.000
 Translational            0.889              2.981             41.771
 Rotational               0.889              2.981             31.697
 Vibrational            147.017             44.489             48.959
 Vibration     1          0.593              1.985              6.432
 Vibration     2          0.593              1.984              6.036
 Vibration     3          0.595              1.980              5.053
 Vibration     4          0.596              1.974              4.496
 Vibration     5          0.608              1.937              3.183
 Vibration     6          0.614              1.916              2.835
 Vibration     7          0.615              1.913              2.806
 Vibration     8          0.640              1.832              2.082
 Vibration     9          0.654              1.788              1.843
 Vibration    10          0.661              1.769              1.756
 Vibration    11          0.662              1.764              1.736
 Vibration    12          0.694              1.669              1.403
 Vibration    13          0.729              1.569              1.152
 Vibration    14          0.738              1.544              1.100
 Vibration    15          0.786              1.417              0.877
 Vibration    16          0.813              1.350              0.781
 Vibration    17          0.841              1.283              0.697
 Vibration    18          0.888              1.176              0.580
 Vibration    19          0.920              1.109              0.516
 Vibration    20          0.963              1.022              0.441

                           ! Non-Optimized Parameters !
 Normal termination of Gaussian 16 at Thu Dec 10 10:03:48 2020.

 ----------------------------------------------------------------------
 # B3LYP/6-311++G(d,p) empiricaldispersion=gd3bj scf=xqc pop=npa geom=c
 heck
 ----------------------------------------------------------------------

 ---------------------------------------
 CID_132030919_JID_4475_Energie_neutraal
 ---------------------------------------
 Structure from the checkpoint file:  "JID_4475.chk"
 Charge =  0 Multiplicity = 1

 SCF Done:  E(RB3LYP) =  -699.008256816     A.U. after   15 cycles
 Normal termination of Gaussian 16 at Thu Dec 10 10:06:19 2020.

 ----------------------------------------------------------------------
 # B3LYP/6-311++G(d,p) empiricaldispersion=gd3bj scf=xqc pop=npa geom=c
 heck
 ----------------------------------------------------------------------

 -------------------------------------
 CID_132030919_JID_4475_Energie_kation
 -------------------------------------
 Structure from the checkpoint file:  "JID_4475.chk"
 Charge =  1 Multiplicity = 2

 SCF Done:  E(UB3LYP) =  -698.667698271     A.U. after   33 cycles
 SCF Done:  E(UB3LYP) =  -698.667698271     a.u. after    1 cycles
 Normal termination of Gaussian 16 at Thu Dec 10 10:14:16 2020.
 Gaussian 16:  ES64L-G16RevA.03 25-Dec-2016

 ----------------------------------------------------------------------
 # B3LYP/6-311++G(d,p) empiricaldispersion=gd3bj scf=xqc pop=npa geom=c
 heck
 ----------------------------------------------------------------------

 ------------------------------------
 CID_132030919_JID_4475_Energie_anion
 ------------------------------------
 Structure from the checkpoint file:  "JID_4475.chk"
 Charge = -1 Multiplicity = 2

                         Standard orientation:
 ---------------------------------------------------------------------
 Center     Atomic      Atomic             Coordinates (Angstroms)
 Number     Number       Type             X           Y           Z
 ---------------------------------------------------------------------
      1          6           0       -3.950006    0.208012    0.143504
      2          6           0       -2.688797    0.470411   -0.672320
      3          6           0       -2.113962    1.873627   -0.499968
      4          8           0       -1.675730   -0.550998   -0.436267
      5          6           0       -1.084876   -0.619673    0.782282
      6          8           0       -1.396254    0.027894    1.766991
      7          7           0       -0.078690   -1.550141    0.772554
      8          6           0        0.529002   -2.107457   -0.427432
      9          6           0        1.168589   -1.053821   -1.357760
     10          6           0        1.997846   -0.078257   -0.592799
     11          7           0        1.851207    1.244457   -0.663275
     12          7           0        2.759827    1.649235    0.221216
     13          7           0        3.430302    0.673129    0.820882
     14          7           0        2.953431   -0.436815    0.311423
     15          1           0       -3.763612    0.367577    1.206602
     16          1           0       -4.293641   -0.820673   -0.006809
     17          1           0       -4.745320    0.886183   -0.186243
     18          1           0       -2.910456    0.306293   -1.731671
     19          1           0       -1.932916    2.092877    0.553530
     20          1           0       -1.169349    1.970292   -1.045626
     21          1           0       -2.822148    2.608038   -0.899922
     22          1           0        0.489415   -1.515837    1.607317
     23          1           0        1.293295   -2.810777   -0.088849
     24          1           0       -0.220805   -2.670323   -0.989995
     25          1           0        1.782721   -1.569056   -2.106576
     26          1           0        0.390020   -0.500802   -1.885282
     27          1           0        2.919353    2.624932    0.435100
 ---------------------------------------------------------------------

 SCF Done:  E(UB3LYP) =  -698.996725661     A.U. after   33 cycles
 SCF Done:  E(UB3LYP) =  -698.997490593     a.u. after    6 cycles

 The electronic state is 2-A.
 Alpha  occ. eigenvalues --  -19.05851 -18.99287 -14.31375 -14.27307 -14.24520
 Alpha  occ. eigenvalues --  -14.23733 -14.23347 -10.21807 -10.13506 -10.12653
 Alpha  occ. eigenvalues --  -10.11704 -10.08458 -10.06307 -10.05635  -1.03596
 Alpha  occ. eigenvalues --   -1.00394  -0.91442  -0.83783  -0.83274  -0.77875
 Alpha  occ. eigenvalues --   -0.69212  -0.67087  -0.59427  -0.58101  -0.57154
 Alpha  occ. eigenvalues --   -0.55135  -0.50694  -0.46443  -0.45085  -0.40904
 Alpha  occ. eigenvalues --   -0.40390  -0.39253  -0.37675  -0.37123  -0.35809
 Alpha  occ. eigenvalues --   -0.34711  -0.33049  -0.31746  -0.30742  -0.29870
 Alpha  occ. eigenvalues --   -0.28447  -0.28213  -0.26917  -0.26209  -0.25776
 Alpha  occ. eigenvalues --   -0.24154  -0.21935  -0.21000  -0.20103  -0.18823
 Alpha  occ. eigenvalues --   -0.18520  -0.17653  -0.16267   0.04509
 Alpha virt. eigenvalues --    0.06145   0.06887   0.07171   0.08492   0.08970
 Alpha virt. eigenvalues --    0.09675   0.10342   0.10788   0.12044   0.12416
 Alpha virt. eigenvalues --    0.12856   0.13347   0.13644   0.14481   0.14699

  Beta  occ. eigenvalues --  -19.05846 -18.99283 -14.31175 -14.27110 -14.24388
  Beta  occ. eigenvalues --  -14.23729 -14.23334 -10.21806 -10.13490 -10.12667
  Beta  occ. eigenvalues --  -10.11691 -10.08448 -10.06289 -10.05619  -1.03350
  Beta  occ. eigenvalues --   -1.00384  -0.91434  -0.83547  -0.83243  -0.77662
  Beta  occ. eigenvalues --   -0.69178  -0.67029  -0.59392  -0.58055  -0.56868
  Beta  occ. eigenvalues --   -0.55105  -0.50611  -0.46366  -0.44958  -0.40877
  Beta  occ. eigenvalues --   -0.40282  -0.38868  -0.37612  -0.36988  -0.35755
  Beta  occ. eigenvalues --   -0.34685  -0.32950  -0.31723  -0.30705  -0.29826
  Beta  occ. eigenvalues --   -0.28410  -0.28112  -0.26862  -0.26153  -0.25748
  Beta  occ. eigenvalues --   -0.24124  -0.21257  -0.20793  -0.20074  -0.18688
  Beta  occ. eigenvalues --   -0.17982  -0.17605  -0.16241
  Beta virt. eigenvalues --    0.06833   0.07619   0.08166   0.08412   0.08784
  Beta virt. eigenvalues --    0.09486   0.09916   0.10662   0.11021   0.12257
  Beta virt. eigenvalues --    0.12565   0.12928   0.13447   0.13795   0.14518

 Mulliken charges and spin densities:
               1          2
     1  C    0.464947  -0.941497
     2  C   -0.409203   0.455064
     3  C    0.301096  -0.794858
     4  O   -0.022130   0.004763
     5  C    0.153688  -0.225243
     6  O   -0.289263   0.008640
     7  N   -0.156735   0.063461
     8  C    0.199241  -0.772409
     9  C    0.325317  -0.315391
    10  C   -0.836668   0.200950
    11  N   -0.025432   0.091260
    12  N    0.295604  -0.284164
    13  N    0.118319   0.041802
    14  N   -0.154355  -0.024174
    15  H    0.106577   0.061986
    16  H   -0.003287   0.141920
    17  H   -0.160970   0.305969
    18  H   -0.712709   0.884275
    19  H    0.057876   0.125177
    20  H    0.184828  -0.036772
    21  H   -0.206147   0.348895
    22  H    0.255732   0.049847
    23  H    0.207771  -0.039058
    24  H   -0.231239   0.436433
    25  H   -0.252426   0.437168
    26  H    0.241446  -0.023919
    27  H   -0.451877   0.799876
 Sum of Mulliken charges =  -1.00000   1.00000

 Dipole moment (field-independent basis, Debye):
    X=             -0.1665    Y=             -3.4442    Z=              0.7892  Tot=              3.5373
 Quadrupole moment (field-independent basis, Debye-Ang):
   XX=           -149.3043   YY=           -121.1175   ZZ=           -116.7791
   XY=             -4.8683   XZ=            -10.3050   YZ=             -3.6707

 Summary of Natural Population Analysis:

                                       Natural Population
                Natural  -----------------------------------------------
    Atom  No    Charge         Core      Valence    Rydberg      Total
 -----------------------------------------------------------------------
      C    1   -0.30080      0.99964     2.29498    0.00619     3.30080
      C    2    0.06644      0.99956     1.92037    0.01363     2.93356
      C    3   -0.30364      0.99964     2.29789    0.00611     3.30364
      O    4   -0.29657      0.99986     3.28694    0.00976     4.29657
      C    5    0.46402      0.99969     1.51079    0.02549     2.53598
      O    6   -0.33388      0.99987     3.32929    0.00472     4.33388
      N    7   -0.32870      0.99968     2.81966    0.00936     3.82870
      C    8   -0.08532      0.99962     2.07336    0.01234     3.08532
      C    9   -0.21796      0.99958     2.20990    0.00849     3.21796
      C   10    0.14896      0.99966     1.83168    0.01971     2.85104
      N   11   -0.13217      0.99969     2.61977    0.01270     3.63217
      N   12   -0.05472      0.99975     2.53874    0.01623     3.55472
      N   13   -0.01204      0.99979     2.49447    0.01778     3.51204
      N   14   -0.16893      0.99971     2.65616    0.01306     3.66893
      H   15    0.11052      0.00000     0.38857    0.00091     0.38948
      H   16    0.10106      0.00000     0.39801    0.00093     0.39894
      H   17    0.10130      0.00000     0.39776    0.00094     0.39870
      H   18    0.09149      0.00000     0.40619    0.00232     0.40851
      H   19    0.11034      0.00000     0.38863    0.00103     0.38966
      H   20    0.10890      0.00000     0.38949    0.00161     0.39110
      H   21    0.10073      0.00000     0.39827    0.00100     0.39927
      H   22    0.19916      0.00000     0.29888    0.00196     0.30084
      H   23    0.10019      0.00000     0.39869    0.00111     0.39981
      H   24    0.10214      0.00000     0.39653    0.00133     0.39786
      H   25    0.10769      0.00000     0.39105    0.00126     0.39231
      H   26    0.11644      0.00000     0.38182    0.00174     0.38356
      H   27    0.20535      0.00000     0.28232    0.01233     0.29465
 =======================================================================
   * Total *    0.00000     13.99573    38.80023    0.20404    53.00000

 Normal termination of Gaussian 16 at Thu Dec 10 10:52:25 2020.
