 Gaussian 16, Revision A.03,

 -----------------------------------------------------------
 # opt freq B3LYP/6-31G(d) empiricaldispersion=gd3bj scf=xqc
 -----------------------------------------------------------

 -------------------------------
 CID_146124966_JID_9127_neutraal
 -------------------------------
 Symbolic Z-matrix:
 Charge =  0 Multiplicity = 1

 SCF Done:  E(RB3LYP) =  -911.597333618     A.U. after   16 cycles
 SCF Done:  E(RB3LYP) =  -911.602173251     A.U. after   13 cycles
 SCF Done:  E(RB3LYP) =  -911.596799846     A.U. after   14 cycles
 SCF Done:  E(RB3LYP) =  -911.604546613     A.U. after   12 cycles
 SCF Done:  E(RB3LYP) =  -911.605453295     A.U. after   13 cycles
 SCF Done:  E(RB3LYP) =  -911.606824794     A.U. after   12 cycles
 SCF Done:  E(RB3LYP) =  -911.607306818     A.U. after   12 cycles
 SCF Done:  E(RB3LYP) =  -911.607686632     A.U. after   12 cycles
 SCF Done:  E(RB3LYP) =  -911.607873137     A.U. after   12 cycles
 SCF Done:  E(RB3LYP) =  -911.608079378     A.U. after   12 cycles
 SCF Done:  E(RB3LYP) =  -911.609146428     A.U. after    9 cycles
 SCF Done:  E(RB3LYP) =  -911.609146909     A.U. after    8 cycles
 SCF Done:  E(RB3LYP) =  -911.609147128     A.U. after    8 cycles
 SCF Done:  E(RB3LYP) =  -911.609147185     A.U. after    7 cycles
 SCF Done:  E(RB3LYP) =  -911.609147213     A.U. after    7 cycles
 Optimization completed.
    -- Stationary point found.
 Normal termination of Gaussian 16 at Sun Dec 13 16:28:32 2020.

 --------------------------------------------------------------------
 #N Geom=AllCheck Guess=TCheck SCRF=Check GenChk RB3LYP/6-31G(d) Freq
 --------------------------------------------------------------------

 Structure from the checkpoint file:  "JID_9127.chk"
 -------------------------------
 CID_146124966_JID_9127_neutraal
 -------------------------------
 Charge =  0 Multiplicity = 1

 SCF Done:  E(RB3LYP) =  -911.609147213     A.U. after    1 cycles

  Exact polarizability: 214.727  -3.490 145.965 -15.149  -2.217 109.787
 Approx polarizability: 272.984  -1.147 238.568 -22.391 -20.374 176.158

                      1                      2                      3
                      A                      A                      A
 Frequencies --     17.2044                31.3469                38.2707
 Red. masses --      4.9727                 4.5692                 4.1450
 Frc consts  --      0.0009                 0.0026                 0.0036
 IR Inten    --      0.5669                 0.8672                 0.6530

                      4                      5                      6
                      A                      A                      A
 Frequencies --     55.7632                83.0548               111.7243
 Red. masses --      5.0089                 3.7152                 2.9465
 Frc consts  --      0.0092                 0.0151                 0.0217
 IR Inten    --      0.8012                 0.8806                 1.9541

                      7                      8                      9
                      A                      A                      A
 Frequencies --    114.6814               116.8635               143.9367
 Red. masses --      1.3004                 2.1886                 3.0149
 Frc consts  --      0.0101                 0.0176                 0.0368
 IR Inten    --      1.3183                 4.2472                 0.7819

                     10                     11                     12
                      A                      A                      A
 Frequencies --    153.8131               162.2303               167.8372
 Red. masses --      1.5823                 2.3143                 1.3146
 Frc consts  --      0.0221                 0.0359                 0.0218
 IR Inten    --      0.5497                 0.7186                 0.9094

                     13                     14                     15
                      A                      A                      A
 Frequencies --    180.9710               203.5996               225.0674
 Red. masses --      1.4887                 2.0946                 3.2102
 Frc consts  --      0.0287                 0.0512                 0.0958
 IR Inten    --      1.4378                 4.0304                 9.1935

                     16                     17                     18
                      A                      A                      A
 Frequencies --    249.8366               270.7908               297.8664
 Red. masses --      3.8173                 2.8045                 2.8467
 Frc consts  --      0.1404                 0.1212                 0.1488
 IR Inten    --      3.0915                 2.5546                 0.3430

                     19                     20                     21
                      A                      A                      A
 Frequencies --    323.7951               348.4211               364.6339
 Red. masses --      3.9018                 5.5829                 4.8795
 Frc consts  --      0.2410                 0.3993                 0.3822
 IR Inten    --      1.2557                 1.8322                 3.3491

                     22                     23                     24
                      A                      A                      A
 Frequencies --    373.7992               403.4643               447.7180
 Red. masses --      3.2460                 3.3071                 4.8375
 Frc consts  --      0.2672                 0.3172                 0.5713
 IR Inten    --      1.9040                 1.0659                 6.5652

                     25                     26                     27
                      A                      A                      A
 Frequencies --    523.9185               554.5563               580.5257
 Red. masses --      4.6755                 4.5025                 2.0604
 Frc consts  --      0.7561                 0.8158                 0.4091
 IR Inten    --      8.1839                 6.7990                54.1917

                     28                     29                     30
                      A                      A                      A
 Frequencies --    606.7543               611.1207               625.6931
 Red. masses --      2.5902                 4.5300                 2.8717
 Frc consts  --      0.5618                 0.9968                 0.6624
 IR Inten    --     16.6177                 3.4775                20.4961

                     31                     32                     33
                      A                      A                      A
 Frequencies --    638.3226               678.4039               721.3366
 Red. masses --      5.6420                 3.9573                 3.8019
 Frc consts  --      1.3545                 1.0731                 1.1655
 IR Inten    --      0.2389                22.3002                44.3712

                     34                     35                     36
                      A                      A                      A
 Frequencies --    742.4530               752.8712               756.5677
 Red. masses --      1.3776                 8.0140                 6.3342
 Frc consts  --      0.4474                 2.6763                 2.1362
 IR Inten    --     14.1631                13.6405                 5.8295

                     37                     38                     39
                      A                      A                      A
 Frequencies --    789.1071               795.5721               903.2601
 Red. masses --      6.6419                 7.1252                13.4213
 Frc consts  --      2.4368                 2.6571                 6.4516
 IR Inten    --      8.9548                26.7973                37.5972

                     40                     41                     42
                      A                      A                      A
 Frequencies --    952.8507               964.2517               984.8377
 Red. masses --      4.9358                 2.2991                 1.9658
 Frc consts  --      2.6403                 1.2595                 1.1233
 IR Inten    --     23.7203                46.6019                29.4629

                     43                     44                     45
                      A                      A                      A
 Frequencies --   1030.6999              1045.9048              1071.7015
 Red. masses --      1.5503                 5.7732                 2.8136
 Frc consts  --      0.9704                 3.7209                 1.9040
 IR Inten    --      2.7606                 0.8512                11.6650

                     46                     47                     48
                      A                      A                      A
 Frequencies --   1075.2376              1078.4469              1082.5879
 Red. masses --      4.1035                 1.4664                 1.5075
 Frc consts  --      2.7952                 1.0048                 1.0410
 IR Inten    --     16.5917                 2.3326                 1.9414

                     49                     50                     51
                      A                      A                      A
 Frequencies --   1099.2243              1120.0731              1140.5418
 Red. masses --      1.4364                 3.7183                 1.2337
 Frc consts  --      1.0226                 2.7485                 0.9455
 IR Inten    --     11.4836                36.9854                 3.7524

                     52                     53                     54
                      A                      A                      A
 Frequencies --   1166.3027              1184.0573              1186.1653
 Red. masses --      4.0425                 2.1715                 1.7740
 Frc consts  --      3.2399                 1.7937                 1.4706
 IR Inten    --     22.2850                45.0510                17.4678

                     55                     56                     57
                      A                      A                      A
 Frequencies --   1248.9186              1255.4325              1260.1769
 Red. masses --      1.9037                 2.7954                 2.1024
 Frc consts  --      1.7495                 2.5959                 1.9671
 IR Inten    --     27.0736                27.9079                 7.3781

                     58                     59                     60
                      A                      A                      A
 Frequencies --   1293.3399              1298.8534              1316.6837
 Red. masses --      2.0142                 3.0622                 3.4589
 Frc consts  --      1.9851                 3.0437                 3.5330
 IR Inten    --    177.2855                28.7515                33.1463

                     61                     62                     63
                      A                      A                      A
 Frequencies --   1372.0726              1411.2157              1427.6845
 Red. masses --      2.6313                 2.3021                 1.8735
 Frc consts  --      2.9186                 2.7012                 2.2499
 IR Inten    --    124.9508                37.0587                20.2950

                     64                     65                     66
                      A                      A                      A
 Frequencies --   1447.0728              1452.2743              1456.4615
 Red. masses --      1.8015                 3.6637                 1.4052
 Frc consts  --      2.2226                 4.5526                 1.7562
 IR Inten    --     34.9207               142.8488                25.4566

                     67                     68                     69
                      A                      A                      A
 Frequencies --   1469.2408              1488.4196              1502.2741
 Red. masses --      1.1501                 1.3069                 1.3732
 Frc consts  --      1.4627                 1.7059                 1.8259
 IR Inten    --      3.0749                 9.5779                19.0417

                     70                     71                     72
                      A                      A                      A
 Frequencies --   1506.5805              1508.1653              1513.1444
 Red. masses --      1.1346                 1.2479                 1.0527
 Frc consts  --      1.5173                 1.6724                 1.4201
 IR Inten    --     25.9541                13.1040                 9.4702

                     73                     74                     75
                      A                      A                      A
 Frequencies --   1515.7894              1520.9890              1523.1045
 Red. masses --      1.0864                 1.0808                 1.0605
 Frc consts  --      1.4706                 1.4732                 1.4495
 IR Inten    --     15.5579                25.4277                34.9539

                     76                     77                     78
                      A                      A                      A
 Frequencies --   1531.3968              1535.5562              1538.7888
 Red. masses --      1.0547                 1.0899                 1.1253
 Frc consts  --      1.4573                 1.5141                 1.5699
 IR Inten    --     18.8255                15.6461                 4.8632

                     79                     80                     81
                      A                      A                      A
 Frequencies --   1609.8638              1641.2533              1657.2733
 Red. masses --      5.2236                 5.0717                 7.1806
 Frc consts  --      7.9763                 8.0493                11.6199
 IR Inten    --     81.5553               134.3261               300.9662

                     82                     83                     84
                      A                      A                      A
 Frequencies --   1660.5136              1763.8273              3009.5276
 Red. masses --      7.8773                 7.9937                 1.0535
 Frc consts  --     12.7972                14.6524                 5.6219
 IR Inten    --    113.0145               350.4051                58.1134

                     85                     86                     87
                      A                      A                      A
 Frequencies --   3015.1402              3019.2090              3050.0941
 Red. masses --      1.0740                 1.0528                 1.0411
 Frc consts  --      5.7526                 5.6543                 5.7065
 IR Inten    --     26.2968                93.6981                31.3017

                     88                     89                     90
                      A                      A                      A
 Frequencies --   3057.5664              3100.7487              3102.3421
 Red. masses --      1.0386                 1.0863                 1.0998
 Frc consts  --      5.7210                 6.1537                 6.2367
 IR Inten    --     19.0430                31.1682                13.2913

                     91                     92                     93
                      A                      A                      A
 Frequencies --   3107.8824              3113.0236              3140.2202
 Red. masses --      1.0845                 1.0985                 1.1022
 Frc consts  --      6.1720                 6.2720                 6.4036
 IR Inten    --     28.7874                15.9477                 9.9471

                     94                     95                     96
                      A                      A                      A
 Frequencies --   3147.1608              3161.4347              3175.9564
 Red. masses --      1.0878                 1.1031                 1.0979
 Frc consts  --      6.3481                 6.4959                 6.5247
 IR Inten    --      1.5764                 8.8021                 0.6526

                     97                     98                     99
                      A                      A                      A
 Frequencies --   3184.6983              3293.9729              3596.3575
 Red. masses --      1.0982                 1.0985                 1.0757
 Frc consts  --      6.5627                 7.0228                 8.1971
 IR Inten    --      3.5443                 0.7487                31.5654

 - Thermochemistry -
 -------------------
 Temperature   298.150 Kelvin.  Pressure   1.00000 Atm.
 Atom     1 has atomic number  6 and mass  12.00000

 Molecular mass:   264.12224 amu.
 Principal axes and moments of inertia in atomic units:
                           1         2         3
     Eigenvalues --  2042.08684********************
           X            0.99994   0.00129  -0.01122
           Y           -0.00095   0.99953   0.03055
           Z            0.01126  -0.03053   0.99947
 This molecule is an asymmetric top.
 Rotational symmetry number  1.
 Warning -- assumption of classical behavior for rotation
           may cause significant error
 Rotational temperatures (Kelvin)      0.04241     0.00844     0.00781
 Rotational constants (GHZ):           0.88377     0.17595     0.16266
 Zero-point vibrational energy     743788.6 (Joules/Mol)
                                  177.76973 (Kcal/Mol)
 Warning -- explicit consideration of  29 degrees of freedom as
           vibrations may cause significant error
 Vibrational temperatures:     24.75    45.10    55.06    80.23   119.50
          (Kelvin)            160.75   165.00   168.14   207.09   221.30
                              233.41   241.48   260.38   292.93   323.82
                              359.46   389.61   428.56   465.87   501.30
                              524.63   537.81   580.50   644.17   753.80
                              797.88   835.25   872.98   879.27   900.23
                              918.40   976.07  1037.84  1068.22  1083.21
                             1088.53  1135.35  1144.65  1299.59  1370.94
                             1387.34  1416.96  1482.95  1504.82  1541.94
                             1547.03  1551.64  1557.60  1581.54  1611.54
                             1640.99  1678.05  1703.59  1706.63  1796.92
                             1806.29  1813.11  1860.83  1868.76  1894.41
                             1974.11  2030.42  2054.12  2082.02  2089.50
                             2095.52  2113.91  2141.50  2161.44  2167.63
                             2169.91  2177.08  2180.88  2188.36  2191.41
                             2203.34  2209.32  2213.97  2316.23  2361.40
                             2384.45  2389.11  2537.75  4330.04  4338.11
                             4343.97  4388.41  4399.16  4461.29  4463.58
                             4471.55  4478.95  4518.08  4528.06  4548.60
                             4569.49  4582.07  4739.29  5174.36

 Zero-point correction=                           0.283294 (Hartree/Particle)
 Thermal correction to Energy=                    0.302537
 Thermal correction to Enthalpy=                  0.303481
 Thermal correction to Gibbs Free Energy=         0.233640
 Sum of electronic and zero-point Energies=           -911.325853
 Sum of electronic and thermal Energies=              -911.306611
 Sum of electronic and thermal Enthalpies=            -911.305666
 Sum of electronic and thermal Free Energies=         -911.375507

                     E (Thermal)             CV                S
                      KCal/Mol        Cal/Mol-Kelvin    Cal/Mol-Kelvin
 Total                  189.845             69.238            146.993
 Electronic               0.000              0.000              0.000
 Translational            0.889              2.981             42.613
 Rotational               0.889              2.981             33.807
 Vibrational            188.067             63.276             70.573
 Vibration     1          0.593              1.986              6.933
 Vibration     2          0.594              1.983              5.742
 Vibration     3          0.594              1.982              5.347
 Vibration     4          0.596              1.975              4.602
 Vibration     5          0.600              1.961              3.817
 Vibration     6          0.607              1.940              3.239
 Vibration     7          0.608              1.937              3.188
 Vibration     8          0.608              1.935              3.152
 Vibration     9          0.616              1.909              2.751
 Vibration    10          0.619              1.898              2.625
 Vibration    11          0.622              1.889              2.524
 Vibration    12          0.625              1.882              2.460
 Vibration    13          0.630              1.866              2.318
 Vibration    14          0.639              1.835              2.100
 Vibration    15          0.650              1.803              1.918
 Vibration    16          0.663              1.763              1.732
 Vibration    17          0.674              1.727              1.591
 Vibration    18          0.691              1.678              1.429
 Vibration    19          0.708              1.628              1.291
 Vibration    20          0.726              1.578              1.173
 Vibration    21          0.738              1.545              1.102
 Vibration    22          0.745              1.526              1.064
 Vibration    23          0.769              1.463              0.950
 Vibration    24          0.807              1.366              0.803
 Vibration    25          0.879              1.197              0.601
 Vibration    26          0.910              1.130              0.535
 Vibration    27          0.937              1.073              0.484
 Vibration    28          0.965              1.017              0.438
 Vibration    29          0.970              1.008              0.431

                           ! Non-Optimized Parameters !
 Normal termination of Gaussian 16 at Sun Dec 13 16:45:28 2020.

 ----------------------------------------------------------------------
 # B3LYP/6-311++G(d,p) empiricaldispersion=gd3bj scf=xqc pop=npa geom=c
 heck
 ----------------------------------------------------------------------

 ---------------------------------------
 CID_146124966_JID_9127_Energie_neutraal
 ---------------------------------------
 Structure from the checkpoint file:  "JID_9127.chk"
 Charge =  0 Multiplicity = 1

 SCF Done:  E(RB3LYP) =  -911.861382569     A.U. after   16 cycles
 Normal termination of Gaussian 16 at Sun Dec 13 16:53:04 2020.

 ----------------------------------------------------------------------
 # B3LYP/6-311++G(d,p) empiricaldispersion=gd3bj scf=xqc pop=npa geom=c
 heck
 ----------------------------------------------------------------------

 -------------------------------------
 CID_146124966_JID_9127_Energie_kation
 -------------------------------------
 Structure from the checkpoint file:  "JID_9127.chk"
 Charge =  1 Multiplicity = 2

 SCF Done:  E(UB3LYP) =  -911.574253431     A.U. after   31 cycles
 Normal termination of Gaussian 16 at Sun Dec 13 17:14:19 2020.
 Gaussian 16:  ES64L-G16RevA.03 25-Dec-2016

 ----------------------------------------------------------------------
 # B3LYP/6-311++G(d,p) empiricaldispersion=gd3bj scf=xqc pop=npa geom=c
 heck
 ----------------------------------------------------------------------

 ------------------------------------
 CID_146124966_JID_9127_Energie_anion
 ------------------------------------
 Structure from the checkpoint file:  "JID_9127.chk"
 Charge = -1 Multiplicity = 2

                         Standard orientation:
 ---------------------------------------------------------------------
 Center     Atomic      Atomic             Coordinates (Angstroms)
 Number     Number       Type             X           Y           Z
 ---------------------------------------------------------------------
      1          6           0       -0.681744   -1.537189   -1.097481
      2          6           0       -2.075249   -1.210531   -0.642217
      3          6           0       -3.128438   -2.068404   -0.579973
      4          8           0       -4.267213   -1.422365   -0.175004
      5          6           0       -3.951497   -0.112153    0.008191
      6          6           0       -2.615841    0.078596   -0.244374
      7          6           0       -1.963829    1.411377   -0.206740
      8          8           0       -2.504552    2.420826   -0.648712
      9          7           0       -0.691455    1.484084    0.323126
     10          6           0       -0.122131    0.596519    1.310666
     11          6           0        1.261016    0.149448    0.941755
     12          7           0        2.082924    0.704560    0.105655
     13          6           0        3.192133   -0.126828    0.190733
     14          7           0        3.073818   -1.123331    1.055705
     15          8           0        1.744833   -0.937802    1.549889
     16          7           0        4.291614    0.053099   -0.593639
     17          6           0        4.543703    1.364002   -1.173053
     18          6           0        5.446965   -0.791229   -0.335318
     19          6           0       -5.045228    0.798090    0.434522
     20          1           0       -0.696566   -2.340955   -1.840027
     21          1           0       -0.041716   -1.873877   -0.273575
     22          1           0       -0.199567   -0.666283   -1.550209
     23          1           0       -3.239474   -3.118151   -0.804696
     24          1           0       -0.297381    2.415557    0.266485
     25          1           0       -0.077179    1.081933    2.297702
     26          1           0       -0.765791   -0.276996    1.426868
     27          1           0        5.124391    2.010050   -0.496217
     28          1           0        5.108289    1.238997   -2.102412
     29          1           0        3.593405    1.849303   -1.393222
     30          1           0        6.021533   -0.453275    0.540535
     31          1           0        5.115171   -1.815357   -0.153775
     32          1           0        6.098581   -0.773682   -1.213573
     33          1           0       -5.888208    0.740438   -0.263567
     34          1           0       -5.421785    0.533658    1.430469
     35          1           0       -4.675717    1.824304    0.443621
 ---------------------------------------------------------------------

 SCF Done:  E(UB3LYP) =  -911.852772962     A.U. after   33 cycles
 SCF Done:  E(UB3LYP) =  -911.852772962     a.u. after    1 cycles

 The electronic state is 2-A.
 Alpha  occ. eigenvalues --  -19.11203 -19.10664 -18.99598 -14.24872 -14.24807
 Alpha  occ. eigenvalues --  -14.24777 -14.22075 -10.18658 -10.17921 -10.16881
 Alpha  occ. eigenvalues --  -10.14914 -10.14068 -10.13540 -10.10602 -10.10344
 Alpha  occ. eigenvalues --  -10.10316 -10.09289 -10.09285 -10.08806  -1.05742
 Alpha  occ. eigenvalues --   -1.03249  -0.94825  -0.88448  -0.84404  -0.81915
 Alpha  occ. eigenvalues --   -0.76005  -0.73824  -0.70656  -0.65354  -0.63541
 Alpha  occ. eigenvalues --   -0.62798  -0.60476  -0.59933  -0.55792  -0.51768
 Alpha  occ. eigenvalues --   -0.49713  -0.48648  -0.46053  -0.43796  -0.43145
 Alpha  occ. eigenvalues --   -0.42184  -0.39948  -0.38908  -0.38313  -0.37740
 Alpha  occ. eigenvalues --   -0.36689  -0.36265  -0.35681  -0.33864  -0.33532
 Alpha  occ. eigenvalues --   -0.32712  -0.32459  -0.32075  -0.31723  -0.31554
 Alpha  occ. eigenvalues --   -0.30983  -0.30767  -0.30131  -0.29877  -0.29382
 Alpha  occ. eigenvalues --   -0.27282  -0.25066  -0.24289  -0.20389  -0.20096
 Alpha  occ. eigenvalues --   -0.19355  -0.17752  -0.16556  -0.14312  -0.12987
 Alpha  occ. eigenvalues --    0.03991
 Alpha virt. eigenvalues --    0.05564   0.06272   0.06350   0.06900   0.07826
 Alpha virt. eigenvalues --    0.08024   0.08454   0.08716   0.09223   0.09566
 Alpha virt. eigenvalues --    0.10324   0.11028   0.11319   0.11660   0.11747

  Beta  occ. eigenvalues --  -19.11154 -19.10638 -18.99539 -14.24877 -14.24768
  Beta  occ. eigenvalues --  -14.24752 -14.22072 -10.18608 -10.17830 -10.16869
  Beta  occ. eigenvalues --  -10.14831 -10.14046 -10.13541 -10.10570 -10.10342
  Beta  occ. eigenvalues --  -10.10273 -10.09295 -10.09282 -10.08798  -1.05654
  Beta  occ. eigenvalues --   -1.03196  -0.94724  -0.88424  -0.84341  -0.81878
  Beta  occ. eigenvalues --   -0.75907  -0.73800  -0.70573  -0.65267  -0.63511
  Beta  occ. eigenvalues --   -0.62744  -0.60455  -0.59866  -0.55705  -0.51687
  Beta  occ. eigenvalues --   -0.49646  -0.48593  -0.46000  -0.43741  -0.43096
  Beta  occ. eigenvalues --   -0.42021  -0.39843  -0.38780  -0.38232  -0.37662
  Beta  occ. eigenvalues --   -0.36605  -0.36190  -0.35636  -0.33820  -0.33444
  Beta  occ. eigenvalues --   -0.32655  -0.32382  -0.32034  -0.31677  -0.31505
  Beta  occ. eigenvalues --   -0.30933  -0.30718  -0.30107  -0.29693  -0.29344
  Beta  occ. eigenvalues --   -0.27238  -0.24925  -0.24214  -0.20276  -0.19928
  Beta  occ. eigenvalues --   -0.19271  -0.17671  -0.16433  -0.14125  -0.12832
  Beta virt. eigenvalues --    0.06011   0.06475   0.06676   0.06874   0.07564
  Beta virt. eigenvalues --    0.08247   0.08315   0.08618   0.09202   0.09645
  Beta virt. eigenvalues --    0.09864   0.10500   0.11036   0.11373   0.11739

 Mulliken charges and spin densities:
               1          2
     1  C   -1.278654   0.203444
     2  C    0.896700  -0.143928
     3  C    0.011688  -0.229685
     4  O   -0.030158   0.018549
     5  C   -0.430641   0.251091
     6  C    0.494542   0.254736
     7  C   -0.496518  -0.110359
     8  O   -0.329960   0.019854
     9  N   -0.187970   0.079326
    10  C    0.195538  -1.125102
    11  C   -0.140703  -0.065969
    12  N   -0.092592   0.075812
    13  C    0.099859   0.252866
    14  N   -0.428001   0.092139
    15  O    0.218188   0.013390
    16  N   -0.150679   0.220505
    17  C    0.753973  -1.105044
    18  C    0.421486  -0.738470
    19  C    0.150675  -0.663455
    20  H    0.042788   0.129710
    21  H    0.152985   0.028834
    22  H    0.205045   0.005155
    23  H    0.054623   0.128136
    24  H    0.203633   0.125486
    25  H   -0.842063   1.087258
    26  H    0.267742  -0.025794
    27  H   -0.384914   0.545561
    28  H   -0.285859   0.429157
    29  H    0.084216   0.083615
    30  H   -0.084455   0.258846
    31  H   -0.008651   0.173689
    32  H   -0.305892   0.441464
    33  H    0.124940   0.019057
    34  H   -0.073886   0.236778
    35  H    0.172971   0.033350
 Sum of Mulliken charges =  -1.00000   1.00000

 Dipole moment (field-independent basis, Debye):
    X=             -6.4713    Y=             -3.7904    Z=             -1.2891  Tot=              7.6096
 Quadrupole moment (field-independent basis, Debye-Ang):
   XX=           -216.3946   YY=           -148.9976   ZZ=           -150.3807
   XY=              1.6466   XZ=              5.0985   YZ=              1.9093

 Summary of Natural Population Analysis:

                                       Natural Population
                Natural  -----------------------------------------------
    Atom  No    Charge         Core      Valence    Rydberg      Total
 -----------------------------------------------------------------------
      C    1   -0.30128      0.99963     2.29642    0.00523     3.30128
      C    2   -0.04648      0.99950     2.03930    0.00768     3.04648
      C    3    0.04930      0.99942     1.93809    0.01319     2.95070
      O    4   -0.23450      0.99986     3.22717    0.00747     4.23450
      C    5    0.19641      0.99944     1.78892    0.01522     2.80359
      C    6   -0.11870      0.99936     2.10947    0.00987     3.11870
      C    7    0.34414      0.99961     1.63332    0.02293     2.65586
      O    8   -0.31485      0.99988     3.30988    0.00509     4.31485
      N    9   -0.31140      0.99968     2.80203    0.00969     3.81140
      C   10   -0.11965      0.99956     2.10855    0.01155     3.11965
      C   11    0.30082      0.99963     1.67922    0.02033     2.69918
      N   12   -0.28122      0.99965     2.77250    0.00908     3.78122
      C   13    0.26852      0.99960     1.71299    0.01888     2.73148
      N   14   -0.12631      0.99968     2.61568    0.01096     3.62631
      O   15   -0.17449      0.99985     3.16685    0.00779     4.17449
      N   16   -0.25013      0.99964     2.73979    0.01070     3.75013
      C   17   -0.17364      0.99964     2.16594    0.00806     3.17364
      C   18   -0.17527      0.99964     2.16715    0.00847     3.17527
      C   19   -0.31085      0.99962     2.30651    0.00471     3.31085
      H   20    0.10512      0.00000     0.39403    0.00085     0.39488
      H   21    0.10886      0.00000     0.38975    0.00139     0.39114
      H   22    0.11335      0.00000     0.38551    0.00115     0.38665
      H   23    0.09428      0.00000     0.40478    0.00095     0.40572
      H   24    0.19798      0.00000     0.29970    0.00232     0.30202
      H   25    0.11536      0.00000     0.37861    0.00603     0.38464
      H   26    0.11748      0.00000     0.38090    0.00162     0.38252
      H   27    0.08994      0.00000     0.40812    0.00194     0.41006
      H   28    0.09547      0.00000     0.40301    0.00152     0.40453
      H   29    0.11073      0.00000     0.38758    0.00169     0.38927
      H   30    0.09165      0.00000     0.40685    0.00150     0.40835
      H   31    0.10673      0.00000     0.39185    0.00142     0.39327
      H   32    0.09689      0.00000     0.40192    0.00119     0.40311
      H   33    0.10630      0.00000     0.39271    0.00099     0.39370
      H   34    0.10695      0.00000     0.39162    0.00143     0.39305
      H   35    0.12249      0.00000     0.37665    0.00086     0.37751
 =======================================================================
   * Total *    0.00000     18.99289    50.77336    0.23375    70.00000

 Normal termination of Gaussian 16 at Sun Dec 13 17:37:43 2020.
