 Gaussian 16, Revision A.03,

 -----------------------------------------------------------
 # opt freq B3LYP/6-31G(d) empiricaldispersion=gd3bj scf=xqc
 -----------------------------------------------------------

 ------------------------------
 CID_68721390_JID_2369_neutraal
 ------------------------------
 Symbolic Z-matrix:
 Charge =  0 Multiplicity = 1

 SCF Done:  E(RB3LYP) =  -504.083991481     A.U. after   13 cycles
 SCF Done:  E(RB3LYP) =  -504.086390513     A.U. after   11 cycles
 SCF Done:  E(RB3LYP) =  -504.086596187     A.U. after   11 cycles
 SCF Done:  E(RB3LYP) =  -504.086628616     A.U. after   10 cycles
 SCF Done:  E(RB3LYP) =  -504.086643274     A.U. after    9 cycles
 SCF Done:  E(RB3LYP) =  -504.086649912     A.U. after    9 cycles
 SCF Done:  E(RB3LYP) =  -504.086651946     A.U. after    8 cycles
 SCF Done:  E(RB3LYP) =  -504.086653107     A.U. after    7 cycles
 SCF Done:  E(RB3LYP) =  -504.086653322     A.U. after    7 cycles
 SCF Done:  E(RB3LYP) =  -504.086653418     A.U. after    6 cycles
 SCF Done:  E(RB3LYP) =  -504.086654934     A.U. after    9 cycles
 SCF Done:  E(RB3LYP) =  -504.086655688     A.U. after    9 cycles
 SCF Done:  E(RB3LYP) =  -504.086656475     A.U. after    8 cycles
 SCF Done:  E(RB3LYP) =  -504.086656743     A.U. after    8 cycles
 SCF Done:  E(RB3LYP) =  -504.086656779     A.U. after    7 cycles
 Optimization completed.
    -- Stationary point found.
 Normal termination of Gaussian 16 at Wed Dec  9 17:15:40 2020.

 --------------------------------------------------------------------
 #N Geom=AllCheck Guess=TCheck SCRF=Check GenChk RB3LYP/6-31G(d) Freq
 --------------------------------------------------------------------

 Structure from the checkpoint file:  "JID_2369.chk"
 ------------------------------
 CID_68721390_JID_2369_neutraal
 ------------------------------
 Charge =  0 Multiplicity = 1

 SCF Done:  E(RB3LYP) =  -504.086656779     A.U. after    1 cycles

  Exact polarizability: 152.739  -5.189 121.060  12.203   0.920  76.153
 Approx polarizability: 208.934  -5.149 197.550  24.534   2.445 110.983

                      1                      2                      3
                      A                      A                      A
 Frequencies --     27.9222                58.7296                71.6526
 Red. masses --      1.0203                 3.0800                 3.8409
 Frc consts  --      0.0005                 0.0063                 0.0116
 IR Inten    --      0.2599                 0.8361                 0.2525

                      4                      5                      6
                      A                      A                      A
 Frequencies --     83.7765               152.2496               172.9437
 Red. masses --      3.9234                 1.0940                 3.3260
 Frc consts  --      0.0162                 0.0149                 0.0586
 IR Inten    --      1.1179                 0.2360                 0.4535

                      7                      8                      9
                      A                      A                      A
 Frequencies --    209.5588               267.5492               273.3555
 Red. masses --      2.5570                 1.1573                 2.1591
 Frc consts  --      0.0662                 0.0488                 0.0951
 IR Inten    --      1.6893                 5.5330                 9.6133

                     10                     11                     12
                      A                      A                      A
 Frequencies --    291.4030               300.4818               333.9509
 Red. masses --      2.2346                 1.4109                 3.3799
 Frc consts  --      0.1118                 0.0751                 0.2221
 IR Inten    --      9.1910                58.6339                 9.2529

                     13                     14                     15
                      A                      A                      A
 Frequencies --    361.0294               419.1767               450.2070
 Red. masses --      2.6019                 2.6353                 2.8899
 Frc consts  --      0.1998                 0.2728                 0.3451
 IR Inten    --     23.4571                 5.3232                 9.9592

                     16                     17                     18
                      A                      A                      A
 Frequencies --    456.2952               475.3565               532.8028
 Red. masses --      2.1005                 2.9334                 4.0819
 Frc consts  --      0.2577                 0.3905                 0.6827
 IR Inten    --      3.3241                 4.8803                 2.2936

                     19                     20                     21
                      A                      A                      A
 Frequencies --    563.8732               575.8593               732.1441
 Red. masses --      4.2733                 3.3651                 3.7989
 Frc consts  --      0.8005                 0.6575                 1.1998
 IR Inten    --      0.6723                 3.1901                 0.1258

                     22                     23                     24
                      A                      A                      A
 Frequencies --    737.8254               804.9850               830.6555
 Red. masses --      4.8972                 2.5445                 2.0248
 Frc consts  --      1.5707                 0.9715                 0.8231
 IR Inten    --      0.5012                 2.7847                 9.5663

                     25                     26                     27
                      A                      A                      A
 Frequencies --    856.5348               896.8552               908.7065
 Red. masses --      1.9927                 1.2866                 1.4135
 Frc consts  --      0.8614                 0.6097                 0.6877
 IR Inten    --      7.8584                 1.3970                 0.6740

                     28                     29                     30
                      A                      A                      A
 Frequencies --    955.4113               957.2432               965.4955
 Red. masses --      1.5332                 2.5718                 1.8587
 Frc consts  --      0.8246                 1.3885                 1.0209
 IR Inten    --      4.8493                 0.5521                14.3856

                     31                     32                     33
                      A                      A                      A
 Frequencies --   1017.6585              1046.5270              1064.7853
 Red. masses --      1.5138                 1.5164                 1.5841
 Frc consts  --      0.9237                 0.9785                 1.0582
 IR Inten    --      0.3802                10.1522                48.1420

                     34                     35                     36
                      A                      A                      A
 Frequencies --   1074.9264              1075.3397              1105.8523
 Red. masses --      1.5045                 1.5146                 2.2674
 Frc consts  --      1.0243                 1.0319                 1.6337
 IR Inten    --      4.4994                11.6159                65.5109

                     37                     38                     39
                      A                      A                      A
 Frequencies --   1139.1273              1158.5482              1197.0801
 Red. masses --      2.0938                 2.0968                 1.5374
 Frc consts  --      1.6007                 1.6582                 1.2980
 IR Inten    --     25.2969                42.2266                 3.6196

                     40                     41                     42
                      A                      A                      A
 Frequencies --   1219.6107              1243.2068              1284.6871
 Red. masses --      1.3796                 1.8962                 3.3700
 Frc consts  --      1.2090                 1.7268                 3.2769
 IR Inten    --      6.3013                 0.3671                 3.1649

                     43                     44                     45
                      A                      A                      A
 Frequencies --   1296.7203              1331.7729              1352.2487
 Red. masses --      1.4739                 1.4412                 3.2258
 Frc consts  --      1.4602                 1.5060                 3.4754
 IR Inten    --     11.5559                 0.1413                 1.7389

                     46                     47                     48
                      A                      A                      A
 Frequencies --   1368.8502              1394.8486              1427.8279
 Red. masses --      1.6639                 1.3573                 1.2132
 Frc consts  --      1.8369                 1.5559                 1.4573
 IR Inten    --      4.9772                 7.5857                27.7023

                     49                     50                     51
                      A                      A                      A
 Frequencies --   1440.4837              1442.3258              1445.0725
 Red. masses --      1.2843                 1.2495                 1.2497
 Frc consts  --      1.5701                 1.5314                 1.5375
 IR Inten    --     41.6760                 1.1818                 7.4797

                     52                     53                     54
                      A                      A                      A
 Frequencies --   1455.9397              1514.3090              1516.2954
 Red. masses --      2.7125                 1.0796                 1.0675
 Frc consts  --      3.3878                 1.4586                 1.4460
 IR Inten    --      1.3238                 0.5491                 1.8705

                     55                     56                     57
                      A                      A                      A
 Frequencies --   1517.9301              1521.7812              1526.8194
 Red. masses --      1.0500                 1.0798                 1.1000
 Frc consts  --      1.4254                 1.4734                 1.5109
 IR Inten    --      6.3157                 2.1411                 8.9073

                     58                     59                     60
                      A                      A                      A
 Frequencies --   1528.4799              1535.5155              1559.3600
 Red. masses --      1.0790                 1.1527                 2.2644
 Frc consts  --      1.4852                 1.6013                 3.2442
 IR Inten    --      7.6805                11.6232                19.0654

                     61                     62                     63
                      A                      A                      A
 Frequencies --   1632.9619              1676.9592              3037.0588
 Red. masses --      5.9011                 5.8280                 1.0442
 Frc consts  --      9.2712                 9.6564                 5.6747
 IR Inten    --      0.2958                 5.5450                11.6434

                     64                     65                     66
                      A                      A                      A
 Frequencies --   3040.4219              3046.0040              3051.7687
 Red. masses --      1.0404                 1.0436                 1.0549
 Frc consts  --      5.6667                 5.7047                 5.7883
 IR Inten    --     38.6076                12.6576                40.9673

                     67                     68                     69
                      A                      A                      A
 Frequencies --   3070.2690              3094.3195              3096.7733
 Red. masses --      1.0840                 1.1019                 1.0958
 Frc consts  --      6.0203                 6.2160                 6.1917
 IR Inten    --     11.7850                26.9821                22.7547

                     70                     71                     72
                      A                      A                      A
 Frequencies --   3100.9178              3112.8735              3124.1950
 Red. masses --      1.0988                 1.0939                 1.1025
 Frc consts  --      6.2249                 6.2450                 6.3401
 IR Inten    --     22.2266                38.1520                16.7583

                     73                     74                     75
                      A                      A                      A
 Frequencies --   3127.6480              3138.6519              3167.5180
 Red. masses --      1.1010                 1.1034                 1.0889
 Frc consts  --      6.3454                 6.4042                 6.4372
 IR Inten    --     19.3347                26.9086                36.1519

                     76                     77                     78
                      A                      A                      A
 Frequencies --   3168.4962              3187.7037              3720.3501
 Red. masses --      1.0872                 1.0943                 1.0657
 Frc consts  --      6.4310                 6.5518                 8.6909
 IR Inten    --      5.2528                23.4443                 7.5765

 - Thermochemistry -
 -------------------
 Temperature   298.150 Kelvin.  Pressure   1.00000 Atm.
 Atom     1 has atomic number  6 and mass  12.00000

 Molecular mass:   164.12012 amu.
 Principal axes and moments of inertia in atomic units:
                           1         2         3
     Eigenvalues --   986.486943511.902433990.06029
           X            0.99992  -0.01214   0.00180
           Y            0.01214   0.99993  -0.00155
           Z           -0.00178   0.00157   1.00000
 This molecule is an asymmetric top.
 Rotational symmetry number  1.
 Warning -- assumption of classical behavior for rotation
           may cause significant error
 Rotational temperatures (Kelvin)      0.08780     0.02466     0.02171
 Rotational constants (GHZ):           1.82946     0.51389     0.45231
 Zero-point vibrational energy     646718.3 (Joules/Mol)
                                  154.56938 (Kcal/Mol)
 Warning -- explicit consideration of  20 degrees of freedom as
           vibrations may cause significant error
 Vibrational temperatures:     40.17    84.50   103.09   120.54   219.05
          (Kelvin)            248.83   301.51   384.94   393.30   419.26
                              432.33   480.48   519.44   603.10   647.75
                              656.51   683.93   766.58   811.29   828.53
                             1053.39  1061.57  1158.19  1195.13  1232.36
                             1290.37  1307.43  1374.62  1377.26  1389.13
                             1464.18  1505.72  1531.99  1546.58  1547.17
                             1591.07  1638.95  1666.89  1722.33  1754.75
                             1788.70  1848.38  1865.69  1916.12  1945.58
                             1969.47  2006.88  2054.33  2072.53  2075.19
                             2079.14  2094.77  2178.75  2181.61  2183.96
                             2189.50  2196.75  2199.14  2209.26  2243.57
                             2349.47  2412.77  4369.65  4374.49  4382.52
                             4390.81  4417.43  4452.04  4455.57  4461.53
                             4478.73  4495.02  4499.99  4515.82  4557.35
                             4558.76  4586.39  5352.75

 Zero-point correction=                           0.246322 (Hartree/Particle)
 Thermal correction to Energy=                    0.259343
 Thermal correction to Enthalpy=                  0.260288
 Thermal correction to Gibbs Free Energy=         0.206343
 Sum of electronic and zero-point Energies=           -503.840335
 Sum of electronic and thermal Energies=              -503.827313
 Sum of electronic and thermal Enthalpies=            -503.826369
 Sum of electronic and thermal Free Energies=         -503.880314

                     E (Thermal)             CV                S
                      KCal/Mol        Cal/Mol-Kelvin    Cal/Mol-Kelvin
 Total                  162.740             48.653            113.536
 Electronic               0.000              0.000              0.000
 Translational            0.889              2.981             41.195
 Rotational               0.889              2.981             31.003
 Vibrational            160.963             42.691             41.338
 Vibration     1          0.593              1.984              5.972
 Vibration     2          0.596              1.974              4.499
 Vibration     3          0.598              1.968              4.107
 Vibration     4          0.601              1.960              3.800
 Vibration     5          0.619              1.900              2.644
 Vibration     6          0.626              1.876              2.403
 Vibration     7          0.642              1.826              2.048
 Vibration     8          0.673              1.733              1.612
 Vibration     9          0.676              1.722              1.575
 Vibration    10          0.687              1.690              1.466
 Vibration    11          0.693              1.673              1.414
 Vibration    12          0.715              1.608              1.241
 Vibration    13          0.735              1.553              1.118
 Vibration    14          0.782              1.429              0.895
 Vibration    15          0.809              1.360              0.795
 Vibration    16          0.815              1.347              0.777
 Vibration    17          0.832              1.305              0.723
 Vibration    18          0.888              1.177              0.581
 Vibration    19          0.920              1.109              0.516
 Vibration    20          0.932              1.083              0.493

 Optimization completed.
    -- Stationary point found.
 Normal termination of Gaussian 16 at Wed Dec  9 17:22:17 2020.

 ----------------------------------------------------------------------
 # B3LYP/6-311++G(d,p) empiricaldispersion=gd3bj scf=xqc pop=npa geom=c
 heck
 ----------------------------------------------------------------------

 --------------------------------------
 CID_68721390_JID_2369_Energie_neutraal
 --------------------------------------
 Structure from the checkpoint file:  "JID_2369.chk"
 Charge =  0 Multiplicity = 1

 SCF Done:  E(RB3LYP) =  -504.232200368     A.U. after   15 cycles
 Normal termination of Gaussian 16 at Wed Dec  9 17:25:05 2020.

 ----------------------------------------------------------------------
 # B3LYP/6-311++G(d,p) empiricaldispersion=gd3bj scf=xqc pop=npa geom=c
 heck
 ----------------------------------------------------------------------

 ------------------------------------
 CID_68721390_JID_2369_Energie_kation
 ------------------------------------
 Structure from the checkpoint file:  "JID_2369.chk"
 Charge =  1 Multiplicity = 2

 SCF Done:  E(UB3LYP) =  -503.932483014     A.U. after   24 cycles
 Normal termination of Gaussian 16 at Wed Dec  9 17:30:47 2020.
 Gaussian 16:  ES64L-G16RevA.03 25-Dec-2016

 ----------------------------------------------------------------------
 # B3LYP/6-311++G(d,p) empiricaldispersion=gd3bj scf=xqc pop=npa geom=c
 heck
 ----------------------------------------------------------------------

 -----------------------------------
 CID_68721390_JID_2369_Energie_anion
 -----------------------------------
 Structure from the checkpoint file:  "JID_2369.chk"
 Charge = -1 Multiplicity = 2

                         Standard orientation:
 ---------------------------------------------------------------------
 Center     Atomic      Atomic             Coordinates (Angstroms)
 Number     Number       Type             X           Y           Z
 ---------------------------------------------------------------------
      1          6           0        4.078064   -0.372281    0.528575
      2          6           0        2.623477   -0.301721    0.132292
      3          6           0        1.963186    0.925453    0.029321
      4          6           0        0.607997    1.027727   -0.306205
      5          6           0       -0.122265   -0.150278   -0.556666
      6          6           0        0.541140   -1.380176   -0.465823
      7          6           0        1.888154   -1.462526   -0.127194
      8          6           0       -1.598413   -0.148483   -0.885778
      9          6           0       -2.488348   -0.593555    0.294164
     10          6           0       -2.420188    0.352594    1.490641
     11          8           0       -3.835564   -0.783251   -0.139417
     12          6           0       -0.025753    2.396460   -0.405453
     13          1           0        4.598170    0.566316    0.311385
     14          1           0        4.188813   -0.566434    1.603727
     15          1           0        4.598212   -1.178448   -0.000181
     16          1           0        2.523620    1.839892    0.214111
     17          1           0       -0.013858   -2.292367   -0.674706
     18          1           0        2.373509   -2.434000   -0.069974
     19          1           0       -1.929151    0.843352   -1.217417
     20          1           0       -1.797673   -0.840371   -1.712259
     21          1           0       -2.161641   -1.590683    0.610346
     22          1           0       -2.781020    1.352047    1.211196
     23          1           0       -3.049964   -0.020121    2.304037
     24          1           0       -1.393493    0.454861    1.856418
     25          1           0       -4.178906    0.089389   -0.391400
     26          1           0       -0.843462    2.523226    0.312996
     27          1           0        0.712337    3.179223   -0.207246
     28          1           0       -0.443273    2.580853   -1.402935
 ---------------------------------------------------------------------

 SCF Done:  E(UB3LYP) =  -504.216908764     A.U. after   33 cycles
 SCF Done:  E(UB3LYP) =  -504.216908764     a.u. after    1 cycles

 The electronic state is 2-A.
 Alpha  occ. eigenvalues --  -19.02056 -10.12413 -10.08197 -10.08169 -10.07823
 Alpha  occ. eigenvalues --  -10.07321 -10.07080 -10.06948 -10.06931 -10.06734
 Alpha  occ. eigenvalues --  -10.06292 -10.05961  -0.92328  -0.76511  -0.70103
 Alpha  occ. eigenvalues --   -0.67104  -0.65450  -0.61076  -0.58918  -0.56131
 Alpha  occ. eigenvalues --   -0.51271  -0.49468  -0.46373  -0.39821  -0.38787
 Alpha  occ. eigenvalues --   -0.38430  -0.35676  -0.34769  -0.33613  -0.32332
 Alpha  occ. eigenvalues --   -0.31290  -0.31128  -0.30682  -0.29656  -0.28964
 Alpha  occ. eigenvalues --   -0.27684  -0.27148  -0.26628  -0.24689  -0.23827
 Alpha  occ. eigenvalues --   -0.23397  -0.22209  -0.18136  -0.14942  -0.13428
 Alpha  occ. eigenvalues --    0.04527
 Alpha virt. eigenvalues --    0.06116   0.07381   0.07812   0.08272   0.08446
 Alpha virt. eigenvalues --    0.08884   0.09380   0.10188   0.10296   0.11141
 Alpha virt. eigenvalues --    0.11248   0.11679   0.12619   0.13457   0.14130

  Beta  occ. eigenvalues --  -19.02022 -10.12411 -10.08196 -10.08165 -10.07818
  Beta  occ. eigenvalues --  -10.07314 -10.07072 -10.06914 -10.06913 -10.06716
  Beta  occ. eigenvalues --  -10.06254 -10.05927  -0.92261  -0.76494  -0.70074
  Beta  occ. eigenvalues --   -0.67076  -0.65415  -0.61028  -0.58863  -0.56078
  Beta  occ. eigenvalues --   -0.51213  -0.49418  -0.46329  -0.39785  -0.38720
  Beta  occ. eigenvalues --   -0.38408  -0.35644  -0.34730  -0.33571  -0.32294
  Beta  occ. eigenvalues --   -0.31255  -0.31092  -0.30648  -0.29609  -0.28917
  Beta  occ. eigenvalues --   -0.27647  -0.27107  -0.26598  -0.24655  -0.23797
  Beta  occ. eigenvalues --   -0.23368  -0.22168  -0.18103  -0.14913  -0.13400
  Beta virt. eigenvalues --    0.06670   0.07441   0.07806   0.08006   0.08520
  Beta virt. eigenvalues --    0.08924   0.09307   0.09815   0.10508   0.10763
  Beta virt. eigenvalues --    0.11358   0.11720   0.12326   0.12760   0.13804

 Mulliken charges and spin densities:
               1          2
     1  C    2.179983  -2.674456
     2  C   -0.162186   0.735830
     3  C    0.863894  -1.440661
     4  C   -2.108069   2.197182
     5  C   -0.165044   0.963671
     6  C   -0.253439  -0.116565
     7  C   -0.823804   0.111268
     8  C   -0.536996   0.457017
     9  C   -0.221099  -0.142374
    10  C    0.388545  -0.950263
    11  O   -0.236237   0.026249
    12  C    2.413201  -3.088616
    13  H   -0.377099   0.523035
    14  H   -0.052144   0.217883
    15  H   -0.239021   0.376667
    16  H   -0.195452   0.336463
    17  H    0.093047   0.046385
    18  H   -0.261895   0.405387
    19  H   -0.296392   0.437665
    20  H   -0.066932   0.268707
    21  H    0.104515   0.052013
    22  H   -0.391213   0.560689
    23  H   -0.001282   0.156039
    24  H    0.149336  -0.000826
    25  H   -0.070933   0.323452
    26  H   -0.089244   0.252494
    27  H   -0.418364   0.567548
    28  H   -0.225675   0.398117
 Sum of Mulliken charges =  -1.00000   1.00000

 Dipole moment (field-independent basis, Debye):
    X=              0.4220    Y=             -3.7566    Z=              0.7721  Tot=              3.8583
 Quadrupole moment (field-independent basis, Debye-Ang):
   XX=           -161.8998   YY=           -117.5808   ZZ=           -103.0417
   XY=              4.6840   XZ=             -2.2698   YZ=              1.5955

 Summary of Natural Population Analysis:

                                       Natural Population
                Natural  -----------------------------------------------
    Atom  No    Charge         Core      Valence    Rydberg      Total
 -----------------------------------------------------------------------
      C    1   -0.29046      0.99964     2.28559    0.00523     3.29046
      C    2   -0.01602      0.99951     2.00605    0.01045     3.01602
      C    3   -0.09774      0.99947     2.08856    0.00972     3.09774
      C    4   -0.00963      0.99947     2.00000    0.01016     3.00963
      C    5   -0.02091      0.99946     2.01069    0.01075     3.02091
      C    6   -0.09340      0.99951     2.08564    0.00825     3.09340
      C    7   -0.10369      0.99951     2.09540    0.00877     3.10369
      C    8   -0.21193      0.99958     2.20116    0.01119     3.21193
      C    9    0.06787      0.99957     1.91921    0.01335     2.93213
      C   10   -0.30032      0.99964     2.29493    0.00575     3.30032
      O   11   -0.37255      0.99990     3.36582    0.00683     4.37255
      C   12   -0.29556      0.99963     2.28984    0.00609     3.29556
      H   13    0.10365      0.00000     0.39484    0.00151     0.39635
      H   14    0.10314      0.00000     0.39552    0.00134     0.39686
      H   15    0.10258      0.00000     0.39587    0.00154     0.39742
      H   16    0.09802      0.00000     0.40051    0.00147     0.40198
      H   17    0.09665      0.00000     0.40204    0.00131     0.40335
      H   18    0.09730      0.00000     0.40152    0.00118     0.40270
      H   19    0.10419      0.00000     0.39393    0.00187     0.39581
      H   20    0.10621      0.00000     0.39251    0.00128     0.39379
      H   21    0.08285      0.00000     0.41552    0.00163     0.41715
      H   22    0.09887      0.00000     0.39925    0.00188     0.40113
      H   23    0.10129      0.00000     0.39786    0.00085     0.39871
      H   24    0.10532      0.00000     0.39365    0.00103     0.39468
      H   25    0.22826      0.00000     0.26701    0.00473     0.27174
      H   26    0.10703      0.00000     0.39139    0.00158     0.39297
      H   27    0.10309      0.00000     0.39568    0.00123     0.39691
      H   28    0.10588      0.00000     0.39274    0.00137     0.39412
 =======================================================================
   * Total *    0.00000     11.99490    32.87273    0.13237    45.00000

 Normal termination of Gaussian 16 at Wed Dec  9 17:38:37 2020.
