 Gaussian 16, Revision A.03,

 -----------------------------------------------------------
 # opt freq B3LYP/6-31G(d) empiricaldispersion=gd3bj scf=xqc
 -----------------------------------------------------------

 -------------------------------
 CID_112712265_JID_3526_neutraal
 -------------------------------
 Symbolic Z-matrix:
 Charge =  0 Multiplicity = 1

 SCF Done:  E(RB3LYP) =  -590.180122114     A.U. after   14 cycles
 SCF Done:  E(RB3LYP) =  -590.191528483     A.U. after   12 cycles
 SCF Done:  E(RB3LYP) =  -590.193272535     A.U. after   12 cycles
 SCF Done:  E(RB3LYP) =  -590.193329982     A.U. after   12 cycles
 SCF Done:  E(RB3LYP) =  -590.193684003     A.U. after   11 cycles
 SCF Done:  E(RB3LYP) =  -590.193767191     A.U. after   10 cycles
 SCF Done:  E(RB3LYP) =  -590.193775304     A.U. after   10 cycles
 SCF Done:  E(RB3LYP) =  -590.193777405     A.U. after    8 cycles
 SCF Done:  E(RB3LYP) =  -590.193777914     A.U. after    8 cycles
 SCF Done:  E(RB3LYP) =  -590.193778129     A.U. after    7 cycles
 SCF Done:  E(RB3LYP) =  -590.193778250     A.U. after    7 cycles
 Optimization completed.
    -- Stationary point found.
 Normal termination of Gaussian 16 at Wed Dec  9 23:33:05 2020.

 --------------------------------------------------------------------
 #N Geom=AllCheck Guess=TCheck SCRF=Check GenChk RB3LYP/6-31G(d) Freq
 --------------------------------------------------------------------

 Structure from the checkpoint file:  "JID_3526.chk"
 -------------------------------
 CID_112712265_JID_3526_neutraal
 -------------------------------
 Charge =  0 Multiplicity = 1

 SCF Done:  E(RB3LYP) =  -590.193778250     A.U. after    1 cycles

  Exact polarizability: 135.835   0.870 113.205  -5.861  -1.495  78.923
 Approx polarizability: 189.355  -7.315 191.700 -18.185   1.670 124.123

                      1                      2                      3
                      A                      A                      A
 Frequencies --     51.6631                68.1631               138.9284
 Red. masses --      4.0230                 4.4838                 3.4046
 Frc consts  --      0.0063                 0.0123                 0.0387
 IR Inten    --      2.6785                 4.6992                 1.2891

                      4                      5                      6
                      A                      A                      A
 Frequencies --    148.0621               193.7726               231.3167
 Red. masses --      4.3983                 3.1411                 3.7089
 Frc consts  --      0.0568                 0.0695                 0.1169
 IR Inten    --      3.1274                 4.4087                 6.5349

                      7                      8                      9
                      A                      A                      A
 Frequencies --    285.7460               315.7616               322.1307
 Red. masses --      1.3916                 4.7538                 3.1533
 Frc consts  --      0.0669                 0.2793                 0.1928
 IR Inten    --     37.7031                 0.9832                 5.5549

                     10                     11                     12
                      A                      A                      A
 Frequencies --    342.8526               385.1398               421.3741
 Red. masses --      2.7628                 2.8347                 2.7473
 Frc consts  --      0.1913                 0.2477                 0.2874
 IR Inten    --      3.0872                14.4540                20.6599

                     13                     14                     15
                      A                      A                      A
 Frequencies --    465.1116               495.7040               563.6618
 Red. masses --      2.7453                 5.0914                 3.0903
 Frc consts  --      0.3499                 0.7371                 0.5785
 IR Inten    --     32.0274                17.4606                10.3456

                     16                     17                     18
                      A                      A                      A
 Frequencies --    576.0765               642.8491               647.4762
 Red. masses --      3.5606                 2.0804                 1.5471
 Frc consts  --      0.6962                 0.5065                 0.3821
 IR Inten    --      1.8127                40.9987                80.7105

                     19                     20                     21
                      A                      A                      A
 Frequencies --    670.8840               732.3020               757.2797
 Red. masses --      2.0928                 3.2484                 2.0827
 Frc consts  --      0.5550                 1.0264                 0.7037
 IR Inten    --     70.0282                85.8957                18.2239

                     22                     23                     24
                      A                      A                      A
 Frequencies --    778.8226               791.6764               837.1718
 Red. masses --      2.3024                 2.4782                 1.4329
 Frc consts  --      0.8228                 0.9151                 0.5917
 IR Inten    --     31.8148                 8.8740                10.3916

                     25                     26                     27
                      A                      A                      A
 Frequencies --    876.7223               896.9135               901.3415
 Red. masses --      2.1276                 2.3883                 1.6410
 Frc consts  --      0.9635                 1.1320                 0.7855
 IR Inten    --     58.8704                10.8946                28.6848

                     28                     29                     30
                      A                      A                      A
 Frequencies --    941.3134               959.3670               972.1858
 Red. masses --      3.2464                 2.9070                 1.2735
 Frc consts  --      1.6948                 1.5764                 0.7092
 IR Inten    --      8.9942                 5.7578                 1.9015

                     31                     32                     33
                      A                      A                      A
 Frequencies --    996.7859              1007.3965              1049.4187
 Red. masses --      1.7527                 2.7648                 2.4858
 Frc consts  --      1.0260                 1.6532                 1.6129
 IR Inten    --     34.0567                 8.2913                12.6795

                     34                     35                     36
                      A                      A                      A
 Frequencies --   1074.7535              1109.3159              1123.0434
 Red. masses --      2.7949                 2.2432                 2.2589
 Frc consts  --      1.9021                 1.6264                 1.6786
 IR Inten    --     17.4030                 7.4914                12.8419

                     37                     38                     39
                      A                      A                      A
 Frequencies --   1128.3909              1161.4790              1169.1581
 Red. masses --      1.6728                 2.0836                 2.1731
 Frc consts  --      1.2549                 1.6561                 1.7502
 IR Inten    --     22.1209                 9.1164                 6.9741

                     40                     41                     42
                      A                      A                      A
 Frequencies --   1201.2803              1206.8700              1230.1199
 Red. masses --      1.2378                 1.6730                 1.9301
 Frc consts  --      1.0524                 1.4357                 1.7208
 IR Inten    --      4.4793                 3.1350                17.2651

                     43                     44                     45
                      A                      A                      A
 Frequencies --   1268.6021              1292.1110              1301.9923
 Red. masses --      1.2420                 1.2553                 1.3618
 Frc consts  --      1.1777                 1.2348                 1.3601
 IR Inten    --     27.2000                 3.1812                 6.5753

                     46                     47                     48
                      A                      A                      A
 Frequencies --   1337.6172              1348.1840              1360.5203
 Red. masses --      1.2113                 1.3487                 1.7998
 Frc consts  --      1.2770                 1.4444                 1.9628
 IR Inten    --      4.4726                 1.4205                11.2564

                     49                     50                     51
                      A                      A                      A
 Frequencies --   1387.2773              1391.9784              1422.3772
 Red. masses --      1.5472                 1.7034                 1.3895
 Frc consts  --      1.7544                 1.9446                 1.6563
 IR Inten    --      2.9741                 2.7742                 7.4563

                     52                     53                     54
                      A                      A                      A
 Frequencies --   1426.1221              1453.4601              1470.9207
 Red. masses --      1.3822                 1.7746                 1.1936
 Frc consts  --      1.6563                 2.2088                 1.5216
 IR Inten    --     18.3207                 8.3247               105.4743

                     55                     56                     57
                      A                      A                      A
 Frequencies --   1529.4362              1623.2198              1644.2826
 Red. masses --      1.0888                 8.2269                 7.7713
 Frc consts  --      1.5005                12.7714                12.3794
 IR Inten    --      8.6595                 3.5516                 9.8285

                     58                     59                     60
                      A                      A                      A
 Frequencies --   1682.7666              1699.2510              2876.0229
 Red. masses --      1.1425                 5.1544                 1.0756
 Frc consts  --      1.9061                 8.7689                 5.2420
 IR Inten    --     40.3374                 1.9757                16.1764

                     61                     62                     63
                      A                      A                      A
 Frequencies --   2915.8188              3010.9856              3034.7920
 Red. masses --      1.0807                 1.0693                 1.0849
 Frc consts  --      5.4137                 5.7119                 5.8872
 IR Inten    --     54.8584                42.1707                47.4873

                     64                     65                     66
                      A                      A                      A
 Frequencies --   3101.3608              3169.2962              3201.8425
 Red. masses --      1.0946                 1.0867                 1.0956
 Frc consts  --      6.2033                 6.4309                 6.6177
 IR Inten    --     41.6849                12.3542                15.8873

                     67                     68                     69
                      A                      A                      A
 Frequencies --   3209.8838              3220.3287              3471.4795
 Red. masses --      1.0932                 1.0901                 1.0752
 Frc consts  --      6.6364                 6.6608                 7.6344
 IR Inten    --     13.9824                 1.0165                 1.0068

                     70                     71                     72
                      A                      A                      A
 Frequencies --   3490.9895              3560.4296              3583.0683
 Red. masses --      1.0505                 1.0646                 1.0928
 Frc consts  --      7.5429                 7.9517                 8.2663
 IR Inten    --      0.4137               103.7673                 3.3822

 - Thermochemistry -
 -------------------
 Temperature   298.150 Kelvin.  Pressure   1.00000 Atm.
 Atom     1 has atomic number  6 and mass  12.00000

 Molecular mass:   179.10586 amu.
 Principal axes and moments of inertia in atomic units:
                           1         2         3
     Eigenvalues --  1054.976683819.041664122.91936
           X            0.99989   0.00553   0.01395
           Y           -0.00528   0.99983  -0.01740
           Z           -0.01405   0.01733   0.99975
 This molecule is an asymmetric top.
 Rotational symmetry number  1.
 Warning -- assumption of classical behavior for rotation
           may cause significant error
 Rotational temperatures (Kelvin)      0.08210     0.02268     0.02101
 Rotational constants (GHZ):           1.71069     0.47256     0.43773
 Zero-point vibrational energy     576338.1 (Joules/Mol)
                                  137.74810 (Kcal/Mol)
 Warning -- explicit consideration of  16 degrees of freedom as
           vibrations may cause significant error
 Vibrational temperatures:     74.33    98.07   199.89   213.03   278.80
          (Kelvin)            332.81   411.12   454.31   463.47   493.29
                              554.13   606.26   669.19   713.21   810.98
                              828.85   924.92   931.57   965.25  1053.62
                             1089.56  1120.55  1139.05  1204.50  1261.41
                             1290.46  1296.83  1354.34  1380.32  1398.76
                             1434.15  1449.42  1509.88  1546.33  1596.06
                             1615.81  1623.50  1671.11  1682.16  1728.37
                             1736.42  1769.87  1825.24  1859.06  1873.28
                             1924.53  1939.74  1957.49  1995.98  2002.75
                             2046.48  2051.87  2091.20  2116.33  2200.52
                             2335.45  2365.76  2421.13  2444.84  4137.96
                             4195.21  4332.14  4366.39  4462.17  4559.91
                             4606.74  4618.31  4633.33  4994.68  5022.76
                             5122.66  5155.24

 Zero-point correction=                           0.219516 (Hartree/Particle)
 Thermal correction to Energy=                    0.230944
 Thermal correction to Enthalpy=                  0.231889
 Thermal correction to Gibbs Free Energy=         0.182075
 Sum of electronic and zero-point Energies=           -589.974263
 Sum of electronic and thermal Energies=              -589.962834
 Sum of electronic and thermal Enthalpies=            -589.961890
 Sum of electronic and thermal Free Energies=         -590.011703

                     E (Thermal)             CV                S
                      KCal/Mol        Cal/Mol-Kelvin    Cal/Mol-Kelvin
 Total                  144.920             45.528            104.841
 Electronic               0.000              0.000              0.000
 Translational            0.889              2.981             41.455
 Rotational               0.889              2.981             31.186
 Vibrational            143.142             39.567             32.200
 Vibration     1          0.596              1.977              4.753
 Vibration     2          0.598              1.969              4.206
 Vibration     3          0.615              1.914              2.819
 Vibration     4          0.617              1.905              2.697
 Vibration     5          0.635              1.849              2.191
 Vibration     6          0.653              1.793              1.869
 Vibration     7          0.684              1.700              1.499
 Vibration     8          0.703              1.644              1.332
 Vibration     9          0.707              1.631              1.299
 Vibration    10          0.722              1.590              1.199
 Vibration    11          0.754              1.502              1.019
 Vibration    12          0.784              1.424              0.887
 Vibration    13          0.823              1.327              0.751
 Vibration    14          0.851              1.260              0.669
 Vibration    15          0.919              1.110              0.517
 Vibration    16          0.932              1.083              0.493

 Optimization completed.
    -- Stationary point found.
 Normal termination of Gaussian 16 at Wed Dec  9 23:39:16 2020.

 ----------------------------------------------------------------------
 # B3LYP/6-311++G(d,p) empiricaldispersion=gd3bj scf=xqc pop=npa geom=c
 heck
 ----------------------------------------------------------------------

 ---------------------------------------
 CID_112712265_JID_3526_Energie_neutraal
 ---------------------------------------
 Structure from the checkpoint file:  "JID_3526.chk"
 Charge =  0 Multiplicity = 1

 SCF Done:  E(RB3LYP) =  -590.375303342     A.U. after   15 cycles
 Normal termination of Gaussian 16 at Wed Dec  9 23:41:59 2020.

 ----------------------------------------------------------------------
 # B3LYP/6-311++G(d,p) empiricaldispersion=gd3bj scf=xqc pop=npa geom=c
 heck
 ----------------------------------------------------------------------

 -------------------------------------
 CID_112712265_JID_3526_Energie_kation
 -------------------------------------
 Structure from the checkpoint file:  "JID_3526.chk"
 Charge =  1 Multiplicity = 2

 SCF Done:  E(UB3LYP) =  -590.078851115     A.U. after   26 cycles
 Normal termination of Gaussian 16 at Wed Dec  9 23:48:45 2020.
 Gaussian 16:  ES64L-G16RevA.03 25-Dec-2016

 ----------------------------------------------------------------------
 # B3LYP/6-311++G(d,p) empiricaldispersion=gd3bj scf=xqc pop=npa geom=c
 heck
 ----------------------------------------------------------------------

 ------------------------------------
 CID_112712265_JID_3526_Energie_anion
 ------------------------------------
 Structure from the checkpoint file:  "JID_3526.chk"
 Charge = -1 Multiplicity = 2

                         Standard orientation:
 ---------------------------------------------------------------------
 Center     Atomic      Atomic             Coordinates (Angstroms)
 Number     Number       Type             X           Y           Z
 ---------------------------------------------------------------------
      1          6           0       -0.990721    1.781528   -0.335648
      2          6           0        0.263157    1.503411   -0.745757
      3          6           0        0.830440    0.144574   -0.628898
      4          6           0        0.014121   -0.920728   -0.475483
      5          6           0       -1.458696   -0.635582   -0.487621
      6          6           0       -1.719338    0.637985    0.299522
      7          7           0       -3.171603    0.639066    0.544549
      8          7           0       -3.569839   -0.743373    0.508201
      9          6           0       -2.590963   -1.458190    0.079716
     10          6           0        2.343022    0.001828   -0.695188
     11          6           0        2.996850    0.649442    0.545806
     12          7           0        2.729665   -0.232901    1.687686
     13          8           0        2.764004   -1.343670   -0.776737
     14          1           0       -1.406390    2.784872   -0.365165
     15          1           0        0.899023    2.286933   -1.153395
     16          1           0        0.420541   -1.926394   -0.480533
     17          1           0       -1.737569   -0.464250   -1.551513
     18          1           0       -1.265152    0.471890    1.297280
     19          1           0       -3.716052    1.130051   -0.165905
     20          1           0       -2.701695   -2.537259    0.020384
     21          1           0        2.705526    0.519616   -1.594350
     22          1           0        4.080393    0.680156    0.392135
     23          1           0        2.639527    1.682587    0.673977
     24          1           0        3.302858    0.017493    2.488369
     25          1           0        1.753992   -0.154016    1.968772
     26          1           0        2.868180   -1.607477    0.162096
 ---------------------------------------------------------------------

 SCF Done:  E(UB3LYP) =  -590.371080328     A.U. after   33 cycles
 SCF Done:  E(UB3LYP) =  -590.371080328     a.u. after    1 cycles

 The electronic state is 2-A.
 Alpha  occ. eigenvalues --  -18.99451 -14.22954 -14.22349 -14.19264 -10.10256
 Alpha  occ. eigenvalues --  -10.10082 -10.08344 -10.07853 -10.06583 -10.04230
 Alpha  occ. eigenvalues --  -10.04037 -10.03892 -10.03062  -0.90572  -0.89169
 Alpha  occ. eigenvalues --   -0.77579  -0.72687  -0.70109  -0.64367  -0.61894
 Alpha  occ. eigenvalues --   -0.58630  -0.50889  -0.49739  -0.46970  -0.45973
 Alpha  occ. eigenvalues --   -0.40867  -0.40574  -0.38511  -0.36315  -0.35795
 Alpha  occ. eigenvalues --   -0.35038  -0.33028  -0.32562  -0.30632  -0.29365
 Alpha  occ. eigenvalues --   -0.28118  -0.28078  -0.26714  -0.24969  -0.22248
 Alpha  occ. eigenvalues --   -0.21807  -0.19734  -0.17937  -0.17150  -0.15949
 Alpha  occ. eigenvalues --   -0.14562  -0.12377  -0.09730   0.04737
 Alpha virt. eigenvalues --    0.06919   0.08259   0.08653   0.09089   0.09255
 Alpha virt. eigenvalues --    0.09986   0.10975   0.11285   0.11717   0.12301
 Alpha virt. eigenvalues --    0.12969   0.13532   0.14838   0.15435   0.16521

  Beta  occ. eigenvalues --  -18.99447 -14.22961 -14.22335 -14.19238 -10.10261
  Beta  occ. eigenvalues --  -10.10068 -10.08351 -10.07798 -10.06586 -10.04220
  Beta  occ. eigenvalues --  -10.03955 -10.03631 -10.02749  -0.90566  -0.89155
  Beta  occ. eigenvalues --   -0.77526  -0.72428  -0.70030  -0.64252  -0.61486
  Beta  occ. eigenvalues --   -0.58438  -0.50772  -0.49534  -0.46716  -0.45799
  Beta  occ. eigenvalues --   -0.40723  -0.40429  -0.38406  -0.36219  -0.35693
  Beta  occ. eigenvalues --   -0.34953  -0.32859  -0.32475  -0.30439  -0.29269
  Beta  occ. eigenvalues --   -0.28022  -0.27901  -0.26511  -0.24896  -0.22138
  Beta  occ. eigenvalues --   -0.21736  -0.19570  -0.17821  -0.16550  -0.15718
  Beta  occ. eigenvalues --   -0.14512  -0.12178  -0.08543
  Beta virt. eigenvalues --    0.07648   0.08261   0.08657   0.09093   0.09518
  Beta virt. eigenvalues --    0.09828   0.10645   0.11125   0.11324   0.11852
  Beta virt. eigenvalues --    0.12598   0.13162   0.13664   0.14895   0.15538

 Mulliken charges and spin densities:
               1          2
     1  C   -0.038796  -0.185345
     2  C   -0.055502  -0.517951
     3  C    0.917284  -0.822375
     4  C   -0.951232   1.166341
     5  C    0.466523  -0.426012
     6  C   -0.417139  -0.005621
     7  N    0.000771  -0.045468
     8  N   -0.123530   0.018310
     9  C   -0.166340  -0.172416
    10  C   -1.387003   1.505901
    11  C    1.495574  -2.068486
    12  N   -0.581589   0.108446
    13  O   -0.233380  -0.008542
    14  H   -0.145631   0.283254
    15  H   -0.146815   0.270441
    16  H    0.140415   0.018136
    17  H    0.121375   0.048123
    18  H    0.170287   0.059631
    19  H    0.162507   0.078718
    20  H    0.160091  -0.002263
    21  H    0.045617   0.167677
    22  H   -0.642310   0.839118
    23  H   -0.184081   0.326628
    24  H   -0.131798   0.397493
    25  H    0.239047  -0.004314
    26  H    0.285653  -0.029424
 Sum of Mulliken charges =  -1.00000   1.00000

 Dipole moment (field-independent basis, Debye):
    X=             -3.7005    Y=             -2.1729    Z=             -1.2592  Tot=              4.4722
 Quadrupole moment (field-independent basis, Debye-Ang):
   XX=           -150.0668   YY=           -101.7301   ZZ=           -101.1905
   XY=             -2.3733   XZ=              0.9555   YZ=             -2.0477

 Summary of Natural Population Analysis:

                                       Natural Population
                Natural  -----------------------------------------------
    Atom  No    Charge         Core      Valence    Rydberg      Total
 -----------------------------------------------------------------------
      C    1   -0.05138      0.99951     2.04027    0.01159     3.05138
      C    2   -0.10361      0.99951     2.09327    0.01084     3.10361
      C    3   -0.04749      0.99946     2.03573    0.01229     3.04749
      C    4   -0.03590      0.99944     2.02746    0.00899     3.03590
      C    5   -0.15519      0.99955     2.14465    0.01098     3.15519
      C    6   -0.02875      0.99955     2.01475    0.01445     3.02875
      N    7   -0.24753      0.99973     2.73058    0.01722     3.74753
      N    8   -0.14389      0.99971     2.63222    0.01196     3.64389
      C    9    0.04521      0.99962     1.93952    0.01566     2.95479
      C   10    0.05680      0.99952     1.92755    0.01614     2.94320
      C   11   -0.09657      0.99962     2.08514    0.01181     3.09657
      N   12   -0.44122      0.99976     2.92964    0.01181     3.94122
      O   13   -0.37947      0.99990     3.37308    0.00649     4.37947
      H   14    0.09522      0.00000     0.40375    0.00103     0.40478
      H   15    0.09631      0.00000     0.40234    0.00134     0.40369
      H   16    0.10107      0.00000     0.39774    0.00119     0.39893
      H   17    0.10795      0.00000     0.38999    0.00207     0.39205
      H   18    0.09151      0.00000     0.40621    0.00228     0.40849
      H   19    0.17461      0.00000     0.32299    0.00239     0.32539
      H   20    0.09078      0.00000     0.40820    0.00102     0.40922
      H   21    0.08608      0.00000     0.41184    0.00208     0.41392
      H   22    0.09386      0.00000     0.40308    0.00306     0.40614
      H   23    0.08996      0.00000     0.40817    0.00187     0.41004
      H   24    0.18155      0.00000     0.31643    0.00202     0.31845
      H   25    0.18164      0.00000     0.31634    0.00202     0.31836
      H   26    0.23844      0.00000     0.25827    0.00329     0.26156
 =======================================================================
   * Total *    0.00000     12.99488    34.81921    0.18591    48.00000

 Normal termination of Gaussian 16 at Wed Dec  9 23:57:42 2020.
