 Gaussian 16, Revision A.03,

 -----------------------------------------------------------
 # opt freq B3LYP/6-31G(d) empiricaldispersion=gd3bj scf=xqc
 -----------------------------------------------------------

 ------------------------------
 CID_63072296_JID_8887_neutraal
 ------------------------------
 Symbolic Z-matrix:
 Charge =  0 Multiplicity = 1

 SCF Done:  E(RB3LYP) =  -784.423909110     A.U. after   14 cycles
 SCF Done:  E(RB3LYP) =  -784.430691421     A.U. after   12 cycles
 SCF Done:  E(RB3LYP) =  -784.431578241     A.U. after   13 cycles
 SCF Done:  E(RB3LYP) =  -784.432901177     A.U. after   12 cycles
 SCF Done:  E(RB3LYP) =  -784.433296547     A.U. after   11 cycles
 SCF Done:  E(RB3LYP) =  -784.433377485     A.U. after   11 cycles
 SCF Done:  E(RB3LYP) =  -784.433400578     A.U. after   10 cycles
 SCF Done:  E(RB3LYP) =  -784.433416609     A.U. after    9 cycles
 SCF Done:  E(RB3LYP) =  -784.433424703     A.U. after    9 cycles
 SCF Done:  E(RB3LYP) =  -784.433429278     A.U. after    9 cycles
 SCF Done:  E(RB3LYP) =  -784.433660489     A.U. after    9 cycles
 SCF Done:  E(RB3LYP) =  -784.433660793     A.U. after    8 cycles
 SCF Done:  E(RB3LYP) =  -784.433660924     A.U. after    6 cycles
 SCF Done:  E(RB3LYP) =  -784.433660962     A.U. after    6 cycles
 SCF Done:  E(RB3LYP) =  -784.433660993     A.U. after    6 cycles
 Optimization completed.
    -- Stationary point found.
 Normal termination of Gaussian 16 at Fri Dec 11 23:04:01 2020.

 --------------------------------------------------------------------
 #N Geom=AllCheck Guess=TCheck SCRF=Check GenChk RB3LYP/6-31G(d) Freq
 --------------------------------------------------------------------

 Structure from the checkpoint file:  "JID_8887.chk"
 ------------------------------
 CID_63072296_JID_8887_neutraal
 ------------------------------
 Charge =  0 Multiplicity = 1

 SCF Done:  E(RB3LYP) =  -784.433660994     A.U. after    1 cycles

  Exact polarizability: 163.526   1.792 216.616 -25.478  -1.240 123.101
 Approx polarizability: 229.240  -4.757 314.202 -49.948  -2.422 199.141

                      1                      2                      3
                      A                      A                      A
 Frequencies --     15.4786                25.6077                49.3962
 Red. masses --      4.0390                 4.2035                 3.6046
 Frc consts  --      0.0006                 0.0016                 0.0052
 IR Inten    --      0.1099                 0.9247                 2.4981

                      4                      5                      6
                      A                      A                      A
 Frequencies --     59.0741                66.8966                81.7368
 Red. masses --      2.7151                 1.2062                 2.9519
 Frc consts  --      0.0056                 0.0032                 0.0116
 IR Inten    --      0.0956                 0.3089                 1.4972

                      7                      8                      9
                      A                      A                      A
 Frequencies --     94.1833               100.9865               122.8627
 Red. masses --      2.7153                 3.7491                 3.4763
 Frc consts  --      0.0142                 0.0225                 0.0309
 IR Inten    --      5.7215                 0.0858                 2.5701

                     10                     11                     12
                      A                      A                      A
 Frequencies --    187.2441               213.4303               214.9436
 Red. masses --      1.9527                 2.7307                 2.7520
 Frc consts  --      0.0403                 0.0733                 0.0749
 IR Inten    --      1.5716                 2.5724                 2.5028

                     13                     14                     15
                      A                      A                      A
 Frequencies --    245.3588               258.8857               284.0800
 Red. masses --      3.1992                 1.8440                 3.2276
 Frc consts  --      0.1135                 0.0728                 0.1535
 IR Inten    --      1.1593                 3.0926                 1.5554

                     16                     17                     18
                      A                      A                      A
 Frequencies --    302.5270               329.5486               348.8833
 Red. masses --      4.2509                 2.5595                 4.3192
 Frc consts  --      0.2292                 0.1638                 0.3097
 IR Inten    --      0.8500                 2.5127                 1.8799

                     19                     20                     21
                      A                      A                      A
 Frequencies --    381.3427               419.1973               477.3115
 Red. masses --      3.3375                 2.9678                 3.1785
 Frc consts  --      0.2860                 0.3073                 0.4267
 IR Inten    --      1.0324                 0.1291                 4.1125

                     22                     23                     24
                      A                      A                      A
 Frequencies --    503.3830               560.6179               566.4656
 Red. masses --      4.6057                 3.4900                 3.0601
 Frc consts  --      0.6876                 0.6463                 0.5785
 IR Inten    --      1.7900                 1.5049                 2.2405

                     25                     26                     27
                      A                      A                      A
 Frequencies --    620.6480               638.7092               657.4804
 Red. masses --      4.5070                 3.1399                 4.6432
 Frc consts  --      1.0229                 0.7547                 1.1826
 IR Inten    --      1.4395                 7.6566                 2.1788

                     28                     29                     30
                      A                      A                      A
 Frequencies --    673.2283               723.7663               741.0189
 Red. masses --      7.0055                 4.0984                 3.1958
 Frc consts  --      1.8707                 1.2649                 1.0339
 IR Inten    --      8.8992                 3.7238                14.6141

                     31                     32                     33
                      A                      A                      A
 Frequencies --    782.4692               795.9529               797.9826
 Red. masses --      1.3630                 1.3183                 1.4123
 Frc consts  --      0.4917                 0.4921                 0.5299
 IR Inten    --     50.9727                19.8965                54.4955

                     34                     35                     36
                      A                      A                      A
 Frequencies --    834.6796               863.3252               870.4011
 Red. masses --      3.8001                 1.2877                 2.0196
 Frc consts  --      1.5598                 0.5655                 0.9015
 IR Inten    --      7.4545                 9.3564                24.9213

                     37                     38                     39
                      A                      A                      A
 Frequencies --    894.5745               915.8798               963.9790
 Red. masses --      1.3869                 2.1062                 1.4191
 Frc consts  --      0.6539                 1.0409                 0.7769
 IR Inten    --      2.2409                 5.8182                 6.5752

                     40                     41                     42
                      A                      A                      A
 Frequencies --    979.3390               993.6688              1007.8039
 Red. masses --      5.7165                 1.3144                 1.8982
 Frc consts  --      3.2303                 0.7647                 1.1359
 IR Inten    --     39.5038                 2.4155                 2.8027

                     43                     44                     45
                      A                      A                      A
 Frequencies --   1012.3574              1026.6847              1043.3301
 Red. masses --      1.4519                 3.0032                 2.5125
 Frc consts  --      0.8767                 1.8651                 1.6114
 IR Inten    --      6.3588                25.5133                21.3558

                     46                     47                     48
                      A                      A                      A
 Frequencies --   1063.3696              1078.2747              1078.6963
 Red. masses --      4.9728                 2.0228                 1.5414
 Frc consts  --      3.3130                 1.3857                 1.0567
 IR Inten    --      1.0885                31.7674                 1.9316

                     49                     50                     51
                      A                      A                      A
 Frequencies --   1082.3282              1138.4015              1147.2113
 Red. masses --      1.9481                 1.8053                 2.0195
 Frc consts  --      1.3446                 1.3784                 1.5660
 IR Inten    --     26.8294                 7.6019                 9.4546

                     52                     53                     54
                      A                      A                      A
 Frequencies --   1171.5388              1181.0553              1193.0036
 Red. masses --      2.7878                 3.3228                 1.0957
 Frc consts  --      2.2544                 2.7308                 0.9188
 IR Inten    --     73.8814                67.3860                 1.7389

                     55                     56                     57
                      A                      A                      A
 Frequencies --   1198.3913              1219.6254              1224.4913
 Red. masses --      1.4539                 2.0513                 1.6454
 Frc consts  --      1.2303                 1.7978                 1.4536
 IR Inten    --      1.2593                 3.4207                 4.1219

                     58                     59                     60
                      A                      A                      A
 Frequencies --   1226.1739              1244.1763              1267.4771
 Red. masses --      1.4345                 2.0034                 1.2147
 Frc consts  --      1.2708                 1.8271                 1.1498
 IR Inten    --     26.2918                 6.7689                15.4824

                     61                     62                     63
                      A                      A                      A
 Frequencies --   1279.3352              1283.5852              1309.1723
 Red. masses --      1.7944                 1.8223                 1.7685
 Frc consts  --      1.7304                 1.7690                 1.7859
 IR Inten    --      6.5359                 4.3662                 5.5679

                     64                     65                     66
                      A                      A                      A
 Frequencies --   1346.6600              1359.2355              1403.6108
 Red. masses --      2.0165                 2.1187                 1.3050
 Frc consts  --      2.1546                 2.3062                 1.5148
 IR Inten    --      5.8689                 2.9794                32.1828

                     67                     68                     69
                      A                      A                      A
 Frequencies --   1409.4406              1424.3521              1431.4299
 Red. masses --      3.4231                 1.6548                 2.2106
 Frc consts  --      4.0065                 1.9780                 2.6688
 IR Inten    --     18.5371                 8.4794                 1.3685

                     70                     71                     72
                      A                      A                      A
 Frequencies --   1434.9640              1448.4822              1456.8506
 Red. masses --      1.6018                 2.4396                 1.7487
 Frc consts  --      1.9433                 3.0157                 2.1867
 IR Inten    --     19.1087                45.3411                 7.3148

                     73                     74                     75
                      A                      A                      A
 Frequencies --   1498.8703              1503.6639              1510.8992
 Red. masses --      1.0917                 1.1656                 2.5298
 Frc consts  --      1.4451                 1.5527                 3.4026
 IR Inten    --      2.8093                 5.4941                32.1267

                     76                     77                     78
                      A                      A                      A
 Frequencies --   1515.3949              1515.7152              1523.3879
 Red. masses --      1.0497                 1.0438                 1.2264
 Frc consts  --      1.4202                 1.4129                 1.6769
 IR Inten    --      1.4335                 6.5741                28.3897

                     79                     80                     81
                      A                      A                      A
 Frequencies --   1531.3461              1532.4084              1535.0815
 Red. masses --      1.1255                 1.1306                 1.1260
 Frc consts  --      1.5550                 1.5643                 1.5634
 IR Inten    --     28.8767                 2.9370                11.4758

                     82                     83                     84
                      A                      A                      A
 Frequencies --   1545.0405              1558.1311              1631.5616
 Red. masses --      2.2723                 1.0945                 5.1921
 Frc consts  --      3.1960                 1.5655                 8.1432
 IR Inten    --     67.3451                 3.8520                 5.2592

                     85                     86                     87
                      A                      A                      A
 Frequencies --   1642.3057              1666.7115              2975.8000
 Red. masses --      6.2242                 6.1317                 1.0525
 Frc consts  --      9.8910                10.0358                 5.4911
 IR Inten    --     10.9215                 5.2044                29.4294

                     88                     89                     90
                      A                      A                      A
 Frequencies --   2994.1639              2997.5013              3006.9841
 Red. masses --      1.0409                 1.0678                 1.0916
 Frc consts  --      5.4980                 5.6529                 5.8154
 IR Inten    --     37.2976                69.9916                72.6184

                     91                     92                     93
                      A                      A                      A
 Frequencies --   3025.4621              3037.3397              3042.9939
 Red. masses --      1.1032                 1.1053                 1.0374
 Frc consts  --      5.9498                 6.0076                 5.6596
 IR Inten    --     31.6177                65.8699                48.2750

                     94                     95                     96
                      A                      A                      A
 Frequencies --   3050.6782              3093.2219              3097.2586
 Red. masses --      1.0619                 1.1010                 1.1044
 Frc consts  --      5.8227                 6.2069                 6.2424
 IR Inten    --     57.6546                23.2597                40.0686

                     97                     98                     99
                      A                      A                      A
 Frequencies --   3120.4158              3138.9116              3189.5240
 Red. masses --      1.1008                 1.0969                 1.0864
 Frc consts  --      6.3154                 6.3674                 6.5117
 IR Inten    --     18.0751                28.7062                 4.4955

                    100                    101                    102
                      A                      A                      A
 Frequencies --   3205.8355              3224.7503              3234.3740
 Red. masses --      1.0927                 1.0923                 1.0935
 Frc consts  --      6.6168                 6.6923                 6.7400
 IR Inten    --     27.4641                 7.8999                 3.7062

                    103                    104                    105
                      A                      A                      A
 Frequencies --   3246.6889              3284.3532              3495.2702
 Red. masses --      1.0957                 1.0974                 1.0733
 Frc consts  --      6.8050                 6.9743                 7.7259
 IR Inten    --      9.7609                 0.6763                 1.8079

 - Thermochemistry -
 -------------------
 Temperature   298.150 Kelvin.  Pressure   1.00000 Atm.
 Atom     1 has atomic number  6 and mass  12.00000

 Molecular mass:   245.15281 amu.
 Principal axes and moments of inertia in atomic units:
                           1         2         3
     Eigenvalues --  4399.236895560.075858631.83118
           X            0.99977   0.02121   0.00184
           Y           -0.02120   0.99976  -0.00586
           Z           -0.00196   0.00582   0.99998
 This molecule is an asymmetric top.
 Rotational symmetry number  1.
 Warning -- assumption of classical behavior for rotation
           may cause significant error
 Rotational temperatures (Kelvin)      0.01969     0.01558     0.01003
 Rotational constants (GHZ):           0.41024     0.32459     0.20908
 Zero-point vibrational energy     831524.9 (Joules/Mol)
                                  198.73921 (Kcal/Mol)
 Warning -- explicit consideration of  25 degrees of freedom as
           vibrations may cause significant error
 Vibrational temperatures:     22.27    36.84    71.07    84.99    96.25
          (Kelvin)            117.60   135.51   145.30   176.77   269.40
                              307.08   309.26   353.02   372.48   408.73
                              435.27   474.15   501.97   548.67   603.13
                              686.74   724.26   806.60   815.02   892.97
                              918.96   945.97   968.63  1041.34  1066.16
                             1125.80  1145.20  1148.12  1200.92  1242.13
                             1252.31  1287.09  1317.75  1386.95  1409.05
                             1429.67  1450.01  1456.56  1477.17  1501.12
                             1529.95  1551.40  1552.00  1557.23  1637.91
                             1650.58  1685.58  1699.28  1716.47  1724.22
                             1754.77  1761.77  1764.19  1790.09  1823.62
                             1840.68  1846.79  1883.61  1937.54  1955.64
                             2019.48  2027.87  2049.32  2059.51  2064.59
                             2084.04  2096.08  2156.54  2163.44  2173.85
                             2180.32  2180.78  2191.82  2203.27  2204.79
                             2208.64  2222.97  2241.80  2347.45  2362.91
                             2398.03  4281.51  4307.93  4312.74  4326.38
                             4352.97  4370.05  4378.19  4389.25  4450.46
                             4456.26  4489.58  4516.19  4589.01  4612.48
                             4639.70  4653.54  4671.26  4725.45  5028.91

 Zero-point correction=                           0.316711 (Hartree/Particle)
 Thermal correction to Energy=                    0.334398
 Thermal correction to Enthalpy=                  0.335342
 Thermal correction to Gibbs Free Energy=         0.268127
 Sum of electronic and zero-point Energies=           -784.116950
 Sum of electronic and thermal Energies=              -784.099263
 Sum of electronic and thermal Enthalpies=            -784.098319
 Sum of electronic and thermal Free Energies=         -784.165534

                     E (Thermal)             CV                S
                      KCal/Mol        Cal/Mol-Kelvin    Cal/Mol-Kelvin
 Total                  209.838             65.220            141.466
 Electronic               0.000              0.000              0.000
 Translational            0.889              2.981             42.391
 Rotational               0.889              2.981             33.712
 Vibrational            208.060             59.258             65.363
 Vibration     1          0.593              1.986              7.143
 Vibration     2          0.593              1.985              6.144
 Vibration     3          0.595              1.978              4.841
 Vibration     4          0.596              1.974              4.488
 Vibration     5          0.598              1.970              4.243
 Vibration     6          0.600              1.962              3.849
 Vibration     7          0.603              1.953              3.571
 Vibration     8          0.604              1.948              3.435
 Vibration     9          0.610              1.930              3.055
 Vibration    10          0.632              1.857              2.255
 Vibration    11          0.644              1.820              2.014
 Vibration    12          0.645              1.818              2.001
 Vibration    13          0.660              1.770              1.764
 Vibration    14          0.668              1.748              1.669
 Vibration    15          0.682              1.703              1.509
 Vibration    16          0.694              1.669              1.403
 Vibration    17          0.712              1.616              1.262
 Vibration    18          0.726              1.578              1.171
 Vibration    19          0.751              1.510              1.034
 Vibration    20          0.782              1.429              0.895
 Vibration    21          0.834              1.300              0.717
 Vibration    22          0.859              1.243              0.650
 Vibration    23          0.916              1.117              0.523
 Vibration    24          0.922              1.104              0.511
 Vibration    25          0.981              0.988              0.415

 Optimization completed.
    -- Stationary point found.
 Normal termination of Gaussian 16 at Fri Dec 11 23:21:31 2020.

 ----------------------------------------------------------------------
 # B3LYP/6-311++G(d,p) empiricaldispersion=gd3bj scf=xqc pop=npa geom=c
 heck
 ----------------------------------------------------------------------

 --------------------------------------
 CID_63072296_JID_8887_Energie_neutraal
 --------------------------------------
 Structure from the checkpoint file:  "JID_8887.chk"
 Charge =  0 Multiplicity = 1

 SCF Done:  E(RB3LYP) =  -784.647050790     A.U. after   16 cycles
 Normal termination of Gaussian 16 at Fri Dec 11 23:29:59 2020.

 ----------------------------------------------------------------------
 # B3LYP/6-311++G(d,p) empiricaldispersion=gd3bj scf=xqc pop=npa geom=c
 heck
 ----------------------------------------------------------------------

 ------------------------------------
 CID_63072296_JID_8887_Energie_kation
 ------------------------------------
 Structure from the checkpoint file:  "JID_8887.chk"
 Charge =  1 Multiplicity = 2

 SCF Done:  E(UB3LYP) =  -784.359581765     A.U. after   29 cycles
 Normal termination of Gaussian 16 at Fri Dec 11 23:51:44 2020.
 Gaussian 16:  ES64L-G16RevA.03 25-Dec-2016

 ----------------------------------------------------------------------
 # B3LYP/6-311++G(d,p) empiricaldispersion=gd3bj scf=xqc pop=npa geom=c
 heck
 ----------------------------------------------------------------------

 -----------------------------------
 CID_63072296_JID_8887_Energie_anion
 -----------------------------------
 Structure from the checkpoint file:  "JID_8887.chk"
 Charge = -1 Multiplicity = 2

                         Standard orientation:
 ---------------------------------------------------------------------
 Center     Atomic      Atomic             Coordinates (Angstroms)
 Number     Number       Type             X           Y           Z
 ---------------------------------------------------------------------
      1          6           0       -1.558910    4.058632   -1.147312
      2          6           0       -1.709278    2.756097   -0.420960
      3          6           0       -1.381480    1.491943   -0.868955
      4          7           0       -1.685251    0.608917    0.131235
      5          7           0       -2.216296    1.238494    1.212544
      6          6           0       -2.223577    2.526487    0.881537
      7          6           0       -1.598713   -0.810893    0.106169
      8          6           0       -2.697464   -1.535408    0.577783
      9          6           0       -2.671518   -2.925540    0.565082
     10          6           0       -1.550327   -3.592076    0.067742
     11          6           0       -0.454322   -2.863720   -0.387643
     12          6           0       -0.445841   -1.463404   -0.363770
     13          6           0        0.795847   -0.707008   -0.796669
     14          7           0        2.002363   -1.506781   -0.598502
     15          6           0        3.221100   -0.870621   -1.088931
     16          6           0        3.574654    0.459294   -0.420488
     17          8           0        3.621185    0.230190    0.975031
     18          6           0        3.827527    1.410185    1.720418
     19          1           0       -1.189911    3.901884   -2.165981
     20          1           0       -0.852614    4.727360   -0.639690
     21          1           0       -2.513785    4.592801   -1.220024
     22          1           0       -0.991148    1.155763   -1.817641
     23          1           0       -2.595155    3.256140    1.590351
     24          1           0       -3.554071   -0.987852    0.953236
     25          1           0       -3.527268   -3.484133    0.932823
     26          1           0       -1.525425   -4.677813    0.042863
     27          1           0        0.437847   -3.365504   -0.745894
     28          1           0        0.741320   -0.469688   -1.870117
     29          1           0        0.821817    0.259856   -0.271899
     30          1           0        2.116353   -1.669807    0.401030
     31          1           0        4.047181   -1.572930   -0.929299
     32          1           0        3.129270   -0.713494   -2.171594
     33          1           0        4.546377    0.827255   -0.792143
     34          1           0        2.822911    1.232046   -0.652681
     35          1           0        4.791915    1.882983    1.474944
     36          1           0        3.025953    2.144947    1.543608
     37          1           0        3.827055    1.130453    2.776906
 ---------------------------------------------------------------------

 SCF Done:  E(UB3LYP) =  -784.636136512     A.U. after   33 cycles
 SCF Done:  E(UB3LYP) =  -784.636136512     a.u. after    1 cycles

 The electronic state is 2-A.
 Alpha  occ. eigenvalues --  -19.03566 -14.29636 -14.23268 -14.20372 -10.12632
 Alpha  occ. eigenvalues --  -10.11975 -10.11749 -10.10544 -10.10292 -10.09907
 Alpha  occ. eigenvalues --  -10.09258 -10.09186 -10.08719 -10.08632 -10.08556
 Alpha  occ. eigenvalues --  -10.08126 -10.07801 -10.07179  -0.95571  -0.94906
 Alpha  occ. eigenvalues --   -0.81817  -0.78359  -0.73451  -0.70366  -0.68195
 Alpha  occ. eigenvalues --   -0.65255  -0.64739  -0.60694  -0.58908  -0.56637
 Alpha  occ. eigenvalues --   -0.53743  -0.51424  -0.49594  -0.48420  -0.47617
 Alpha  occ. eigenvalues --   -0.44222  -0.41590  -0.40190  -0.39523  -0.39044
 Alpha  occ. eigenvalues --   -0.38165  -0.36724  -0.35499  -0.35027  -0.34178
 Alpha  occ. eigenvalues --   -0.33405  -0.33153  -0.32220  -0.31630  -0.31272
 Alpha  occ. eigenvalues --   -0.30667  -0.29156  -0.28287  -0.27820  -0.27282
 Alpha  occ. eigenvalues --   -0.26934  -0.26408  -0.25256  -0.23539  -0.19919
 Alpha  occ. eigenvalues --   -0.18954  -0.17323  -0.16509  -0.15493  -0.13638
 Alpha  occ. eigenvalues --   -0.13467   0.04198
 Alpha virt. eigenvalues --    0.06172   0.06476   0.06626   0.06907   0.07466
 Alpha virt. eigenvalues --    0.08360   0.08525   0.08876   0.09222   0.09767
 Alpha virt. eigenvalues --    0.10372   0.10661   0.10814   0.11398   0.11648

  Beta  occ. eigenvalues --  -19.03558 -14.29641 -14.23251 -14.20370 -10.12598
  Beta  occ. eigenvalues --  -10.11949 -10.11722 -10.10512 -10.10280 -10.09889
  Beta  occ. eigenvalues --  -10.09187 -10.09169 -10.08728 -10.08591 -10.08526
  Beta  occ. eigenvalues --  -10.08136 -10.07803 -10.07135  -0.95551  -0.94892
  Beta  occ. eigenvalues --   -0.81791  -0.78298  -0.73405  -0.70328  -0.68114
  Beta  occ. eigenvalues --   -0.65211  -0.64680  -0.60633  -0.58852  -0.56575
  Beta  occ. eigenvalues --   -0.53705  -0.51348  -0.49533  -0.48384  -0.47559
  Beta  occ. eigenvalues --   -0.44182  -0.41549  -0.40142  -0.39490  -0.39005
  Beta  occ. eigenvalues --   -0.38133  -0.36684  -0.35464  -0.34970  -0.34145
  Beta  occ. eigenvalues --   -0.33368  -0.33093  -0.32184  -0.31596  -0.31225
  Beta  occ. eigenvalues --   -0.30622  -0.29082  -0.28239  -0.27779  -0.27234
  Beta  occ. eigenvalues --   -0.26837  -0.26365  -0.25218  -0.23481  -0.19892
  Beta  occ. eigenvalues --   -0.18798  -0.17301  -0.16322  -0.15372  -0.13588
  Beta  occ. eigenvalues --   -0.13375
  Beta virt. eigenvalues --    0.06332   0.06531   0.06739   0.07158   0.07350
  Beta virt. eigenvalues --    0.07941   0.08505   0.08755   0.09319   0.09482
  Beta virt. eigenvalues --    0.10117   0.10577   0.10824   0.11006   0.11714

 Mulliken charges and spin densities:
               1          2
     1  C    2.635399  -3.425416
     2  C   -0.657158   1.106723
     3  C   -0.501955   0.213880
     4  N    0.453932  -0.056966
     5  N   -0.130515   0.017161
     6  C   -1.078528   0.849246
     7  C   -0.401749   0.237485
     8  C   -0.074479   0.126524
     9  C   -0.076441  -0.152472
    10  C   -0.491355   0.009441
    11  C   -0.206801  -0.030811
    12  C    0.122387   0.428571
    13  C   -0.768893  -0.334479
    14  N    0.118939  -0.013401
    15  C    0.625734  -0.895745
    16  C   -0.142449  -0.167647
    17  O   -0.173413   0.030534
    18  C    0.331264  -0.577559
    19  H   -0.493338   0.648338
    20  H   -0.206931   0.364630
    21  H   -0.123212   0.265246
    22  H   -0.314418   0.510692
    23  H   -0.110280   0.248365
    24  H    0.143448   0.045830
    25  H    0.130319   0.010371
    26  H    0.115804   0.020191
    27  H    0.132115   0.070095
    28  H   -0.322536   0.541305
    29  H    1.283043  -1.189444
    30  H    0.227014   0.006176
    31  H    0.156513   0.030563
    32  H   -0.287355   0.426705
    33  H   -0.456469   0.606856
    34  H   -0.079295   0.249475
    35  H   -0.310141   0.440092
    36  H   -0.077862   0.216971
    37  H    0.009663   0.122472
 Sum of Mulliken charges =  -1.00000   1.00000

 Dipole moment (field-independent basis, Debye):
    X=             -3.6995    Y=             -6.8418    Z=              3.2755  Tot=              8.4395
 Quadrupole moment (field-independent basis, Debye-Ang):
   XX=           -171.8325   YY=           -166.4511   ZZ=           -149.7500
   XY=             -2.8773   XZ=              3.5805   YZ=              8.0886

 Summary of Natural Population Analysis:

                                       Natural Population
                Natural  -----------------------------------------------
    Atom  No    Charge         Core      Valence    Rydberg      Total
 -----------------------------------------------------------------------
      C    1   -0.29269      0.99964     2.28732    0.00573     3.29269
      C    2   -0.06984      0.99953     2.06045    0.00986     3.06984
      C    3   -0.00229      0.99949     1.99142    0.01138     3.00229
      N    4   -0.11107      0.99962     2.59848    0.01296     3.61107
      N    5   -0.14979      0.99973     2.63956    0.01049     3.64979
      C    6   -0.00829      0.99958     1.99386    0.01486     3.00829
      C    7    0.08489      0.99942     1.90389    0.01181     2.91511
      C    8   -0.10005      0.99953     2.09240    0.00811     3.10005
      C    9   -0.09906      0.99957     2.08955    0.00993     3.09906
      C   10   -0.10178      0.99957     2.09235    0.00987     3.10178
      C   11   -0.10012      0.99953     2.09202    0.00857     3.10012
      C   12   -0.00960      0.99947     2.00069    0.00944     3.00960
      C   13   -0.10123      0.99959     2.08996    0.01168     3.10123
      N   14   -0.33838      0.99975     2.82797    0.01066     3.83838
      C   15   -0.09344      0.99963     2.08072    0.01310     3.09344
      C   16   -0.01956      0.99959     2.00775    0.01222     3.01956
      O   17   -0.30423      0.99988     3.29462    0.00973     4.30423
      C   18   -0.09604      0.99962     2.08739    0.00902     3.09604
      H   19    0.10768      0.00000     0.39069    0.00163     0.39232
      H   20    0.10599      0.00000     0.39247    0.00153     0.39401
      H   21    0.10170      0.00000     0.39719    0.00111     0.39830
      H   22    0.10948      0.00000     0.38909    0.00143     0.39052
      H   23    0.09600      0.00000     0.40309    0.00090     0.40400
      H   24    0.11089      0.00000     0.38812    0.00099     0.38911
      H   25    0.09745      0.00000     0.40176    0.00079     0.40255
      H   26    0.09712      0.00000     0.40211    0.00077     0.40288
      H   27    0.11216      0.00000     0.38658    0.00126     0.38784
      H   28    0.10090      0.00000     0.39716    0.00194     0.39910
      H   29    0.09383      0.00000     0.40398    0.00219     0.40617
      H   30    0.17698      0.00000     0.32039    0.00262     0.32302
      H   31    0.09302      0.00000     0.40582    0.00115     0.40698
      H   32    0.09631      0.00000     0.40246    0.00123     0.40369
      H   33    0.08243      0.00000     0.41557    0.00199     0.41757
      H   34    0.08189      0.00000     0.41569    0.00242     0.41811
      H   35    0.07879      0.00000     0.41965    0.00156     0.42121
      H   36    0.08232      0.00000     0.41641    0.00127     0.41768
      H   37    0.08762      0.00000     0.41147    0.00091     0.41238
 =======================================================================
   * Total *    0.00000     17.99274    47.79013    0.21712    66.00000

 Normal termination of Gaussian 16 at Sat Dec 12 00:17:19 2020.
