 Gaussian 16, Revision A.03,

 ----------------------------------------------------------------------
 # opt=(cartesian,calcfc,maxcycle=500) freq B3LYP/6-31G(d) empiricaldis
 persion=gd3bj scf=xqc
 ----------------------------------------------------------------------

 -------------------------------
 CID_125450486_JID_5598_neutraal
 -------------------------------
 Symbolic Z-matrix:
 Charge =  0 Multiplicity = 1

 SCF Done:  E(RB3LYP) =  -666.484307392     A.U. after   14 cycles
 SCF Done:  E(RB3LYP) =  -666.484345105     A.U. after   11 cycles
 SCF Done:  E(RB3LYP) =  -666.484354912     A.U. after   10 cycles
 SCF Done:  E(RB3LYP) =  -666.484347697     A.U. after   11 cycles
 SCF Done:  E(RB3LYP) =  -666.484361087     A.U. after   10 cycles
 SCF Done:  E(RB3LYP) =  -666.484352657     A.U. after   11 cycles
 SCF Done:  E(RB3LYP) =  -666.484362686     A.U. after    9 cycles
 SCF Done:  E(RB3LYP) =  -666.484363218     A.U. after   10 cycles
 SCF Done:  E(RB3LYP) =  -666.484363557     A.U. after   10 cycles
 SCF Done:  E(RB3LYP) =  -666.484364398     A.U. after   10 cycles
 SCF Done:  E(RB3LYP) =  -666.485772038     A.U. after    6 cycles
 SCF Done:  E(RB3LYP) =  -666.485770122     A.U. after    9 cycles
 SCF Done:  E(RB3LYP) =  -666.485772044     A.U. after    6 cycles
 SCF Done:  E(RB3LYP) =  -666.485772009     A.U. after    8 cycles
 SCF Done:  E(RB3LYP) =  -666.485772046     A.U. after    6 cycles
 Optimization completed.
    -- Stationary point found.
 Normal termination of Gaussian 16 at Wed Feb 24 14:49:44 2021.

 --------------------------------------------------------------------
 #N Geom=AllCheck Guess=TCheck SCRF=Check GenChk RB3LYP/6-31G(d) Freq
 --------------------------------------------------------------------

 Structure from the checkpoint file:  "JID_5598.chk"
 -------------------------------
 CID_125450486_JID_5598_neutraal
 -------------------------------
 Charge =  0 Multiplicity = 1

 SCF Done:  E(RB3LYP) =  -666.485772046     A.U. after    1 cycles

  Exact polarizability: 208.412  -2.239 132.521   3.899   8.101  73.088
 Approx polarizability: 286.622  -0.158 225.136  10.270  18.715 115.508

                      1                      2                      3
                      A                      A                      A
 Frequencies --     30.5791                35.1484                44.4777
 Red. masses --      4.7742                 3.7514                 4.4594
 Frc consts  --      0.0026                 0.0027                 0.0052
 IR Inten    --      1.1497                 1.0715                 4.6011

                      4                      5                      6
                      A                      A                      A
 Frequencies --     87.5200               122.6530               163.2680
 Red. masses --      4.2210                 3.1654                 4.8678
 Frc consts  --      0.0190                 0.0281                 0.0765
 IR Inten    --      1.5537                 0.7092                 0.2557

                      7                      8                      9
                      A                      A                      A
 Frequencies --    201.3636               251.8135               287.4700
 Red. masses --      1.3027                 2.5942                 5.1452
 Frc consts  --      0.0311                 0.0969                 0.2505
 IR Inten    --      1.7421                 1.8347                 1.3548

                     10                     11                     12
                      A                      A                      A
 Frequencies --    307.2053               343.8908               353.4994
 Red. masses --      3.0995                 3.4439                 2.2373
 Frc consts  --      0.1723                 0.2400                 0.1647
 IR Inten    --      8.8073                 2.6234                23.0947

                     13                     14                     15
                      A                      A                      A
 Frequencies --    384.4480               422.7078               425.5278
 Red. masses --      2.3271                 3.5802                 3.4784
 Frc consts  --      0.2027                 0.3769                 0.3711
 IR Inten    --     70.1589                31.0290                 0.7155

                     16                     17                     18
                      A                      A                      A
 Frequencies --    441.9107               509.8899               525.1067
 Red. masses --      1.5894                 3.5080                 2.6066
 Frc consts  --      0.1829                 0.5374                 0.4235
 IR Inten    --     50.5725                 5.8269                 7.5330

                     19                     20                     21
                      A                      A                      A
 Frequencies --    573.2867               636.5542               652.8223
 Red. masses --      3.9505                 2.8688                 5.0209
 Frc consts  --      0.7650                 0.6849                 1.2607
 IR Inten    --     10.6834                 5.7965                 4.5557

                     22                     23                     24
                      A                      A                      A
 Frequencies --    690.9456               709.2574               750.6051
 Red. masses --      3.0379                 4.3493                 1.4234
 Frc consts  --      0.8545                 1.2891                 0.4725
 IR Inten    --     50.6913                 1.5003                15.3947

                     25                     26                     27
                      A                      A                      A
 Frequencies --    768.6795               788.6435               817.9545
 Red. masses --      3.3552                 3.7852                 1.2602
 Frc consts  --      1.1681                 1.3871                 0.4968
 IR Inten    --     20.6434                 5.7331                 0.8744

                     28                     29                     30
                      A                      A                      A
 Frequencies --    830.1810               838.2296               846.3311
 Red. masses --      1.2126                 1.6486                 1.4479
 Frc consts  --      0.4924                 0.6825                 0.6110
 IR Inten    --      0.7000                65.2193                11.3606

                     31                     32                     33
                      A                      A                      A
 Frequencies --    877.2709               920.2956               934.5293
 Red. masses --      5.0261                 2.4211                 1.2837
 Frc consts  --      2.2790                 1.2081                 0.6605
 IR Inten    --      0.6320                 8.7921                 0.2544

                     34                     35                     36
                      A                      A                      A
 Frequencies --    938.1361               950.7209              1029.4684
 Red. masses --      1.2822                 5.7245                 2.6451
 Frc consts  --      0.6649                 3.0486                 1.6517
 IR Inten    --      2.6497                22.0993                20.8675

                     37                     38                     39
                      A                      A                      A
 Frequencies --   1030.6764              1077.0743              1086.9821
 Red. masses --      2.2712                 3.7237                 2.6593
 Frc consts  --      1.4215                 2.5452                 1.8512
 IR Inten    --     26.0944                38.0576                27.3808

                     40                     41                     42
                      A                      A                      A
 Frequencies --   1132.3979              1149.8847              1170.0745
 Red. masses --      2.0839                 1.2964                 1.9151
 Frc consts  --      1.5744                 1.0099                 1.5448
 IR Inten    --     47.7909                10.3541                 3.9301

                     43                     44                     45
                      A                      A                      A
 Frequencies --   1205.5212              1212.5253              1247.5438
 Red. masses --      1.6448                 1.1504                 1.7512
 Frc consts  --      1.4084                 0.9965                 1.6058
 IR Inten    --      5.4384                 8.0595                 1.2850

                     46                     47                     48
                      A                      A                      A
 Frequencies --   1276.4423              1284.4064              1329.8133
 Red. masses --      2.2726                 3.4110                 1.4915
 Frc consts  --      2.1816                 3.3154                 1.5540
 IR Inten    --    365.4604                41.8128                25.0636

                     49                     50                     51
                      A                      A                      A
 Frequencies --   1342.7286              1345.9221              1360.5721
 Red. masses --      1.9464                 1.8786                 2.5158
 Frc consts  --      2.0676                 2.0050                 2.7439
 IR Inten    --      1.3329                64.5400                23.7476

                     52                     53                     54
                      A                      A                      A
 Frequencies --   1393.1592              1420.4538              1428.1042
 Red. masses --      3.5744                 1.2982                 4.6226
 Frc consts  --      4.0875                 1.5432                 5.5547
 IR Inten    --     32.0427                 0.0384                70.1548

                     55                     56                     57
                      A                      A                      A
 Frequencies --   1442.7603              1464.4110              1506.5373
 Red. masses --      1.2989                 2.7199                 1.9990
 Frc consts  --      1.5930                 3.4366                 2.6731
 IR Inten    --     27.3311                 8.1697                 4.7394

                     58                     59                     60
                      A                      A                      A
 Frequencies --   1516.5742              1532.0688              1547.1754
 Red. masses --      1.0509                 1.0521                 1.1113
 Frc consts  --      1.4241                 1.4550                 1.5674
 IR Inten    --      4.1848                 3.1036                11.5337

                     61                     62                     63
                      A                      A                      A
 Frequencies --   1556.7433              1572.4107              1639.3330
 Red. masses --      2.0614                 2.5644                 4.6592
 Frc consts  --      2.9433                 3.7356                 7.3773
 IR Inten    --     24.7190               442.8224                67.9671

                     64                     65                     66
                      A                      A                      A
 Frequencies --   1650.8912              1686.9235              3040.0119
 Red. masses --      5.7109                 6.0549                 1.0683
 Frc consts  --      9.1705                10.1519                 5.8168
 IR Inten    --     71.9820                12.0985                47.2716

                     67                     68                     69
                      A                      A                      A
 Frequencies --   3060.4624              3108.2093              3129.3761
 Red. masses --      1.0363                 1.0973                 1.1011
 Frc consts  --      5.7191                 6.2457                 6.3530
 IR Inten    --     16.9627                21.6458                32.9384

                     70                     71                     72
                      A                      A                      A
 Frequencies --   3144.5274              3173.5079              3212.6325
 Red. masses --      1.1031                 1.0889                 1.0875
 Frc consts  --      6.4266                 6.4612                 6.6129
 IR Inten    --     43.8660                21.1674                18.6792

                     73                     74                     75
                      A                      A                      A
 Frequencies --   3215.1801              3228.7806              3256.5278
 Red. masses --      1.0922                 1.0929                 1.0960
 Frc consts  --      6.6522                 6.7127                 6.8480
 IR Inten    --      6.6416                 9.3891                 5.5900

                     76                     77                     78
                      A                      A                      A
 Frequencies --   3302.2770              3603.1478              3673.3632
 Red. masses --      1.0975                 1.0754                 1.0815
 Frc consts  --      7.0512                 8.2261                 8.5981
 IR Inten    --      1.1921                18.6037                80.5412

 - Thermochemistry -
 -------------------
 Temperature   298.150 Kelvin.  Pressure   1.00000 Atm.
 Atom     1 has atomic number  6 and mass  12.00000

 Molecular mass:   203.10586 amu.
 Principal axes and moments of inertia in atomic units:
                           1         2         3
     Eigenvalues --  1107.899677162.899718011.22425
           X            0.99987  -0.01579   0.00091
           Y            0.01578   0.99987   0.00441
           Z           -0.00098  -0.00440   0.99999
 This molecule is an asymmetric top.
 Rotational symmetry number  1.
 Warning -- assumption of classical behavior for rotation
           may cause significant error
 Rotational temperatures (Kelvin)      0.07818     0.01209     0.01081
 Rotational constants (GHZ):           1.62898     0.25196     0.22528
 Zero-point vibrational energy     605612.5 (Joules/Mol)
                                  144.74487 (Kcal/Mol)
 Warning -- explicit consideration of  19 degrees of freedom as
           vibrations may cause significant error
 Vibrational temperatures:     44.00    50.57    63.99   125.92   176.47
          (Kelvin)            234.91   289.72   362.30   413.61   442.00
                              494.78   508.61   553.13   608.18   612.24
                              635.81   733.62   755.51   824.83   915.86
                              939.27   994.12  1020.46  1079.95  1105.96
                             1134.68  1176.85  1194.45  1206.03  1217.68
                             1262.20  1324.10  1344.58  1349.77  1367.88
                             1481.18  1482.91  1549.67  1563.92  1629.27
                             1654.43  1683.48  1734.48  1744.55  1794.94
                             1836.52  1847.97  1913.30  1931.89  1936.48
                             1957.56  2004.45  2043.72  2054.72  2075.81
                             2106.96  2167.57  2182.01  2204.31  2226.04
                             2239.81  2262.35  2358.63  2375.26  2427.11
                             4373.90  4403.32  4472.02  4502.47  4524.27
                             4565.97  4622.26  4625.93  4645.50  4685.42
                             4751.24  5184.13  5285.15

 Zero-point correction=                           0.230666 (Hartree/Particle)
 Thermal correction to Energy=                    0.244183
 Thermal correction to Enthalpy=                  0.245128
 Thermal correction to Gibbs Free Energy=         0.188739
 Sum of electronic and zero-point Energies=           -666.255106
 Sum of electronic and thermal Energies=              -666.241589
 Sum of electronic and thermal Enthalpies=            -666.240645
 Sum of electronic and thermal Free Energies=         -666.297033

                     E (Thermal)             CV                S
                      KCal/Mol        Cal/Mol-Kelvin    Cal/Mol-Kelvin
 Total                  153.227             51.805            118.679
 Electronic               0.000              0.000              0.000
 Translational            0.889              2.981             41.830
 Rotational               0.889              2.981             32.519
 Vibrational            151.450             45.844             44.330
 Vibration     1          0.594              1.984              5.791
 Vibration     2          0.594              1.982              5.515
 Vibration     3          0.595              1.980              5.049
 Vibration     4          0.601              1.958              3.715
 Vibration     5          0.610              1.930              3.058
 Vibration     6          0.623              1.888              2.512
 Vibration     7          0.638              1.838              2.121
 Vibration     8          0.664              1.760              1.718
 Vibration     9          0.685              1.697              1.489
 Vibration    10          0.697              1.660              1.377
 Vibration    11          0.723              1.588              1.194
 Vibration    12          0.730              1.568              1.151
 Vibration    13          0.753              1.503              1.022
 Vibration    14          0.785              1.421              0.883
 Vibration    15          0.787              1.415              0.873
 Vibration    16          0.802              1.379              0.821
 Vibration    17          0.865              1.228              0.634
 Vibration    18          0.880              1.194              0.598
 Vibration    19          0.930              1.089              0.498

 Optimization completed.
    -- Stationary point found.
 Normal termination of Gaussian 16 at Wed Feb 24 14:57:12 2021.

 ----------------------------------------------------------------------
 # B3LYP/6-311++G(d,p) empiricaldispersion=gd3bj scf=xqc pop=npa geom=c
 heck
 ----------------------------------------------------------------------

 ---------------------------------------
 CID_125450486_JID_5598_Energie_neutraal
 ---------------------------------------
 Structure from the checkpoint file:  "JID_5598.chk"
 Charge =  0 Multiplicity = 1

 SCF Done:  E(RB3LYP) =  -666.670514192     A.U. after   15 cycles
 Normal termination of Gaussian 16 at Wed Feb 24 15:00:13 2021.

 ----------------------------------------------------------------------
 # B3LYP/6-311++G(d,p) empiricaldispersion=gd3bj scf=xqc pop=npa geom=c
 heck
 ----------------------------------------------------------------------

 -------------------------------------
 CID_125450486_JID_5598_Energie_kation
 -------------------------------------
 Structure from the checkpoint file:  "JID_5598.chk"
 Charge =  1 Multiplicity = 2

 SCF Done:  E(UB3LYP) =  -666.422012560     A.U. after   21 cycles
 Normal termination of Gaussian 16 at Wed Feb 24 15:05:52 2021.
 Gaussian 16:  ES64L-G16RevA.03 25-Dec-2016

 ----------------------------------------------------------------------
 # B3LYP/6-311++G(d,p) empiricaldispersion=gd3bj scf=xqc pop=npa geom=c
 heck
 ----------------------------------------------------------------------

 ------------------------------------
 CID_125450486_JID_5598_Energie_anion
 ------------------------------------
 Structure from the checkpoint file:  "JID_5598.chk"
 Charge = -1 Multiplicity = 2

                         Standard orientation:
 ---------------------------------------------------------------------
 Center     Atomic      Atomic             Coordinates (Angstroms)
 Number     Number       Type             X           Y           Z
 ---------------------------------------------------------------------
      1          6           0        4.301213   -1.850843    0.592091
      2          6           0        4.403704   -0.739506   -0.447108
      3          8           0        3.767325    0.464065   -0.024893
      4          6           0        2.399718    0.547381   -0.073758
      5          6           0        1.544422   -0.417770   -0.613078
      6          6           0        0.163453   -0.210417   -0.627604
      7          6           0       -0.397606    0.955028   -0.091740
      8          6           0        0.471891    1.918036    0.448822
      9          6           0        1.845101    1.720983    0.452045
     10          7           0       -1.774803    1.208828   -0.127384
     11          6           0       -2.775449    0.238114   -0.015992
     12          6           0       -2.695298   -1.084229    0.399568
     13          7           0       -3.969309   -1.569480    0.335791
     14          7           0       -4.871571   -0.662756   -0.078960
     15          6           0       -4.151571    0.436317   -0.303945
     16          1           0        4.732019   -1.517559    1.541413
     17          1           0        4.849446   -2.737406    0.253433
     18          1           0        3.261221   -2.137627    0.772832
     19          1           0        5.449250   -0.456084   -0.597454
     20          1           0        4.007816   -1.059192   -1.420392
     21          1           0        1.933359   -1.335556   -1.037953
     22          1           0       -0.478724   -0.955941   -1.082813
     23          1           0        0.061460    2.832160    0.872445
     24          1           0        2.513119    2.468058    0.868450
     25          1           0       -2.041558    2.126188    0.201766
     26          1           0       -1.862131   -1.685631    0.725998
     27          1           0       -4.278762   -2.507622    0.536372
     28          1           0       -4.632804    1.338989   -0.656892
 ---------------------------------------------------------------------

 SCF Done:  E(UB3LYP) =  -666.658694246     A.U. after   33 cycles
 SCF Done:  E(UB3LYP) =  -666.658694246     a.u. after    1 cycles

 The electronic state is 2-A.
 Alpha  occ. eigenvalues --  -19.05519 -14.28882 -14.24369 -14.23930 -10.13554
 Alpha  occ. eigenvalues --  -10.13434 -10.12128 -10.11535 -10.10796 -10.09547
 Alpha  occ. eigenvalues --  -10.08374 -10.08116 -10.08096 -10.07900 -10.07149
 Alpha  occ. eigenvalues --   -0.97060  -0.95413  -0.85497  -0.75736  -0.72321
 Alpha  occ. eigenvalues --   -0.68966  -0.67544  -0.65676  -0.63021  -0.55944
 Alpha  occ. eigenvalues --   -0.53838  -0.52069  -0.50288  -0.48677  -0.46372
 Alpha  occ. eigenvalues --   -0.44313  -0.42434  -0.40347  -0.38006  -0.36595
 Alpha  occ. eigenvalues --   -0.35689  -0.35506  -0.34948  -0.33912  -0.32963
 Alpha  occ. eigenvalues --   -0.31960  -0.31054  -0.30311  -0.29120  -0.28825
 Alpha  occ. eigenvalues --   -0.26060  -0.26037  -0.23214  -0.21385  -0.20445
 Alpha  occ. eigenvalues --   -0.16793  -0.16588  -0.14858  -0.09261   0.04075
 Alpha virt. eigenvalues --    0.05681   0.05851   0.07364   0.07830   0.07916
 Alpha virt. eigenvalues --    0.08229   0.09108   0.09251   0.09787   0.10195
 Alpha virt. eigenvalues --    0.10931   0.11341   0.12356   0.12621   0.12813

  Beta  occ. eigenvalues --  -19.05516 -14.28834 -14.24358 -14.23929 -10.13554
  Beta  occ. eigenvalues --  -10.13415 -10.12129 -10.11537 -10.10778 -10.09541
  Beta  occ. eigenvalues --  -10.08360 -10.08098 -10.08092 -10.07887 -10.07113
  Beta  occ. eigenvalues --   -0.97049  -0.95377  -0.85478  -0.75717  -0.72266
  Beta  occ. eigenvalues --   -0.68940  -0.67508  -0.65647  -0.62987  -0.55888
  Beta  occ. eigenvalues --   -0.53803  -0.52004  -0.50251  -0.48644  -0.46314
  Beta  occ. eigenvalues --   -0.44281  -0.42401  -0.40313  -0.37967  -0.36563
  Beta  occ. eigenvalues --   -0.35646  -0.35459  -0.34922  -0.33889  -0.32935
  Beta  occ. eigenvalues --   -0.31938  -0.31025  -0.30279  -0.29093  -0.28790
  Beta  occ. eigenvalues --   -0.26031  -0.26011  -0.23192  -0.21362  -0.20429
  Beta  occ. eigenvalues --   -0.16772  -0.16559  -0.14845  -0.09241
  Beta virt. eigenvalues --    0.06155   0.06590   0.07334   0.07514   0.08117
  Beta virt. eigenvalues --    0.08389   0.08672   0.09181   0.09578   0.10244
  Beta virt. eigenvalues --    0.10448   0.11176   0.11760   0.12463   0.12744

 Mulliken charges and spin densities:
               1          2
     1  C    0.855883  -1.234619
     2  C   -0.302028   0.064988
     3  O   -0.113014   0.006590
     4  C   -0.559276   0.069108
     5  C    0.422687   0.018536
     6  C    1.740222  -1.249542
     7  C    0.596032  -1.291390
     8  C   -0.866657   0.675794
     9  C   -0.793167   0.383019
    10  N   -0.023008   0.061010
    11  C   -0.078093  -0.030406
    12  C    0.765749  -1.074928
    13  N    0.185259  -0.172938
    14  N   -0.189849  -0.034837
    15  C   -0.622857   0.440682
    16  H    0.002442   0.142581
    17  H   -0.353512   0.482571
    18  H   -0.157274   0.299790
    19  H   -0.414867   0.600736
    20  H   -0.002455   0.127175
    21  H   -0.137239   0.335357
    22  H   -0.161713   0.372364
    23  H   -0.387402   0.528356
    24  H    0.108079   0.066021
    25  H    0.140900   0.107700
    26  H   -0.279580   0.459509
    27  H   -0.381694   0.712327
    28  H    0.006432   0.134448
 Sum of Mulliken charges =  -1.00000   1.00000

 Dipole moment (field-independent basis, Debye):
    X=              0.4925    Y=              5.8413    Z=             -0.5306  Tot=              5.8860
 Quadrupole moment (field-independent basis, Debye-Ang):
   XX=           -195.0238   YY=           -136.0487   ZZ=           -114.4383
   XY=             -3.6732   XZ=              2.7034   YZ=              1.2049

 Summary of Natural Population Analysis:

                                       Natural Population
                Natural  -----------------------------------------------
    Atom  No    Charge         Core      Valence    Rydberg      Total
 -----------------------------------------------------------------------
      C    1   -0.30092      0.99966     2.29651    0.00475     3.30092
      C    2   -0.01165      0.99958     1.99963    0.01244     3.01165
      O    3   -0.28042      0.99986     3.27090    0.00966     4.28042
      C    4    0.14586      0.99937     1.84219    0.01259     2.85414
      C    5   -0.13187      0.99953     2.12385    0.00850     3.13187
      C    6   -0.11358      0.99954     2.10509    0.00896     3.11358
      C    7    0.07261      0.99948     1.91713    0.01078     2.92739
      C    8   -0.11171      0.99953     2.10342    0.00876     3.11171
      C    9   -0.11308      0.99953     2.10363    0.00992     3.11308
      N   10   -0.30379      0.99965     2.79400    0.01014     3.80379
      C   11    0.02731      0.99948     1.96221    0.01101     2.97269
      C   12   -0.03504      0.99953     2.02384    0.01166     3.03504
      N   13   -0.16336      0.99971     2.64889    0.01475     3.66336
      N   14   -0.15295      0.99974     2.63854    0.01466     3.65295
      C   15   -0.02812      0.99959     2.01475    0.01378     3.02812
      H   16    0.10015      0.00000     0.39883    0.00102     0.39985
      H   17    0.10349      0.00000     0.39474    0.00177     0.39651
      H   18    0.10367      0.00000     0.39484    0.00149     0.39633
      H   19    0.09093      0.00000     0.40772    0.00135     0.40907
      H   20    0.08226      0.00000     0.41613    0.00161     0.41774
      H   21    0.10631      0.00000     0.39223    0.00146     0.39369
      H   22    0.10725      0.00000     0.39106    0.00169     0.39275
      H   23    0.09858      0.00000     0.40021    0.00120     0.40142
      H   24    0.10480      0.00000     0.39409    0.00111     0.39520
      H   25    0.18857      0.00000     0.30873    0.00270     0.31143
      H   26    0.11389      0.00000     0.38397    0.00214     0.38611
      H   27    0.20457      0.00000     0.28482    0.01061     0.29543
      H   28    0.09625      0.00000     0.40269    0.00106     0.40375
 =======================================================================
   * Total *   -0.00000     14.99378    38.81464    0.19158    54.00000

 Normal termination of Gaussian 16 at Wed Feb 24 15:14:56 2021.
