 Gaussian 16, Revision A.03,

 -----------------------------------------------------------
 # opt freq B3LYP/6-31G(d) empiricaldispersion=gd3bj scf=xqc
 -----------------------------------------------------------

 ------------------------------
 CID_50999627_JID_7050_neutraal
 ------------------------------
 Symbolic Z-matrix:
 Charge =  0 Multiplicity = 1

 SCF Done:  E(RB3LYP) =  -779.751957851     A.U. after   15 cycles
 SCF Done:  E(RB3LYP) =  -779.754542072     A.U. after   14 cycles
 SCF Done:  E(RB3LYP) =  -779.750309235     A.U. after   14 cycles
 SCF Done:  E(RB3LYP) =  -779.755100154     A.U. after   14 cycles
 SCF Done:  E(RB3LYP) =  -779.755509674     A.U. after   13 cycles
 SCF Done:  E(RB3LYP) =  -779.755865894     A.U. after   14 cycles
 SCF Done:  E(RB3LYP) =  -779.756194848     A.U. after   14 cycles
 SCF Done:  E(RB3LYP) =  -779.756349980     A.U. after   13 cycles
 SCF Done:  E(RB3LYP) =  -779.756401829     A.U. after   13 cycles
 SCF Done:  E(RB3LYP) =  -779.756423543     A.U. after   13 cycles
 SCF Done:  E(RB3LYP) =  -779.756478438     A.U. after   10 cycles
 SCF Done:  E(RB3LYP) =  -779.756482671     A.U. after   11 cycles
 SCF Done:  E(RB3LYP) =  -779.756482887     A.U. after    9 cycles
 SCF Done:  E(RB3LYP) =  -779.756482919     A.U. after    7 cycles
 Optimization completed on the basis of negligible forces.
    -- Stationary point found.
 Normal termination of Gaussian 16 at Sun Dec 13 20:18:06 2020.

 --------------------------------------------------------------------
 #N Geom=AllCheck Guess=TCheck SCRF=Check GenChk RB3LYP/6-31G(d) Freq
 --------------------------------------------------------------------

 Structure from the checkpoint file:  "JID_7050.chk"
 ------------------------------
 CID_50999627_JID_7050_neutraal
 ------------------------------
 Charge =  0 Multiplicity = 1

 SCF Done:  E(RB3LYP) =  -779.756482919     A.U. after    1 cycles

  Exact polarizability: 194.695 -19.512 145.759  -4.040   3.932 105.684
 Approx polarizability: 267.788 -35.384 238.590  -3.820  16.643 196.881

                      1                      2                      3
                      A                      A                      A
 Frequencies --     13.2624                20.2405                24.8108
 Red. masses --      5.3109                 2.8486                 1.2058
 Frc consts  --      0.0006                 0.0007                 0.0004
 IR Inten    --      2.3688                 2.1585                 0.4572

                      4                      5                      6
                      A                      A                      A
 Frequencies --     32.3152                40.8051                72.0212
 Red. masses --      1.0193                 7.1290                 6.5565
 Frc consts  --      0.0006                 0.0070                 0.0200
 IR Inten    --      0.3883                 0.0328                 1.6191

                      7                      8                      9
                      A                      A                      A
 Frequencies --    154.6093               156.5091               192.5244
 Red. masses --      5.4143                 6.3554                 4.0957
 Frc consts  --      0.0763                 0.0917                 0.0894
 IR Inten    --      2.6416                 1.0328                 1.4903

                     10                     11                     12
                      A                      A                      A
 Frequencies --    221.2623               226.6965               248.9794
 Red. masses --      4.5380                 3.0438                 3.4073
 Frc consts  --      0.1309                 0.0922                 0.1244
 IR Inten    --      0.2890                 0.1593                 0.8061

                     13                     14                     15
                      A                      A                      A
 Frequencies --    264.2636               311.6559               369.4749
 Red. masses --      2.9205                 4.9240                 2.6941
 Frc consts  --      0.1202                 0.2818                 0.2167
 IR Inten    --      1.0037                 1.0700                 3.7698

                     16                     17                     18
                      A                      A                      A
 Frequencies --    433.6676               463.5830               514.7067
 Red. masses --      4.4641                 3.3574                 4.1248
 Frc consts  --      0.4947                 0.4251                 0.6438
 IR Inten    --      1.3791                 0.7335                 2.1488

                     19                     20                     21
                      A                      A                      A
 Frequencies --    522.6833               528.2286               546.0201
 Red. masses --      4.7501                 3.2838                 5.5877
 Frc consts  --      0.7646                 0.5398                 0.9815
 IR Inten    --      0.7028                 0.2497                 0.9155

                     22                     23                     24
                      A                      A                      A
 Frequencies --    562.5291               616.6735               643.1007
 Red. masses --      5.0706                 4.2482                 7.1090
 Frc consts  --      0.9454                 0.9518                 1.7323
 IR Inten    --      0.2001                 0.7227                12.5457

                     25                     26                     27
                      A                      A                      A
 Frequencies --    676.1983               710.6131               761.7874
 Red. masses --      4.9501                 3.0610                 1.9842
 Frc consts  --      1.3336                 0.9107                 0.6784
 IR Inten    --      3.4809                 2.1684                42.1109

                     28                     29                     30
                      A                      A                      A
 Frequencies --    772.4811               783.6680               835.4272
 Red. masses --      3.2477                 2.5982                12.0297
 Frc consts  --      1.1418                 0.9401                 4.9468
 IR Inten    --     20.2113                13.7708                62.1121

                     31                     32                     33
                      A                      A                      A
 Frequencies --    865.9256               874.1557               901.4478
 Red. masses --      1.3475                 1.4057                 1.3026
 Frc consts  --      0.5953                 0.6329                 0.6236
 IR Inten    --      2.5451                11.8128                 1.0074

                     34                     35                     36
                      A                      A                      A
 Frequencies --    919.3292               948.2863               965.4611
 Red. masses --      1.3645                 2.5310                 2.5967
 Frc consts  --      0.6795                 1.3410                 1.4261
 IR Inten    --      1.6128                 2.8795                 1.5679

                     37                     38                     39
                      A                      A                      A
 Frequencies --    998.0320              1020.0971              1024.5113
 Red. masses --      2.5767                 5.5220                 4.4113
 Frc consts  --      1.5122                 3.3856                 2.7281
 IR Inten    --      0.5510                 2.7330                 6.4305

                     40                     41                     42
                      A                      A                      A
 Frequencies --   1034.7494              1049.0722              1051.2753
 Red. masses --      3.3804                 1.8145                 1.5904
 Frc consts  --      2.1325                 1.1766                 1.0356
 IR Inten    --      1.3511                 0.8665                 1.4009

                     43                     44                     45
                      A                      A                      A
 Frequencies --   1076.0788              1077.6538              1080.1282
 Red. masses --      1.5196                 1.5256                 1.3489
 Frc consts  --      1.0367                 1.0439                 0.9272
 IR Inten    --      6.9586                 4.1638                25.4361

                     46                     47                     48
                      A                      A                      A
 Frequencies --   1191.4315              1201.3351              1206.5467
 Red. masses --      1.5242                 1.4316                 1.4548
 Frc consts  --      1.2748                 1.2173                 1.2478
 IR Inten    --      7.9010                 3.3518                 0.0804

                     49                     50                     51
                      A                      A                      A
 Frequencies --   1218.7874              1321.5162              1334.3513
 Red. masses --      1.8926                 3.4371                 1.8057
 Frc consts  --      1.6564                 3.5366                 1.8942
 IR Inten    --     53.8185                 2.9321                 1.0249

                     52                     53                     54
                      A                      A                      A
 Frequencies --   1351.0332              1367.3067              1393.8842
 Red. masses --      4.7418                 2.6405                 1.7489
 Frc consts  --      5.0995                 2.9085                 2.0020
 IR Inten    --    159.7800                 8.2534                37.1087

                     55                     56                     57
                      A                      A                      A
 Frequencies --   1406.2551              1427.6663              1442.3057
 Red. masses --      3.1947                10.3896                 1.2338
 Frc consts  --      3.7223                12.4768                 1.5122
 IR Inten    --      6.5268               220.5500                 0.1399

                     58                     59                     60
                      A                      A                      A
 Frequencies --   1444.9204              1448.2102              1480.4278
 Red. masses --      1.2899                 4.5846                 2.0388
 Frc consts  --      1.5867                 5.6652                 2.6327
 IR Inten    --      0.4849                 7.2147                 0.0609

                     61                     62                     63
                      A                      A                      A
 Frequencies --   1494.6460              1501.4734              1510.2382
 Red. masses --      3.2719                 1.7966                 1.3267
 Frc consts  --      4.3066                 2.3864                 1.7828
 IR Inten    --     15.0916                 2.5346                11.5655

                     64                     65                     66
                      A                      A                      A
 Frequencies --   1515.9004              1517.2209              1532.2019
 Red. masses --      1.0471                 1.0533                 1.3365
 Frc consts  --      1.4176                 1.4286                 1.8487
 IR Inten    --     10.1591                 1.8007                16.0006

                     67                     68                     69
                      A                      A                      A
 Frequencies --   1538.3623              1559.3095              1647.2150
 Red. masses --      1.3360                 5.0232                14.0643
 Frc consts  --      1.8629                 7.1961                22.4837
 IR Inten    --     14.9860                18.5152               193.0964

                     70                     71                     72
                      A                      A                      A
 Frequencies --   1665.0835              1668.2453              3044.6170
 Red. masses --      5.3315                 5.7261                 1.0391
 Frc consts  --      8.7091                 9.3892                 5.6753
 IR Inten    --     12.8686                22.1318                32.9596

                     73                     74                     75
                      A                      A                      A
 Frequencies --   3046.9783              3088.7649              3099.6831
 Red. masses --      1.0382                 1.0607                 1.0982
 Frc consts  --      5.6789                 5.9625                 6.2170
 IR Inten    --     23.2598                18.7684                15.1404

                     76                     77                     78
                      A                      A                      A
 Frequencies --   3100.2546              3129.0736              3133.2401
 Red. masses --      1.1001                 1.1018                 1.1012
 Frc consts  --      6.2298                 6.3558                 6.3693
 IR Inten    --     22.1975                14.5510                13.3975

                     79                     80                     81
                      A                      A                      A
 Frequencies --   3143.1758              3167.3791              3171.9564
 Red. masses --      1.1051                 1.0899                 1.0900
 Frc consts  --      6.4327                 6.4420                 6.4616
 IR Inten    --      1.7495                20.1664                16.7455

                     82                     83                     84
                      A                      A                      A
 Frequencies --   3190.8168              3283.1482              3319.6515
 Red. masses --      1.0908                 1.0956                 1.1020
 Frc consts  --      6.5431                 6.9583                 7.1553
 IR Inten    --      2.8965                 0.1327                 3.1203

 - Thermochemistry -
 -------------------
 Temperature   298.150 Kelvin.  Pressure   1.00000 Atm.
 Atom     1 has atomic number  6 and mass  12.00000

 Molecular mass:   231.10078 amu.
 Principal axes and moments of inertia in atomic units:
                           1         2         3
     Eigenvalues --  1829.787327940.659158907.44367
           X            0.99999   0.00432  -0.00325
           Y           -0.00434   0.99997  -0.00564
           Z            0.00322   0.00566   0.99998
 This molecule is an asymmetric top.
 Rotational symmetry number  1.
 Warning -- assumption of classical behavior for rotation
           may cause significant error
 Rotational temperatures (Kelvin)      0.04734     0.01091     0.00972
 Rotational constants (GHZ):           0.98631     0.22728     0.20261
 Zero-point vibrational energy     627510.8 (Joules/Mol)
                                  149.97868 (Kcal/Mol)
 Warning -- explicit consideration of  23 degrees of freedom as
           vibrations may cause significant error
 Vibrational temperatures:     19.08    29.12    35.70    46.49    58.71
          (Kelvin)            103.62   222.45   225.18   277.00   318.35
                              326.17   358.23   380.22   448.40   531.59
                              623.95   666.99   740.55   752.02   760.00
                              785.60   809.35   887.26   925.28   972.90
                             1022.41  1096.04  1111.43  1127.52  1201.99
                             1245.87  1257.72  1296.98  1322.71  1364.37
                             1389.08  1435.95  1467.69  1474.04  1488.77
                             1509.38  1512.55  1548.24  1550.50  1554.06
                             1714.20  1728.45  1735.95  1753.56  1901.37
                             1919.83  1943.84  1967.25  2005.49  2023.29
                             2054.09  2075.16  2078.92  2083.65  2130.01
                             2150.46  2160.29  2172.90  2181.04  2182.94
                             2204.50  2213.36  2243.50  2369.98  2395.68
                             2400.23  4380.52  4383.92  4444.04  4459.75
                             4460.57  4502.04  4508.03  4522.33  4557.15
                             4563.74  4590.87  4723.72  4776.24

 Zero-point correction=                           0.239006 (Hartree/Particle)
 Thermal correction to Energy=                    0.254808
 Thermal correction to Enthalpy=                  0.255752
 Thermal correction to Gibbs Free Energy=         0.190873
 Sum of electronic and zero-point Energies=           -779.517477
 Sum of electronic and thermal Energies=              -779.501675
 Sum of electronic and thermal Enthalpies=            -779.500731
 Sum of electronic and thermal Free Energies=         -779.565610

                     E (Thermal)             CV                S
                      KCal/Mol        Cal/Mol-Kelvin    Cal/Mol-Kelvin
 Total                  159.894             57.247            136.549
 Electronic               0.000              0.000              0.000
 Translational            0.889              2.981             42.215
 Rotational               0.889              2.981             33.226
 Vibrational            158.117             51.285             61.109
 Vibration     1          0.593              1.987              7.450
 Vibration     2          0.593              1.986              6.610
 Vibration     3          0.593              1.985              6.206
 Vibration     4          0.594              1.983              5.682
 Vibration     5          0.594              1.981              5.220
 Vibration     6          0.598              1.967              4.097
 Vibration     7          0.620              1.898              2.615
 Vibration     8          0.620              1.895              2.592
 Vibration     9          0.635              1.850              2.203
 Vibration    10          0.648              1.809              1.949
 Vibration    11          0.650              1.800              1.905
 Vibration    12          0.662              1.764              1.738
 Vibration    13          0.671              1.738              1.633
 Vibration    14          0.700              1.651              1.354
 Vibration    15          0.742              1.535              1.082
 Vibration    16          0.794              1.397              0.847
 Vibration    17          0.821              1.331              0.756
 Vibration    18          0.870              1.217              0.622
 Vibration    19          0.878              1.200              0.604
 Vibration    20          0.883              1.188              0.591
 Vibration    21          0.901              1.148              0.552
 Vibration    22          0.918              1.112              0.519
 Vibration    23          0.976              0.997              0.422

                           ! Non-Optimized Parameters !
 Normal termination of Gaussian 16 at Sun Dec 13 20:28:02 2020.

 ----------------------------------------------------------------------
 # B3LYP/6-311++G(d,p) empiricaldispersion=gd3bj scf=xqc pop=npa geom=c
 heck
 ----------------------------------------------------------------------

 --------------------------------------
 CID_50999627_JID_7050_Energie_neutraal
 --------------------------------------
 Structure from the checkpoint file:  "JID_7050.chk"
 Charge =  0 Multiplicity = 1

 SCF Done:  E(RB3LYP) =  -779.967434329     A.U. after   15 cycles
 Normal termination of Gaussian 16 at Sun Dec 13 20:32:26 2020.

 ----------------------------------------------------------------------
 # B3LYP/6-311++G(d,p) empiricaldispersion=gd3bj scf=xqc pop=npa geom=c
 heck
 ----------------------------------------------------------------------

 ------------------------------------
 CID_50999627_JID_7050_Energie_kation
 ------------------------------------
 Structure from the checkpoint file:  "JID_7050.chk"
 Charge =  1 Multiplicity = 2

 SCF Done:  E(UB3LYP) =  -779.645134957     A.U. after   33 cycles
 SCF Done:  E(UB3LYP) =  -779.645134957     a.u. after    2 cycles
 Normal termination of Gaussian 16 at Sun Dec 13 21:04:34 2020.
 Gaussian 16:  ES64L-G16RevA.03 25-Dec-2016

 ----------------------------------------------------------------------
 # B3LYP/6-311++G(d,p) empiricaldispersion=gd3bj scf=xqc pop=npa geom=c
 heck
 ----------------------------------------------------------------------

 -----------------------------------
 CID_50999627_JID_7050_Energie_anion
 -----------------------------------
 Structure from the checkpoint file:  "JID_7050.chk"
 Charge = -1 Multiplicity = 2

                         Standard orientation:
 ---------------------------------------------------------------------
 Center     Atomic      Atomic             Coordinates (Angstroms)
 Number     Number       Type             X           Y           Z
 ---------------------------------------------------------------------
      1          6           0        2.203821    3.083927   -0.268688
      2          6           0        2.328302    1.596389   -0.046450
      3          6           0        3.515031    0.925473   -0.379168
      4          6           0        3.658441   -0.450220   -0.200103
      5          6           0        2.573912   -1.170588    0.321398
      6          6           0        1.388801   -0.525720    0.665298
      7          6           0        1.270312    0.857201    0.480506
      8          6           0        0.226196   -1.310597    1.232337
      9          7           0       -0.992292   -1.140065    0.441157
     10          6           0       -1.264925   -1.681834   -0.782390
     11          6           0       -2.465478   -1.146315   -1.199349
     12          6           0       -2.816103   -0.280541   -0.145016
     13          7           0       -1.926457   -0.269435    0.845946
     14          7           0       -4.003985    0.540210   -0.074975
     15          8           0       -4.774644    0.455651   -1.035732
     16          8           0       -4.165581    1.254485    0.909505
     17          6           0        4.950806   -1.151483   -0.541102
     18          1           0        3.039633    3.626494    0.188113
     19          1           0        2.209011    3.325570   -1.338917
     20          1           0        1.274378    3.473999    0.156042
     21          1           0        4.346579    1.494844   -0.789877
     22          1           0        2.663276   -2.246346    0.461207
     23          1           0        0.338678    1.352502    0.742030
     24          1           0        0.459362   -2.378629    1.270864
     25          1           0       -0.034741   -0.979821    2.240201
     26          1           0       -0.589559   -2.385609   -1.246218
     27          1           0       -3.017876   -1.338105   -2.104474
     28          1           0        5.581626   -0.533775   -1.187463
     29          1           0        5.528446   -1.379220    0.364067
     30          1           0        4.767435   -2.102118   -1.054291
 ---------------------------------------------------------------------

 SCF Done:  E(UB3LYP) =  -779.990809450     A.U. after   33 cycles
 SCF Done:  E(UB3LYP) =  -779.990809450     a.u. after    1 cycles

 The electronic state is 2-A.
 Alpha  occ. eigenvalues --  -18.93702 -18.93637 -14.31545 -14.26222 -14.18859
 Alpha  occ. eigenvalues --  -10.11296 -10.09391 -10.09318 -10.08908 -10.08390
 Alpha  occ. eigenvalues --  -10.08229 -10.08213 -10.07746 -10.07619 -10.07455
 Alpha  occ. eigenvalues --  -10.06932 -10.04206  -1.01908  -0.92980  -0.84708
 Alpha  occ. eigenvalues --   -0.77377  -0.73197  -0.69577  -0.67680  -0.66239
 Alpha  occ. eigenvalues --   -0.61543  -0.59721  -0.59430  -0.53879  -0.49582
 Alpha  occ. eigenvalues --   -0.48760  -0.46060  -0.42565  -0.41086  -0.39544
 Alpha  occ. eigenvalues --   -0.38856  -0.36266  -0.34840  -0.34620  -0.34404
 Alpha  occ. eigenvalues --   -0.33296  -0.33123  -0.32407  -0.31751  -0.31707
 Alpha  occ. eigenvalues --   -0.31123  -0.29797  -0.28817  -0.28755  -0.28156
 Alpha  occ. eigenvalues --   -0.25337  -0.24854  -0.24770  -0.16918  -0.15714
 Alpha  occ. eigenvalues --   -0.15178  -0.13675  -0.12681  -0.12461  -0.11554
 Alpha  occ. eigenvalues --   -0.09523   0.03889
 Alpha virt. eigenvalues --    0.05611   0.06978   0.07154   0.07395   0.07668
 Alpha virt. eigenvalues --    0.09053   0.09435   0.10309   0.10690   0.11202
 Alpha virt. eigenvalues --    0.11360   0.12470   0.12672   0.13140   0.14100

  Beta  occ. eigenvalues --  -18.93246 -18.93147 -14.30895 -14.26099 -14.18493
  Beta  occ. eigenvalues --  -10.11307 -10.09398 -10.09317 -10.08892 -10.08440
  Beta  occ. eigenvalues --  -10.08215 -10.08143 -10.07727 -10.07587 -10.07384
  Beta  occ. eigenvalues --  -10.06930 -10.04172  -1.00850  -0.92650  -0.83817
  Beta  occ. eigenvalues --   -0.77276  -0.72954  -0.69536  -0.67461  -0.66080
  Beta  occ. eigenvalues --   -0.61386  -0.59464  -0.59305  -0.53208  -0.49477
  Beta  occ. eigenvalues --   -0.48708  -0.45898  -0.42414  -0.41003  -0.39252
  Beta  occ. eigenvalues --   -0.38589  -0.35904  -0.34641  -0.34073  -0.33460
  Beta  occ. eigenvalues --   -0.33259  -0.32363  -0.31839  -0.31437  -0.31300
  Beta  occ. eigenvalues --   -0.31027  -0.29664  -0.28555  -0.28156  -0.27862
  Beta  occ. eigenvalues --   -0.25173  -0.24782  -0.24605  -0.16447  -0.15240
  Beta  occ. eigenvalues --   -0.14997  -0.12702  -0.11708  -0.11102  -0.09416
  Beta  occ. eigenvalues --   -0.09055
  Beta virt. eigenvalues --    0.05530   0.07085   0.07320   0.07440   0.07629
  Beta virt. eigenvalues --    0.09002   0.09337   0.10245   0.10652   0.11148
  Beta virt. eigenvalues --    0.11299   0.11710   0.12512   0.12631   0.13543

 Mulliken charges and spin densities:
               1          2
     1  C   -0.523139   0.005002
     2  C    0.095335   0.017956
     3  C   -0.358432   0.051506
     4  C    0.425896  -0.073140
     5  C   -0.261940  -0.049316
     6  C    0.647665   0.236682
     7  C   -0.690853   0.023958
     8  C   -0.463388  -0.112803
     9  N    0.463234   0.019998
    10  C   -0.443352  -0.040462
    11  C    0.310410   0.069320
    12  C   -0.440324  -0.039432
    13  N   -0.312646   0.190733
    14  N   -0.298671   0.207489
    15  O   -0.218182   0.183479
    16  O   -0.169427   0.182409
    17  C   -0.487461  -0.119926
    18  H    0.126158   0.002777
    19  H    0.146939   0.005527
    20  H    0.161248  -0.000496
    21  H    0.114177  -0.003435
    22  H    0.046289   0.075979
    23  H    0.196157   0.002904
    24  H    0.123346   0.036386
    25  H    0.114945   0.091705
    26  H    0.102437   0.011727
    27  H    0.194653   0.000122
    28  H    0.120134   0.013698
    29  H    0.141779   0.009588
    30  H    0.137014   0.000066
 Sum of Mulliken charges =  -1.00000   1.00000

 Dipole moment (field-independent basis, Debye):
    X=             14.9764    Y=             -3.2733    Z=             -1.0447  Tot=             15.3655
 Quadrupole moment (field-independent basis, Debye-Ang):
   XX=           -190.3308   YY=           -107.4845   ZZ=           -113.1154
   XY=             13.9277   XZ=             -0.5500   YZ=             -1.4035

 Summary of Natural Population Analysis:

                                       Natural Population
                Natural  -----------------------------------------------
    Atom  No    Charge         Core      Valence    Rydberg      Total
 -----------------------------------------------------------------------
      C    1   -0.29224      0.99964     2.28796    0.00465     3.29224
      C    2   -0.00849      0.99952     2.00136    0.00760     3.00849
      C    3   -0.09663      0.99947     2.08925    0.00790     3.09663
      C    4   -0.01735      0.99952     2.01015    0.00768     3.01735
      C    5   -0.10290      0.99947     2.09567    0.00777     3.10290
      C    6   -0.00322      0.99950     1.99415    0.00957     3.00322
      C    7   -0.09821      0.99947     2.09110    0.00764     3.09821
      C    8   -0.08880      0.99958     2.07697    0.01225     3.08880
      N    9   -0.09649      0.99966     2.58194    0.01489     3.59649
      C   10   -0.03498      0.99958     2.02587    0.00952     3.03498
      C   11   -0.14778      0.99953     2.13922    0.00903     3.14778
      C   12    0.11945      0.99949     1.85914    0.02192     2.88055
      N   13   -0.08802      0.99969     2.57521    0.01312     3.58802
      N   14    0.30319      0.99970     2.17115    0.02596     3.19681
      O   15   -0.19895      0.99990     3.19172    0.00733     4.19895
      O   16   -0.18395      0.99990     3.17655    0.00750     4.18395
      C   17   -0.29025      0.99964     2.28613    0.00448     3.29025
      H   18    0.09850      0.00000     0.40058    0.00092     0.40150
      H   19    0.10226      0.00000     0.39685    0.00089     0.39774
      H   20    0.10531      0.00000     0.39394    0.00076     0.39469
      H   21    0.09138      0.00000     0.40744    0.00118     0.40862
      H   22    0.09335      0.00000     0.40518    0.00147     0.40665
      H   23    0.11240      0.00000     0.38633    0.00127     0.38760
      H   24    0.09586      0.00000     0.40304    0.00110     0.40414
      H   25    0.11541      0.00000     0.38325    0.00134     0.38459
      H   26    0.09678      0.00000     0.40224    0.00098     0.40322
      H   27    0.11438      0.00000     0.38473    0.00089     0.38562
      H   28    0.09904      0.00000     0.40015    0.00081     0.40096
      H   29    0.10068      0.00000     0.39837    0.00095     0.39932
      H   30    0.10027      0.00000     0.39871    0.00102     0.39973
 =======================================================================
   * Total *    0.00000     16.99328    43.81433    0.19239    61.00000

 Normal termination of Gaussian 16 at Sun Dec 13 21:18:09 2020.
