 Gaussian 16, Revision A.03,

 -----------------------------------------------------------
 # opt freq B3LYP/6-31G(d) empiricaldispersion=gd3bj scf=xqc
 -----------------------------------------------------------

 -------------------------------
 CID_121002499_JID_8443_neutraal
 -------------------------------
 Symbolic Z-matrix:
 Charge =  0 Multiplicity = 1

 SCF Done:  E(RB3LYP) =  -877.374011825     A.U. after   15 cycles
 SCF Done:  E(RB3LYP) =  -877.388938746     A.U. after   13 cycles
 SCF Done:  E(RB3LYP) =  -877.393531825     A.U. after   14 cycles
 SCF Done:  E(RB3LYP) =  -877.395743156     A.U. after   13 cycles
 SCF Done:  E(RB3LYP) =  -877.397498158     A.U. after   13 cycles
 SCF Done:  E(RB3LYP) =  -877.398663898     A.U. after   13 cycles
 SCF Done:  E(RB3LYP) =  -877.399653797     A.U. after   13 cycles
 SCF Done:  E(RB3LYP) =  -877.400538353     A.U. after   13 cycles
 SCF Done:  E(RB3LYP) =  -877.401264109     A.U. after   12 cycles
 SCF Done:  E(RB3LYP) =  -877.401838641     A.U. after   13 cycles
 SCF Done:  E(RB3LYP) =  -877.408473110     A.U. after   11 cycles
 SCF Done:  E(RB3LYP) =  -877.408476259     A.U. after   11 cycles
 SCF Done:  E(RB3LYP) =  -877.408477589     A.U. after   10 cycles
 SCF Done:  E(RB3LYP) =  -877.408477925     A.U. after    8 cycles
 SCF Done:  E(RB3LYP) =  -877.408477886     A.U. after    8 cycles
 Optimization completed.
    -- Stationary point found.
 Normal termination of Gaussian 16 at Fri Dec 11 21:09:28 2020.

 --------------------------------------------------------------------
 #N Geom=AllCheck Guess=TCheck SCRF=Check GenChk RB3LYP/6-31G(d) Freq
 --------------------------------------------------------------------

 Structure from the checkpoint file:  "JID_8443.chk"
 -------------------------------
 CID_121002499_JID_8443_neutraal
 -------------------------------
 Charge =  0 Multiplicity = 1

 SCF Done:  E(RB3LYP) =  -877.408477886     A.U. after    1 cycles

  Exact polarizability: 170.716  -7.103 145.502   8.132  -2.320 120.459
 Approx polarizability: 248.762 -17.430 219.528  28.278 -10.899 186.273

                      1                      2                      3
                      A                      A                      A
 Frequencies --     22.8095                42.1857                46.5788
 Red. masses --      4.4683                 6.8467                 4.6266
 Frc consts  --      0.0014                 0.0072                 0.0059
 IR Inten    --      0.2293                 2.5553                 1.3521

                      4                      5                      6
                      A                      A                      A
 Frequencies --     63.4332                75.4327                82.9157
 Red. masses --      4.4014                 3.6215                 4.1952
 Frc consts  --      0.0104                 0.0121                 0.0170
 IR Inten    --      5.9081                 1.0434                 4.8438

                      7                      8                      9
                      A                      A                      A
 Frequencies --    106.6522               130.9107               165.9808
 Red. masses --      5.1640                 4.1941                 2.7025
 Frc consts  --      0.0346                 0.0423                 0.0439
 IR Inten    --      0.5680                 1.3879                 1.0386

                     10                     11                     12
                      A                      A                      A
 Frequencies --    180.1801               200.9248               222.8684
 Red. masses --      1.0927                 4.3075                 1.0376
 Frc consts  --      0.0209                 0.1025                 0.0304
 IR Inten    --      0.3782                 3.4255                 0.4088

                     13                     14                     15
                      A                      A                      A
 Frequencies --    237.7491               244.6238               282.8523
 Red. masses --      2.8371                 1.2334                 2.9836
 Frc consts  --      0.0945                 0.0435                 0.1406
 IR Inten    --      3.0302                 1.1978                 2.0868

                     16                     17                     18
                      A                      A                      A
 Frequencies --    308.5051               321.2319               379.7617
 Red. masses --      3.7588                 4.8028                 3.8725
 Frc consts  --      0.2108                 0.2920                 0.3290
 IR Inten    --      8.0537                 7.7312                 2.5113

                     19                     20                     21
                      A                      A                      A
 Frequencies --    396.1033               406.0420               421.6299
 Red. masses --      4.3149                 3.8628                 4.3848
 Frc consts  --      0.3989                 0.3752                 0.4593
 IR Inten    --      1.1821                 6.6190                 6.0214

                     22                     23                     24
                      A                      A                      A
 Frequencies --    429.4442               457.5917               481.5712
 Red. masses --      4.6371                 5.0355                 3.4139
 Frc consts  --      0.5039                 0.6212                 0.4665
 IR Inten    --      3.9089                 9.4361                 8.2353

                     25                     26                     27
                      A                      A                      A
 Frequencies --    552.2832               571.7744               581.8673
 Red. masses --      4.6965                 2.6533                 2.7880
 Frc consts  --      0.8440                 0.5111                 0.5562
 IR Inten    --      9.3259                 1.4751                11.1227

                     28                     29                     30
                      A                      A                      A
 Frequencies --    590.6796               618.0408               624.1479
 Red. masses --      3.9086                 2.9022                 3.8344
 Frc consts  --      0.8035                 0.6532                 0.8801
 IR Inten    --     22.4339                11.4453                13.9853

                     31                     32                     33
                      A                      A                      A
 Frequencies --    645.4555               658.6770               720.5706
 Red. masses --      3.6721                 3.4958                 4.7840
 Frc consts  --      0.9014                 0.8936                 1.4635
 IR Inten    --     25.3853                13.3899                 1.2747

                     34                     35                     36
                      A                      A                      A
 Frequencies --    767.5261               803.5844               817.3768
 Red. masses --      4.2824                 2.6697                 2.6141
 Frc consts  --      1.4863                 1.0157                 1.0290
 IR Inten    --      8.1617                 0.8167                15.6754

                     37                     38                     39
                      A                      A                      A
 Frequencies --    853.4682               926.8267               941.9610
 Red. masses --      2.5669                 2.7168                 1.6455
 Frc consts  --      1.1016                 1.3750                 0.8602
 IR Inten    --     13.9028                 3.5199                 2.0755

                     40                     41                     42
                      A                      A                      A
 Frequencies --    958.0854               969.8491              1006.0349
 Red. masses --      2.7160                 2.5783                 2.2495
 Frc consts  --      1.4689                 1.4289                 1.3414
 IR Inten    --     16.0838                 7.8280               110.6352

                     43                     44                     45
                      A                      A                      A
 Frequencies --   1023.3482              1028.2142              1070.8343
 Red. masses --      1.9575                 2.1677                 1.7481
 Frc consts  --      1.2078                 1.3503                 1.1810
 IR Inten    --      5.0735                50.7644                 5.7789

                     46                     47                     48
                      A                      A                      A
 Frequencies --   1074.1815              1074.7554              1079.1000
 Red. masses --      1.7540                 1.7731                 2.0562
 Frc consts  --      1.1925                 1.2067                 1.4107
 IR Inten    --      5.2875                 6.9923                 4.1269

                     49                     50                     51
                      A                      A                      A
 Frequencies --   1098.5915              1128.5675              1158.6291
 Red. masses --      2.2402                 1.7508                 2.9308
 Frc consts  --      1.5930                 1.3138                 2.3181
 IR Inten    --      7.6524                 6.5987                15.9732

                     52                     53                     54
                      A                      A                      A
 Frequencies --   1208.2368              1227.3918              1272.1278
 Red. masses --      3.6048                 1.3588                 1.9812
 Frc consts  --      3.1005                 1.2061                 1.8890
 IR Inten    --      8.8475               135.1735               283.7083

                     55                     56                     57
                      A                      A                      A
 Frequencies --   1286.3739              1290.9704              1300.7004
 Red. masses --      1.5397                 4.1182                 2.6599
 Frc consts  --      1.5011                 4.0438                 2.6513
 IR Inten    --     45.6907               402.1657                60.3356

                     58                     59                     60
                      A                      A                      A
 Frequencies --   1321.3840              1358.1013              1396.1289
 Red. masses --      4.6334                 1.4711                 1.5131
 Frc consts  --      4.7666                 1.5987                 1.7377
 IR Inten    --    117.1019                77.4279                 7.4362

                     61                     62                     63
                      A                      A                      A
 Frequencies --   1409.5758              1418.3358              1420.6095
 Red. masses --      1.4609                 1.3337                 1.4145
 Frc consts  --      1.7102                 1.5807                 1.6819
 IR Inten    --     54.2439                48.9763                 8.7147

                     64                     65                     66
                      A                      A                      A
 Frequencies --   1428.3686              1429.4883              1447.4364
 Red. masses --      1.2963                 1.3176                 1.8964
 Frc consts  --      1.5583                 1.5863                 2.3409
 IR Inten    --     51.4354                34.0875               128.7910

                     67                     68                     69
                      A                      A                      A
 Frequencies --   1476.3172              1476.4770              1492.5345
 Red. masses --      1.0616                 1.0614                 1.0850
 Frc consts  --      1.3632                 1.3633                 1.4241
 IR Inten    --     29.4325                19.9632                 5.3884

                     70                     71                     72
                      A                      A                      A
 Frequencies --   1497.6679              1500.0916              1501.5887
 Red. masses --      1.0549                 1.0469                 1.0474
 Frc consts  --      1.3941                 1.3881                 1.3914
 IR Inten    --      5.9876                 7.9545                 7.8710

                     73                     74                     75
                      A                      A                      A
 Frequencies --   1516.2121              1521.9910              1523.0405
 Red. masses --      1.0497                 1.0852                 1.0910
 Frc consts  --      1.4218                 1.4811                 1.4911
 IR Inten    --     17.4262                15.2772                14.0807

                     76                     77                     78
                      A                      A                      A
 Frequencies --   1731.7767              1751.1335              1779.5777
 Red. masses --      7.9283                11.7846                10.6784
 Frc consts  --     14.0093                21.2914                19.9247
 IR Inten    --     18.0031               256.6099               155.0802

                     79                     80                     81
                      A                      A                      A
 Frequencies --   1794.9062              1808.1290              3022.5922
 Red. masses --     10.2825                10.8443                 1.0627
 Frc consts  --     19.5180                20.8886                 5.7204
 IR Inten    --    233.7043               273.7780                18.3415

                     82                     83                     84
                      A                      A                      A
 Frequencies --   3045.0323              3068.4540              3079.7562
 Red. masses --      1.0976                 1.0628                 1.0362
 Frc consts  --      5.9960                 5.8960                 5.7904
 IR Inten    --      9.0625                28.6926                 2.4662

                     85                     86                     87
                      A                      A                      A
 Frequencies --   3086.3503              3087.4012              3100.2235
 Red. masses --      1.0342                 1.0341                 1.0863
 Frc consts  --      5.8044                 5.8078                 6.1517
 IR Inten    --      2.0753                 2.7373                 4.4062

                     88                     89                     90
                      A                      A                      A
 Frequencies --   3112.3205              3150.4832              3158.0263
 Red. masses --      1.0871                 1.1000                 1.0995
 Frc consts  --      6.2040                 6.4327                 6.4607
 IR Inten    --     28.3421                 3.3426                 1.6211

                     91                     92                     93
                      A                      A                      A
 Frequencies --   3158.9473              3159.3732              3179.7928
 Red. masses --      1.0888                 1.0995                 1.1070
 Frc consts  --      6.4015                 6.4660                 6.5946
 IR Inten    --     12.4812                 2.1007                11.5311

                     94                     95                     96
                      A                      A                      A
 Frequencies --   3179.9601              3182.7623              3194.3976
 Red. masses --      1.1071                 1.1042                 1.0967
 Frc consts  --      6.5961                 6.5904                 6.5938
 IR Inten    --     15.9798                 8.0677                 2.6087

 - Thermochemistry -
 -------------------
 Temperature   298.150 Kelvin.  Pressure   1.00000 Atm.
 Atom     1 has atomic number  6 and mass  12.00000

 Molecular mass:   252.11101 amu.
 Principal axes and moments of inertia in atomic units:
                           1         2         3
     Eigenvalues --  2719.232425861.195886463.41633
           X            0.99994  -0.00974  -0.00455
           Y            0.00975   0.99995   0.00165
           Z            0.00454  -0.00169   0.99999
 This molecule is an asymmetric top.
 Rotational symmetry number  1.
 Warning -- assumption of classical behavior for rotation
           may cause significant error
 Rotational temperatures (Kelvin)      0.03185     0.01478     0.01340
 Rotational constants (GHZ):           0.66370     0.30791     0.27922
 Zero-point vibrational energy     727359.2 (Joules/Mol)
                                  173.84301 (Kcal/Mol)
 Warning -- explicit consideration of  29 degrees of freedom as
           vibrations may cause significant error
 Vibrational temperatures:     32.82    60.70    67.02    91.27   108.53
          (Kelvin)            119.30   153.45   188.35   238.81   259.24
                              289.09   320.66   342.07   351.96   406.96
                              443.87   462.18   546.39   569.90   584.20
                              606.63   617.87   658.37   692.87   794.61
                              822.66   837.18   849.86   889.22   898.01
                              928.67   947.69  1036.74  1104.30  1156.18
                             1176.02  1227.95  1333.50  1355.27  1378.47
                             1395.40  1447.46  1472.37  1479.37  1540.69
                             1545.51  1546.33  1552.58  1580.63  1623.76
                             1667.01  1738.38  1765.94  1830.31  1850.81
                             1857.42  1871.42  1901.18  1954.00  2008.72
                             2028.07  2040.67  2043.94  2055.10  2056.71
                             2082.54  2124.09  2124.32  2147.42  2154.81
                             2158.30  2160.45  2181.49  2189.81  2191.32
                             2491.64  2519.49  2560.42  2582.47  2601.49
                             4348.84  4381.12  4414.82  4431.08  4440.57
                             4442.08  4460.53  4477.94  4532.84  4543.70
                             4545.02  4545.63  4575.01  4575.25  4579.29
                             4596.03

 Zero-point correction=                           0.277036 (Hartree/Particle)
 Thermal correction to Energy=                    0.295091
 Thermal correction to Enthalpy=                  0.296036
 Thermal correction to Gibbs Free Energy=         0.229753
 Sum of electronic and zero-point Energies=           -877.131441
 Sum of electronic and thermal Energies=              -877.113387
 Sum of electronic and thermal Enthalpies=            -877.112442
 Sum of electronic and thermal Free Energies=         -877.178725

                     E (Thermal)             CV                S
                      KCal/Mol        Cal/Mol-Kelvin    Cal/Mol-Kelvin
 Total                  185.173             66.599            139.504
 Electronic               0.000              0.000              0.000
 Translational            0.889              2.981             42.474
 Rotational               0.889              2.981             32.999
 Vibrational            183.395             60.637             64.031
 Vibration     1          0.593              1.985              6.373
 Vibration     2          0.595              1.980              5.154
 Vibration     3          0.595              1.979              4.958
 Vibration     4          0.597              1.972              4.347
 Vibration     5          0.599              1.965              4.006
 Vibration     6          0.600              1.961              3.821
 Vibration     7          0.606              1.944              3.329
 Vibration     8          0.612              1.922              2.933
 Vibration     9          0.624              1.884              2.481
 Vibration    10          0.629              1.867              2.327
 Vibration    11          0.638              1.839              2.125
 Vibration    12          0.649              1.806              1.936
 Vibration    13          0.656              1.783              1.820
 Vibration    14          0.660              1.772              1.769
 Vibration    15          0.682              1.705              1.516
 Vibration    16          0.698              1.658              1.370
 Vibration    17          0.707              1.633              1.304
 Vibration    18          0.750              1.513              1.040
 Vibration    19          0.763              1.478              0.977
 Vibration    20          0.771              1.457              0.941
 Vibration    21          0.784              1.423              0.886
 Vibration    22          0.791              1.406              0.860
 Vibration    23          0.816              1.344              0.773
 Vibration    24          0.838              1.291              0.706
 Vibration    25          0.908              1.135              0.539
 Vibration    26          0.928              1.092              0.501
 Vibration    27          0.939              1.071              0.482
 Vibration    28          0.948              1.052              0.466
 Vibration    29          0.978              0.994              0.420

                           ! Non-Optimized Parameters !
 Normal termination of Gaussian 16 at Fri Dec 11 21:25:18 2020.

 ----------------------------------------------------------------------
 # B3LYP/6-311++G(d,p) empiricaldispersion=gd3bj scf=xqc pop=npa geom=c
 heck
 ----------------------------------------------------------------------

 ---------------------------------------
 CID_121002499_JID_8443_Energie_neutraal
 ---------------------------------------
 Structure from the checkpoint file:  "JID_8443.chk"
 Charge =  0 Multiplicity = 1

 SCF Done:  E(RB3LYP) =  -877.658570810     A.U. after   15 cycles
 Normal termination of Gaussian 16 at Fri Dec 11 21:32:09 2020.

 ----------------------------------------------------------------------
 # B3LYP/6-311++G(d,p) empiricaldispersion=gd3bj scf=xqc pop=npa geom=c
 heck
 ----------------------------------------------------------------------

 -------------------------------------
 CID_121002499_JID_8443_Energie_kation
 -------------------------------------
 Structure from the checkpoint file:  "JID_8443.chk"
 Charge =  1 Multiplicity = 2

 SCF Done:  E(UB3LYP) =  -877.323880483     A.U. after   33 cycles
 SCF Done:  E(UB3LYP) =  -877.323880483     a.u. after    2 cycles
 Normal termination of Gaussian 16 at Fri Dec 11 22:15:02 2020.
 Gaussian 16:  ES64L-G16RevA.03 25-Dec-2016

 ----------------------------------------------------------------------
 # B3LYP/6-311++G(d,p) empiricaldispersion=gd3bj scf=xqc pop=npa geom=c
 heck
 ----------------------------------------------------------------------

 ------------------------------------
 CID_121002499_JID_8443_Energie_anion
 ------------------------------------
 Structure from the checkpoint file:  "JID_8443.chk"
 Charge = -1 Multiplicity = 2

                         Standard orientation:
 ---------------------------------------------------------------------
 Center     Atomic      Atomic             Coordinates (Angstroms)
 Number     Number       Type             X           Y           Z
 ---------------------------------------------------------------------
      1          6           0       -2.597314   -2.432464    0.975795
      2          6           0       -2.898006   -1.178428    0.193573
      3          8           0       -4.031251   -0.910306   -0.162981
      4          7           0       -1.840382   -0.285184   -0.152135
      5          6           0       -2.222273    0.878411   -0.968875
      6          6           0       -2.266477    2.154981   -0.121935
      7          6           0       -0.909580    2.867363   -0.070102
      8          6           0        0.314146    2.002954   -0.095170
      9          6           0        0.458722    0.674869   -0.003128
     10          6           0       -0.538967   -0.412180    0.308336
     11          8           0       -0.141483   -1.364710    0.968307
     12          7           0        1.790716    0.132699   -0.133045
     13          6           0        2.680701    0.104854    0.962494
     14          8           0        3.812794   -0.327949    0.861435
     15          6           0        2.142967    0.646971    2.271166
     16          6           0        1.968309   -0.573241   -1.350433
     17          8           0        1.028301   -0.607421   -2.128537
     18          6           0        3.281396   -1.246918   -1.643908
     19          1           0       -1.848617   -3.046460    0.470773
     20          1           0       -3.540098   -2.973096    1.073645
     21          1           0       -2.186522   -2.199349    1.960789
     22          1           0       -1.510631    0.959993   -1.794779
     23          1           0       -3.205433    0.647478   -1.370268
     24          1           0       -2.610207    1.886914    0.883012
     25          1           0       -3.010806    2.847949   -0.528804
     26          1           0       -0.857004    3.538953    0.799045
     27          1           0       -0.817684    3.531369   -0.942227
     28          1           0        1.241586    2.552547   -0.251805
     29          1           0        1.951262    1.722374    2.213364
     30          1           0        1.207631    0.146766    2.535267
     31          1           0        2.897719    0.457084    3.034888
     32          1           0        4.111359   -0.538360   -1.603979
     33          1           0        3.499423   -2.015588   -0.898210
     34          1           0        3.197058   -1.691112   -2.637119
 ---------------------------------------------------------------------

 SCF Done:  E(UB3LYP) =  -877.670155570     A.U. after   30 cycles

 The electronic state is 2-A.
 Alpha  occ. eigenvalues --  -18.99029 -18.98439 -18.95629 -18.92193 -14.23460
 Alpha  occ. eigenvalues --  -14.21094 -10.17347 -10.16814 -10.13455 -10.09982
 Alpha  occ. eigenvalues --  -10.07097 -10.06454 -10.05850 -10.05505 -10.05391
 Alpha  occ. eigenvalues --  -10.05352 -10.03899 -10.01929  -0.94759  -0.92856
 Alpha  occ. eigenvalues --   -0.91474  -0.88222  -0.81045  -0.78764  -0.68236
 Alpha  occ. eigenvalues --   -0.64813  -0.63042  -0.61769  -0.60811  -0.55891
 Alpha  occ. eigenvalues --   -0.52034  -0.50803  -0.48765  -0.44654  -0.39832
 Alpha  occ. eigenvalues --   -0.38516  -0.38141  -0.36596  -0.35382  -0.34694
 Alpha  occ. eigenvalues --   -0.33966  -0.33153  -0.32226  -0.31975  -0.31645
 Alpha  occ. eigenvalues --   -0.31246  -0.30778  -0.29047  -0.28807  -0.28281
 Alpha  occ. eigenvalues --   -0.28103  -0.27724  -0.26296  -0.25473  -0.24856
 Alpha  occ. eigenvalues --   -0.24655  -0.23366  -0.22949  -0.22271  -0.21324
 Alpha  occ. eigenvalues --   -0.16583  -0.15748  -0.14705  -0.13368  -0.12504
 Alpha  occ. eigenvalues --   -0.12172  -0.10586   0.04840
 Alpha virt. eigenvalues --    0.07973   0.08770   0.08869   0.09495   0.09802
 Alpha virt. eigenvalues --    0.10648   0.10863   0.11823   0.12040   0.12538
 Alpha virt. eigenvalues --    0.12787   0.13079   0.13507   0.13737   0.14417

  Beta  occ. eigenvalues --  -18.99025 -18.98421 -18.95431 -18.91740 -14.23460
  Beta  occ. eigenvalues --  -14.21186 -10.17334 -10.16808 -10.13270 -10.09582
  Beta  occ. eigenvalues --  -10.07096 -10.06455 -10.05845 -10.05541 -10.05353
  Beta  occ. eigenvalues --  -10.05316 -10.03909 -10.01416  -0.94729  -0.92824
  Beta  occ. eigenvalues --   -0.91108  -0.87489  -0.80962  -0.78584  -0.67948
  Beta  occ. eigenvalues --   -0.64760  -0.62862  -0.61559  -0.60571  -0.55778
  Beta  occ. eigenvalues --   -0.51436  -0.50636  -0.48563  -0.44298  -0.39558
  Beta  occ. eigenvalues --   -0.38377  -0.38060  -0.36527  -0.35221  -0.34552
  Beta  occ. eigenvalues --   -0.33671  -0.32800  -0.32192  -0.31834  -0.31514
  Beta  occ. eigenvalues --   -0.31002  -0.30627  -0.28963  -0.28752  -0.28064
  Beta  occ. eigenvalues --   -0.27871  -0.27525  -0.26128  -0.25285  -0.24534
  Beta  occ. eigenvalues --   -0.24273  -0.22922  -0.21811  -0.21646  -0.21114
  Beta  occ. eigenvalues --   -0.16362  -0.15625  -0.14644  -0.13094  -0.11741
  Beta  occ. eigenvalues --   -0.10669  -0.09772
  Beta virt. eigenvalues --    0.07912   0.08754   0.08855   0.09392   0.09770
  Beta virt. eigenvalues --    0.10624   0.10778   0.11691   0.11843   0.12035
  Beta virt. eigenvalues --    0.12634   0.13002   0.13443   0.13623   0.13824

 Mulliken charges and spin densities:
               1          2
     1  C   -0.495049  -0.002400
     2  C    0.214360   0.098312
     3  O   -0.364612   0.067904
     4  N    0.192623  -0.055950
     5  C   -0.358163   0.025844
     6  C   -0.173761   0.002737
     7  C   -0.671550  -0.073830
     8  C   -0.294716   0.441708
     9  C   -0.430033   0.004992
    10  C   -0.428825   0.239018
    11  O   -0.336656   0.167986
    12  N    0.519297  -0.004608
    13  C    0.235722  -0.000492
    14  O   -0.324553  -0.000009
    15  C   -0.432100  -0.014527
    16  C    0.432406   0.019730
    17  O   -0.169902  -0.005269
    18  C   -0.647031  -0.008654
    19  H    0.176675   0.002543
    20  H    0.144601  -0.000488
    21  H    0.158000   0.002871
    22  H    0.179354   0.006148
    23  H    0.237471  -0.002130
    24  H    0.159255   0.002603
    25  H    0.100978   0.015274
    26  H    0.088265   0.059203
    27  H    0.139866  -0.002315
    28  H    0.135002  -0.019754
    29  H    0.147184   0.017887
    30  H    0.198860   0.005604
    31  H    0.161732   0.006644
    32  H    0.171335   0.002090
    33  H    0.186606   0.000106
    34  H    0.147359   0.001220
 Sum of Mulliken charges =  -1.00000   1.00000

 Dipole moment (field-independent basis, Debye):
    X=              2.2293    Y=              2.6314    Z=              0.4082  Tot=              3.4728
 Quadrupole moment (field-independent basis, Debye-Ang):
   XX=           -158.7569   YY=           -120.6189   ZZ=           -119.6319
   XY=             -3.8176   XZ=             -4.8188   YZ=              1.2986

 Summary of Natural Population Analysis:

                                       Natural Population
                Natural  -----------------------------------------------
    Atom  No    Charge         Core      Valence    Rydberg      Total
 -----------------------------------------------------------------------
      C    1   -0.32934      0.99963     2.32538    0.00434     3.32934
      C    2    0.38069      0.99971     1.59913    0.02047     2.61931
      O    3   -0.30945      0.99987     3.30328    0.00629     4.30945
      N    4   -0.27650      0.99961     2.76580    0.01108     3.77650
      C    5   -0.09316      0.99962     2.08432    0.00922     3.09316
      C    6   -0.19187      0.99963     2.18580    0.00644     3.19187
      C    7   -0.20487      0.99962     2.19843    0.00682     3.20487
      C    8    0.01842      0.99947     1.97423    0.00788     2.98158
      C    9    0.02915      0.99941     1.95524    0.01620     2.97085
      C   10    0.38699      0.99959     1.59141    0.02201     2.61301
      O   11   -0.28959      0.99988     3.28442    0.00529     4.28959
      N   12   -0.26650      0.99958     2.75410    0.01282     3.76650
      C   13    0.36733      0.99970     1.61151    0.02147     2.63267
      O   14   -0.31974      0.99987     3.31332    0.00655     4.31974
      C   15   -0.33473      0.99962     2.33109    0.00402     3.33473
      C   16    0.36119      0.99969     1.61702    0.02210     2.63881
      O   17   -0.29659      0.99987     3.29072    0.00600     4.29659
      C   18   -0.32912      0.99962     2.32541    0.00408     3.32912
      H   19    0.11736      0.00000     0.38170    0.00093     0.38264
      H   20    0.09626      0.00000     0.40244    0.00130     0.40374
      H   21    0.11634      0.00000     0.38274    0.00092     0.38366
      H   22    0.10474      0.00000     0.39439    0.00087     0.39526
      H   23    0.11378      0.00000     0.38497    0.00125     0.38622
      H   24    0.09884      0.00000     0.40018    0.00097     0.40116
      H   25    0.09213      0.00000     0.40681    0.00106     0.40787
      H   26    0.10155      0.00000     0.39682    0.00163     0.39845
      H   27    0.09728      0.00000     0.40148    0.00124     0.40272
      H   28    0.08351      0.00000     0.41501    0.00149     0.41649
      H   29    0.11243      0.00000     0.38678    0.00079     0.38757
      H   30    0.12644      0.00000     0.37255    0.00102     0.37356
      H   31    0.10243      0.00000     0.39658    0.00099     0.39757
      H   32    0.11368      0.00000     0.38548    0.00084     0.38632
      H   33    0.11802      0.00000     0.38117    0.00081     0.38198
      H   34    0.10291      0.00000     0.39606    0.00103     0.39709
 =======================================================================
   * Total *   -0.00000     17.99399    48.79577    0.21024    67.00000

 Normal termination of Gaussian 16 at Fri Dec 11 22:33:59 2020.
