 Gaussian 16, Revision A.03,

 -----------------------------------------------------------
 # opt freq B3LYP/6-31G(d) empiricaldispersion=gd3bj scf=xqc
 -----------------------------------------------------------

 ------------------------------
 CID_81952476_JID_3103_neutraal
 ------------------------------
 Symbolic Z-matrix:
 Charge =  0 Multiplicity = 1

 SCF Done:  E(RB3LYP) =  -621.119732586     A.U. after   15 cycles
 SCF Done:  E(RB3LYP) =  -621.125587188     A.U. after   12 cycles
 SCF Done:  E(RB3LYP) =  -621.126932498     A.U. after   12 cycles
 SCF Done:  E(RB3LYP) =  -621.127772893     A.U. after   12 cycles
 SCF Done:  E(RB3LYP) =  -621.128027918     A.U. after   12 cycles
 SCF Done:  E(RB3LYP) =  -621.128327169     A.U. after   11 cycles
 SCF Done:  E(RB3LYP) =  -621.128653265     A.U. after   11 cycles
 SCF Done:  E(RB3LYP) =  -621.128876888     A.U. after   12 cycles
 SCF Done:  E(RB3LYP) =  -621.128956608     A.U. after   11 cycles
 SCF Done:  E(RB3LYP) =  -621.129127031     A.U. after   11 cycles
 SCF Done:  E(RB3LYP) =  -621.129436299     A.U. after   10 cycles
 SCF Done:  E(RB3LYP) =  -621.129437574     A.U. after    8 cycles
 SCF Done:  E(RB3LYP) =  -621.129437772     A.U. after    8 cycles
 SCF Done:  E(RB3LYP) =  -621.129437900     A.U. after    8 cycles
 SCF Done:  E(RB3LYP) =  -621.129437972     A.U. after    8 cycles
 Optimization completed.
    -- Stationary point found.
 Normal termination of Gaussian 16 at Wed Dec  9 22:27:06 2020.

 --------------------------------------------------------------------
 #N Geom=AllCheck Guess=TCheck SCRF=Check GenChk RB3LYP/6-31G(d) Freq
 --------------------------------------------------------------------

 Structure from the checkpoint file:  "JID_3103.chk"
 ------------------------------
 CID_81952476_JID_3103_neutraal
 ------------------------------
 Charge =  0 Multiplicity = 1

 SCF Done:  E(RB3LYP) =  -621.129437972     A.U. after    1 cycles

  Exact polarizability: 117.723  -6.535 103.468   5.715   1.331  76.932
 Approx polarizability: 160.503 -13.332 181.975   6.527  -0.205 125.504

                      1                      2                      3
                      A                      A                      A
 Frequencies --     22.5952                46.8854                61.0480
 Red. masses --      4.2529                 5.4351                 5.6891
 Frc consts  --      0.0013                 0.0070                 0.0125
 IR Inten    --      2.9566                 5.0793                 6.8365

                      4                      5                      6
                      A                      A                      A
 Frequencies --    141.7895               171.5923               212.3941
 Red. masses --      1.0394                 5.3632                 3.4675
 Frc consts  --      0.0123                 0.0930                 0.0922
 IR Inten    --      0.0739                 3.5239                 4.1332

                      7                      8                      9
                      A                      A                      A
 Frequencies --    222.8239               239.3101               293.9188
 Red. masses --      1.1547                 3.7987                 2.4572
 Frc consts  --      0.0338                 0.1282                 0.1251
 IR Inten    --     37.8904                 1.7423                 1.8596

                     10                     11                     12
                      A                      A                      A
 Frequencies --    312.6316               386.4854               402.8699
 Red. masses --      4.4710                 5.1851                 3.3987
 Frc consts  --      0.2575                 0.4563                 0.3250
 IR Inten    --      1.7358                 1.4157                 8.5977

                     13                     14                     15
                      A                      A                      A
 Frequencies --    434.7994               629.4397               645.6564
 Red. masses --      2.8455                 4.7530                 3.4145
 Frc consts  --      0.3170                 1.1095                 0.8386
 IR Inten    --      7.1853                32.9540                35.8441

                     16                     17                     18
                      A                      A                      A
 Frequencies --    659.9592               666.0372               689.8445
 Red. masses --      4.8193                 3.7635                 3.0443
 Frc consts  --      1.2367                 0.9836                 0.8536
 IR Inten    --      5.7333                15.5368                42.1909

                     19                     20                     21
                      A                      A                      A
 Frequencies --    714.8496               716.6513               773.8091
 Red. masses --      3.0466                 1.8633                 2.7713
 Frc consts  --      0.9173                 0.5638                 0.9777
 IR Inten    --     26.7830                18.0758                73.1909

                     22                     23                     24
                      A                      A                      A
 Frequencies --    783.4548               810.1631               823.4304
 Red. masses --      3.0988                 1.5180                 3.7569
 Frc consts  --      1.1207                 0.5870                 1.5008
 IR Inten    --    148.0126                19.0330                36.0364

                     25                     26                     27
                      A                      A                      A
 Frequencies --    945.1083               960.9766               985.7019
 Red. masses --      2.2901                 7.1732                 1.8536
 Frc consts  --      1.2052                 3.9029                 1.0611
 IR Inten    --     12.7626                 5.0757                 2.4838

                     28                     29                     30
                      A                      A                      A
 Frequencies --   1054.4083              1057.3365              1083.8706
 Red. masses --      3.6966                 4.0179                 1.4758
 Frc consts  --      2.4214                 2.6465                 1.0215
 IR Inten    --     13.4032                23.4137                 3.5139

                     31                     32                     33
                      A                      A                      A
 Frequencies --   1119.3583              1127.4720              1143.6380
 Red. masses --      3.5491                 1.8703                 3.4279
 Frc consts  --      2.6200                 1.4008                 2.6416
 IR Inten    --      6.1094                 9.2525                31.5182

                     34                     35                     36
                      A                      A                      A
 Frequencies --   1174.7389              1208.6863              1259.0970
 Red. masses --      2.5841                 1.7224                 3.0374
 Frc consts  --      2.1011                 1.4825                 2.8370
 IR Inten    --     21.9548                15.6788                12.1339

                     37                     38                     39
                      A                      A                      A
 Frequencies --   1284.8720              1303.9909              1361.8785
 Red. masses --      7.9577                 1.7646                 2.1599
 Frc consts  --      7.7403                 1.7678                 2.3603
 IR Inten    --     46.7633                 1.7764                 0.0302

                     40                     41                     42
                      A                      A                      A
 Frequencies --   1383.5527              1415.1705              1418.8223
 Red. masses --      1.7506                 3.4578                 2.7307
 Frc consts  --      1.9744                 4.0801                 3.2387
 IR Inten    --     11.4886                59.8389                29.9180

                     43                     44                     45
                      A                      A                      A
 Frequencies --   1453.4511              1492.9517              1510.6880
 Red. masses --      1.3408                 1.2602                 1.0750
 Frc consts  --      1.6688                 1.6549                 1.4454
 IR Inten    --      2.2857                13.0959                 5.3211

                     46                     47                     48
                      A                      A                      A
 Frequencies --   1514.5530              1519.5233              1566.7958
 Red. masses --      1.3441                 1.8292                 5.4891
 Frc consts  --      1.8166                 2.4884                 7.9392
 IR Inten    --     10.1128                12.3784                37.3493

                     49                     50                     51
                      A                      A                      A
 Frequencies --   1630.1801              1680.7983              1683.0878
 Red. masses --      3.7024                 8.1448                 1.3086
 Frc consts  --      5.7971                13.5569                 2.1840
 IR Inten    --     90.2013                13.4163               106.3453

                     52                     53                     54
                      A                      A                      A
 Frequencies --   3049.9927              3100.4585              3106.4326
 Red. masses --      1.0386                 1.0590                 1.1002
 Frc consts  --      5.6922                 5.9977                 6.2554
 IR Inten    --     23.1482                14.4024                 9.3244

                     55                     56                     57
                      A                      A                      A
 Frequencies --   3150.5237              3152.6365              3298.7282
 Red. masses --      1.1024                 1.1057                 1.0989
 Frc consts  --      6.4472                 6.4748                 7.0454
 IR Inten    --      1.4437                 0.8150                 0.4822

                     58                     59                     60
                      A                      A                      A
 Frequencies --   3305.2574              3529.2554              3626.1250
 Red. masses --      1.0989                 1.0482                 1.0965
 Frc consts  --      7.0731                 7.6922                 8.4946
 IR Inten    --      2.0497                 9.5704                13.6545

 - Thermochemistry -
 -------------------
 Temperature   298.150 Kelvin.  Pressure   1.00000 Atm.
 Atom     1 has atomic number  6 and mass  12.00000

 Molecular mass:   179.08071 amu.
 Principal axes and moments of inertia in atomic units:
                           1         2         3
     Eigenvalues --  1076.974633812.021724088.68130
           X            0.99983   0.01542   0.00972
           Y           -0.01534   0.99985  -0.00840
           Z           -0.00985   0.00825   0.99992
 This molecule is an asymmetric top.
 Rotational symmetry number  1.
 Warning -- assumption of classical behavior for rotation
           may cause significant error
 Rotational temperatures (Kelvin)      0.08042     0.02272     0.02118
 Rotational constants (GHZ):           1.67575     0.47343     0.44140
 Zero-point vibrational energy     451725.2 (Joules/Mol)
                                  107.96492 (Kcal/Mol)
 Warning -- explicit consideration of  13 degrees of freedom as
           vibrations may cause significant error
 Vibrational temperatures:     32.51    67.46    87.83   204.00   246.88
          (Kelvin)            305.59   320.59   344.31   422.88   449.81
                              556.07   579.64   625.58   905.62   928.96
                              949.53   958.28   992.53  1028.51  1031.10
                             1113.34  1127.22  1165.64  1184.73  1359.80
                             1382.63  1418.21  1517.06  1521.27  1559.45
                             1610.51  1622.18  1645.44  1690.19  1739.03
                             1811.56  1848.64  1876.15  1959.44  1990.62
                             2036.11  2041.37  2091.19  2148.02  2173.54
                             2179.10  2186.26  2254.27  2345.47  2418.29
                             2421.59  4388.26  4460.87  4469.46  4532.90
                             4535.94  4746.13  4755.53  5077.81  5217.19

 Zero-point correction=                           0.172053 (Hartree/Particle)
 Thermal correction to Energy=                    0.183606
 Thermal correction to Enthalpy=                  0.184551
 Thermal correction to Gibbs Free Energy=         0.132646
 Sum of electronic and zero-point Energies=           -620.957385
 Sum of electronic and thermal Energies=              -620.945832
 Sum of electronic and thermal Enthalpies=            -620.944887
 Sum of electronic and thermal Free Energies=         -620.996792

                     E (Thermal)             CV                S
                      KCal/Mol        Cal/Mol-Kelvin    Cal/Mol-Kelvin
 Total                  115.215             42.410            109.243
 Electronic               0.000              0.000              0.000
 Translational            0.889              2.981             41.455
 Rotational               0.889              2.981             31.196
 Vibrational            113.437             36.448             36.592
 Vibration     1          0.593              1.985              6.392
 Vibration     2          0.595              1.979              4.945
 Vibration     3          0.597              1.973              4.423
 Vibration     4          0.615              1.911              2.780
 Vibration     5          0.626              1.877              2.418
 Vibration     6          0.643              1.822              2.023
 Vibration     7          0.649              1.806              1.936
 Vibration     8          0.657              1.780              1.808
 Vibration     9          0.689              1.685              1.451
 Vibration    10          0.701              1.650              1.348
 Vibration    11          0.755              1.499              1.014
 Vibration    12          0.768              1.464              0.952
 Vibration    13          0.795              1.394              0.843

 Optimization completed.
    -- Stationary point found.
 Normal termination of Gaussian 16 at Wed Dec  9 22:31:46 2020.

 ----------------------------------------------------------------------
 # B3LYP/6-311++G(d,p) empiricaldispersion=gd3bj scf=xqc pop=npa geom=c
 heck
 ----------------------------------------------------------------------

 --------------------------------------
 CID_81952476_JID_3103_Energie_neutraal
 --------------------------------------
 Structure from the checkpoint file:  "JID_3103.chk"
 Charge =  0 Multiplicity = 1

 SCF Done:  E(RB3LYP) =  -621.304148253     A.U. after   15 cycles
 Normal termination of Gaussian 16 at Wed Dec  9 22:33:38 2020.

 ----------------------------------------------------------------------
 # B3LYP/6-311++G(d,p) empiricaldispersion=gd3bj scf=xqc pop=npa geom=c
 heck
 ----------------------------------------------------------------------

 ------------------------------------
 CID_81952476_JID_3103_Energie_kation
 ------------------------------------
 Structure from the checkpoint file:  "JID_3103.chk"
 Charge =  1 Multiplicity = 2

 SCF Done:  E(UB3LYP) =  -621.005203381     A.U. after   24 cycles
 Normal termination of Gaussian 16 at Wed Dec  9 22:37:49 2020.
 Gaussian 16:  ES64L-G16RevA.03 25-Dec-2016

 ----------------------------------------------------------------------
 # B3LYP/6-311++G(d,p) empiricaldispersion=gd3bj scf=xqc pop=npa geom=c
 heck
 ----------------------------------------------------------------------

 -----------------------------------
 CID_81952476_JID_3103_Energie_anion
 -----------------------------------
 Structure from the checkpoint file:  "JID_3103.chk"
 Charge = -1 Multiplicity = 2

                         Standard orientation:
 ---------------------------------------------------------------------
 Center     Atomic      Atomic             Coordinates (Angstroms)
 Number     Number       Type             X           Y           Z
 ---------------------------------------------------------------------
      1          6           0        1.608513    2.106716   -0.454110
      2          6           0        1.955683    0.679687   -0.239821
      3          6           0        1.463134   -0.316791    0.548613
      4          7           0        2.177217   -1.493415    0.315108
      5          6           0        3.054338   -1.161308   -0.576160
      6          8           0        2.990002    0.138001   -0.970182
      7          6           0        0.318309   -0.271202    1.513347
      8          7           0       -0.970199   -0.106403    0.847729
      9          6           0       -1.676680   -1.017244    0.121600
     10          6           0       -2.738736   -0.284217   -0.378468
     11          7           0       -2.619407    1.003210    0.052905
     12          7           0       -1.543017    1.105835    0.799020
     13          7           0       -3.838065   -0.693351   -1.132781
     14          1           0        2.400071    2.773859   -0.091337
     15          1           0        1.459914    2.315228   -1.519582
     16          1           0        0.678064    2.338806    0.070567
     17          1           0        3.815941   -1.773300   -1.036201
     18          1           0        0.302597   -1.197118    2.093106
     19          1           0        0.396625    0.572347    2.202808
     20          1           0       -1.379052   -2.049833    0.035446
     21          1           0       -4.347124    0.111300   -1.484126
     22          1           0       -3.600121   -1.320297   -1.893106
 ---------------------------------------------------------------------

 SCF Done:  E(UB3LYP) =  -621.290195548     A.U. after   33 cycles
 SCF Done:  E(UB3LYP) =  -621.290195548     a.u. after    1 cycles

 The electronic state is 2-A.
 Alpha  occ. eigenvalues --  -19.11267 -14.30807 -14.27037 -14.22966 -14.22745
 Alpha  occ. eigenvalues --  -14.21689 -10.16802 -10.14977 -10.14305 -10.13300
 Alpha  occ. eigenvalues --  -10.11717 -10.10919 -10.08904  -1.04649  -1.00272
 Alpha  occ. eigenvalues --   -0.84446  -0.83184  -0.80035  -0.71762  -0.69057
 Alpha  occ. eigenvalues --   -0.65907  -0.60866  -0.53860  -0.52661  -0.51222
 Alpha  occ. eigenvalues --   -0.49007  -0.44986  -0.42953  -0.40690  -0.39405
 Alpha  occ. eigenvalues --   -0.39068  -0.37401  -0.35747  -0.34352  -0.33876
 Alpha  occ. eigenvalues --   -0.32629  -0.32328  -0.31902  -0.29574  -0.24852
 Alpha  occ. eigenvalues --   -0.23634  -0.23234  -0.21132  -0.19268  -0.18124
 Alpha  occ. eigenvalues --   -0.15385  -0.12166   0.04382
 Alpha virt. eigenvalues --    0.06130   0.06813   0.07028   0.07497   0.08516
 Alpha virt. eigenvalues --    0.09027   0.09918   0.10446   0.11418   0.12210
 Alpha virt. eigenvalues --    0.12435   0.13034   0.14197   0.14474   0.15020

  Beta  occ. eigenvalues --  -19.11258 -14.30805 -14.27034 -14.22959 -14.22742
  Beta  occ. eigenvalues --  -14.21626 -10.16778 -10.14974 -10.14296 -10.13298
  Beta  occ. eigenvalues --  -10.11715 -10.10897 -10.08875  -1.04635  -1.00266
  Beta  occ. eigenvalues --   -0.84429  -0.83152  -0.79980  -0.71740  -0.69018
  Beta  occ. eigenvalues --   -0.65881  -0.60820  -0.53840  -0.52618  -0.51194
  Beta  occ. eigenvalues --   -0.48974  -0.44938  -0.42908  -0.40625  -0.39357
  Beta  occ. eigenvalues --   -0.39038  -0.37352  -0.35708  -0.34323  -0.33840
  Beta  occ. eigenvalues --   -0.32598  -0.32298  -0.31878  -0.29547  -0.24826
  Beta  occ. eigenvalues --   -0.23620  -0.23200  -0.21114  -0.19256  -0.18106
  Beta  occ. eigenvalues --   -0.15363  -0.12127
  Beta virt. eigenvalues --    0.06652   0.07130   0.07561   0.07718   0.08023
  Beta virt. eigenvalues --    0.08763   0.09638   0.10425   0.10890   0.11679
  Beta virt. eigenvalues --    0.12450   0.12790   0.13064   0.14302   0.14474

 Mulliken charges and spin densities:
               1          2
     1  C    1.310128  -2.075516
     2  C    0.389552  -0.178565
     3  C   -0.329425   0.860417
     4  N   -0.114604   0.070797
     5  C    0.028169   0.171613
     6  O   -0.059202   0.034798
     7  C   -0.056940  -1.214365
     8  N    0.282143   0.016431
     9  C   -0.202934  -0.157459
    10  C    0.976495  -0.976718
    11  N   -0.264518   0.078529
    12  N   -0.072851  -0.016871
    13  N   -0.346641   0.007609
    14  H   -0.267465   0.430570
    15  H   -0.166260   0.342608
    16  H    0.111772   0.059365
    17  H   -1.371214   1.590132
    18  H    0.226080  -0.016638
    19  H   -0.095243   0.305341
    20  H   -0.496226   0.673171
    21  H   -0.040053   0.296887
    22  H   -0.440762   0.697864
 Sum of Mulliken charges =  -1.00000   1.00000

 Dipole moment (field-independent basis, Debye):
    X=              0.8426    Y=              2.2025    Z=              4.7032  Tot=              5.2613
 Quadrupole moment (field-independent basis, Debye-Ang):
   XX=           -157.7800   YY=           -118.6251   ZZ=           -108.1940
   XY=              2.4296   XZ=             -3.3013   YZ=             -9.3989

 Summary of Natural Population Analysis:

                                       Natural Population
                Natural  -----------------------------------------------
    Atom  No    Charge         Core      Valence    Rydberg      Total
 -----------------------------------------------------------------------
      C    1   -0.31107      0.99963     2.30631    0.00514     3.31107
      C    2    0.15236      0.99940     1.83358    0.01467     2.84764
      C    3    0.02063      0.99943     1.96497    0.01496     2.97937
      N    4   -0.24996      0.99971     2.73957    0.01068     3.74996
      C    5    0.18672      0.99963     1.79476    0.01889     2.81328
      O    6   -0.23371      0.99986     3.22552    0.00833     4.23371
      C    7   -0.09699      0.99956     2.08627    0.01116     3.09699
      N    8   -0.09640      0.99967     2.58332    0.01342     3.59640
      C    9   -0.04909      0.99949     2.03796    0.01163     3.04909
      C   10    0.14092      0.99956     1.84422    0.01530     2.85908
      N   11   -0.16203      0.99972     2.64753    0.01478     3.66203
      N   12   -0.05332      0.99977     2.53783    0.01573     3.55332
      N   13   -0.40424      0.99972     2.89344    0.01109     3.90424
      H   14    0.10834      0.00000     0.39009    0.00158     0.39166
      H   15    0.11253      0.00000     0.38601    0.00146     0.38747
      H   16    0.12068      0.00000     0.37768    0.00163     0.37932
      H   17    0.09416      0.00000     0.40161    0.00423     0.40584
      H   18    0.11113      0.00000     0.38748    0.00140     0.38887
      H   19    0.11515      0.00000     0.38326    0.00158     0.38485
      H   20    0.11371      0.00000     0.38506    0.00122     0.38629
      H   21    0.18834      0.00000     0.30907    0.00259     0.31166
      H   22    0.19213      0.00000     0.29614    0.01173     0.30787
 =======================================================================
   * Total *    0.00000     12.99515    33.81167    0.19318    47.00000

 Normal termination of Gaussian 16 at Wed Dec  9 22:43:36 2020.
