 Gaussian 16, Revision A.03,

 -----------------------------------------------------------
 # opt freq B3LYP/6-31G(d) empiricaldispersion=gd3bj scf=xqc
 -----------------------------------------------------------

 -------------------------------
 CID_143282563_JID_7562_neutraal
 -------------------------------
 Symbolic Z-matrix:
 Charge =  0 Multiplicity = 1

 SCF Done:  E(RB3LYP) =  -764.985690855     A.U. after   15 cycles
 SCF Done:  E(RB3LYP) =  -764.992442020     A.U. after   13 cycles
 SCF Done:  E(RB3LYP) =  -764.993720933     A.U. after   13 cycles
 SCF Done:  E(RB3LYP) =  -764.994502375     A.U. after   13 cycles
 SCF Done:  E(RB3LYP) =  -764.995131224     A.U. after   12 cycles
 SCF Done:  E(RB3LYP) =  -764.995818817     A.U. after   12 cycles
 SCF Done:  E(RB3LYP) =  -764.996112858     A.U. after   12 cycles
 SCF Done:  E(RB3LYP) =  -764.996298837     A.U. after   11 cycles
 SCF Done:  E(RB3LYP) =  -764.996319088     A.U. after   10 cycles
 SCF Done:  E(RB3LYP) =  -764.996325971     A.U. after   10 cycles
 SCF Done:  E(RB3LYP) =  -764.996327391     A.U. after   10 cycles
 SCF Done:  E(RB3LYP) =  -764.996328164     A.U. after    9 cycles
 SCF Done:  E(RB3LYP) =  -764.996328915     A.U. after    9 cycles
 SCF Done:  E(RB3LYP) =  -764.996328943     A.U. after    6 cycles
 Optimization completed.
    -- Stationary point found.
 Normal termination of Gaussian 16 at Mon Dec 14 13:18:26 2020.

 --------------------------------------------------------------------
 #N Geom=AllCheck Guess=TCheck SCRF=Check GenChk RB3LYP/6-31G(d) Freq
 --------------------------------------------------------------------

 Structure from the checkpoint file:  "JID_7562.chk"
 -------------------------------
 CID_143282563_JID_7562_neutraal
 -------------------------------
 Charge =  0 Multiplicity = 1

 SCF Done:  E(RB3LYP) =  -764.996328943     A.U. after    1 cycles

  Exact polarizability: 217.583   0.209 157.095  -3.163  14.233 100.481
 Approx polarizability: 317.780  -5.462 250.647 -11.085  42.339 166.924

                      1                      2                      3
                      A                      A                      A
 Frequencies --     39.8917                46.4295                70.2684
 Red. masses --      2.8604                 3.6271                 3.5823
 Frc consts  --      0.0027                 0.0046                 0.0104
 IR Inten    --      0.7157                 0.0964                 0.9017

                      4                      5                      6
                      A                      A                      A
 Frequencies --     86.2079                93.3864               131.1258
 Red. masses --      2.7001                 3.3051                 2.9212
 Frc consts  --      0.0118                 0.0170                 0.0296
 IR Inten    --      2.7619                 1.5769                 1.8872

                      7                      8                      9
                      A                      A                      A
 Frequencies --    164.5975               173.0420               181.1904
 Red. masses --      1.1386                 1.5916                 1.4428
 Frc consts  --      0.0182                 0.0281                 0.0279
 IR Inten    --      0.5628                 3.2958                 1.7908

                     10                     11                     12
                      A                      A                      A
 Frequencies --    213.8531               245.6688               254.4991
 Red. masses --      3.4622                 1.6476                 3.5449
 Frc consts  --      0.0933                 0.0586                 0.1353
 IR Inten    --      4.0120                 0.4966                 0.7062

                     13                     14                     15
                      A                      A                      A
 Frequencies --    282.2406               293.9697               318.1749
 Red. masses --      3.2063                 3.9996                 4.8684
 Frc consts  --      0.1505                 0.2036                 0.2904
 IR Inten    --      2.6226                 0.7585                 0.3972

                     16                     17                     18
                      A                      A                      A
 Frequencies --    360.4739               392.0593               403.4598
 Red. masses --      3.1711                 3.1776                 4.3437
 Frc consts  --      0.2428                 0.2878                 0.4166
 IR Inten    --      1.5249                 2.0159                 3.5470

                     19                     20                     21
                      A                      A                      A
 Frequencies --    418.2374               446.2076               478.7203
 Red. masses --      3.3941                 4.1917                 4.8438
 Frc consts  --      0.3498                 0.4917                 0.6540
 IR Inten    --      2.4555                 4.9633                16.3691

                     22                     23                     24
                      A                      A                      A
 Frequencies --    494.2121               540.8136               546.8921
 Red. masses --      4.3650                 4.2142                 4.1483
 Frc consts  --      0.6281                 0.7262                 0.7310
 IR Inten    --      5.4100                 6.6668                15.3177

                     25                     26                     27
                      A                      A                      A
 Frequencies --    581.6147               666.0984               712.1770
 Red. masses --      3.2950                 4.5516                 4.6883
 Frc consts  --      0.6567                 1.1898                 1.4010
 IR Inten    --      2.4557                12.1353                 9.5888

                     28                     29                     30
                      A                      A                      A
 Frequencies --    729.7275               744.5896               756.9119
 Red. masses --      6.4309                 5.4434                 3.7755
 Frc consts  --      2.0177                 1.7781                 1.2744
 IR Inten    --      0.4476                 1.3176                 6.3539

                     31                     32                     33
                      A                      A                      A
 Frequencies --    817.0856               823.5032               833.1041
 Red. masses --      1.9513                 3.5658                 1.6177
 Frc consts  --      0.7676                 1.4248                 0.6615
 IR Inten    --      8.8564                 8.9043                 6.0318

                     34                     35                     36
                      A                      A                      A
 Frequencies --    858.1839               889.2779               904.1042
 Red. masses --      4.3113                 1.6436                 2.1872
 Frc consts  --      1.8708                 0.7658                 1.0533
 IR Inten    --     24.1245                 5.7211                10.9175

                     37                     38                     39
                      A                      A                      A
 Frequencies --    916.7580               951.8929               970.5945
 Red. masses --      1.5130                 1.7134                 1.6001
 Frc consts  --      0.7492                 0.9147                 0.8881
 IR Inten    --     17.6366                12.6299                11.9777

                     40                     41                     42
                      A                      A                      A
 Frequencies --   1000.6228              1026.8247              1055.4011
 Red. masses --      2.1378                 3.9379                 3.8922
 Frc consts  --      1.2611                 2.4463                 2.5544
 IR Inten    --     13.0263                81.3793                76.9335

                     43                     44                     45
                      A                      A                      A
 Frequencies --   1058.6984              1119.3580              1124.4807
 Red. masses --      1.6175                 2.2376                 2.2087
 Frc consts  --      1.0682                 1.6519                 1.6455
 IR Inten    --     11.8669                48.7247                52.4871

                     46                     47                     48
                      A                      A                      A
 Frequencies --   1143.0196              1176.6323              1188.0456
 Red. masses --      2.5272                 1.7948                 1.2616
 Frc consts  --      1.9454                 1.4640                 1.0492
 IR Inten    --     25.6079                47.5114                 6.2529

                     49                     50                     51
                      A                      A                      A
 Frequencies --   1200.0012              1211.4071              1227.5175
 Red. masses --      2.2061                 1.7916                 1.7098
 Frc consts  --      1.8717                 1.5491                 1.5179
 IR Inten    --     25.8102                 1.0476                22.1482

                     52                     53                     54
                      A                      A                      A
 Frequencies --   1240.8890              1261.0431              1292.4819
 Red. masses --      2.6870                 1.4943                 1.7577
 Frc consts  --      2.4377                 1.4000                 1.7300
 IR Inten    --     90.8221                 3.8363                34.5070

                     55                     56                     57
                      A                      A                      A
 Frequencies --   1318.5999              1332.5666              1344.1787
 Red. masses --      2.1188                 1.6856                 3.2362
 Frc consts  --      2.1705                 1.7636                 3.4451
 IR Inten    --    145.2294                 7.7044                78.3432

                     58                     59                     60
                      A                      A                      A
 Frequencies --   1348.6920              1410.6358              1427.8030
 Red. masses --      2.3415                 1.3793                 1.3591
 Frc consts  --      2.5094                 1.6171                 1.6325
 IR Inten    --     13.2248                 6.3177                10.1215

                     61                     62                     63
                      A                      A                      A
 Frequencies --   1435.4637              1443.0987              1458.6416
 Red. masses --      1.5751                 1.4771                 1.8966
 Frc consts  --      1.9123                 1.8124                 2.3775
 IR Inten    --     10.4553                10.5410                23.3657

                     64                     65                     66
                      A                      A                      A
 Frequencies --   1494.9124              1498.6655              1507.1372
 Red. masses --      1.2597                 1.1521                 1.0481
 Frc consts  --      1.6586                 1.5246                 1.4027
 IR Inten    --     18.0499                22.5432                 7.7731

                     67                     68                     69
                      A                      A                      A
 Frequencies --   1508.5942              1515.4275              1515.7080
 Red. masses --      1.1144                 1.0630                 1.0460
 Frc consts  --      1.4943                 1.4383                 1.4158
 IR Inten    --      5.0858                12.8285                 1.8082

                     70                     71                     72
                      A                      A                      A
 Frequencies --   1528.7806              1533.8011              1541.9704
 Red. masses --      1.0603                 2.7118                 1.0564
 Frc consts  --      1.4601                 3.7588                 1.4799
 IR Inten    --      3.8238               151.3526                 1.9386

                     73                     74                     75
                      A                      A                      A
 Frequencies --   1546.4009              1585.2088              1611.8949
 Red. masses --      1.1602                 8.4215                 9.4752
 Frc consts  --      1.6347                12.4685                14.5048
 IR Inten    --     31.5294                17.0620                99.5011

                     76                     77                     78
                      A                      A                      A
 Frequencies --   1669.0832              1717.0484              3041.2063
 Red. masses --      6.9623                 7.8957                 1.0352
 Frc consts  --     11.4277                13.7154                 5.6411
 IR Inten    --      8.7085                82.8904                68.7972

                     79                     80                     81
                      A                      A                      A
 Frequencies --   3043.2881              3045.4106              3055.2674
 Red. masses --      1.0480                 1.0561                 1.0351
 Frc consts  --      5.7185                 5.7708                 5.6930
 IR Inten    --      8.4329                20.8803                13.2038

                     82                     83                     84
                      A                      A                      A
 Frequencies --   3080.0566              3095.3609              3115.5587
 Red. masses --      1.0586                 1.0993                 1.1012
 Frc consts  --      5.9172                 6.2059                 6.2978
 IR Inten    --     39.5008                11.8990                26.3193

                     85                     86                     87
                      A                      A                      A
 Frequencies --   3118.9413              3121.1206              3125.5137
 Red. masses --      1.1056                 1.0991                 1.1009
 Frc consts  --      6.3365                 6.3084                 6.3365
 IR Inten    --      1.7994                13.3975                36.5883

                     88                     89                     90
                      A                      A                      A
 Frequencies --   3142.4632              3156.6101              3156.8771
 Red. masses --      1.1075                 1.0892                 1.1042
 Frc consts  --      6.4436                 6.3941                 6.4834
 IR Inten    --     44.6632                44.0208                27.3072

                     91                     92                     93
                      A                      A                      A
 Frequencies --   3167.1893              3200.1134              3228.9562
 Red. masses --      1.1003                 1.0907                 1.0914
 Frc consts  --      6.5029                 6.5807                 6.7044
 IR Inten    --      8.1023                 6.5858                 1.4518

 - Thermochemistry -
 -------------------
 Temperature   298.150 Kelvin.  Pressure   1.00000 Atm.
 Atom     1 has atomic number  6 and mass  12.00000

 Molecular mass:   232.12118 amu.
 Principal axes and moments of inertia in atomic units:
                           1         2         3
     Eigenvalues --  2218.153415649.976127082.35836
           X            0.99991   0.01204   0.00530
           Y           -0.01193   0.99971  -0.02071
           Z           -0.00555   0.02065   0.99977
 This molecule is an asymmetric top.
 Rotational symmetry number  1.
 Warning -- assumption of classical behavior for rotation
           may cause significant error
 Rotational temperatures (Kelvin)      0.03905     0.01533     0.01223
 Rotational constants (GHZ):           0.81362     0.31942     0.25482
 Zero-point vibrational energy     719828.4 (Joules/Mol)
                                  172.04312 (Kcal/Mol)
 Warning -- explicit consideration of  25 degrees of freedom as
           vibrations may cause significant error
 Vibrational temperatures:     57.40    66.80   101.10   124.03   134.36
          (Kelvin)            188.66   236.82   248.97   260.69   307.69
                              353.46   366.17   406.08   422.96   457.78
                              518.64   564.09   580.49   601.75   641.99
                              688.77   711.06   778.11   786.86   836.81
                              958.37  1024.66  1049.92  1071.30  1089.03
                             1175.60  1184.84  1198.65  1234.74  1279.47
                             1300.80  1319.01  1369.56  1396.47  1439.67
                             1477.37  1518.49  1523.23  1610.51  1617.88
                             1644.55  1692.91  1709.33  1726.53  1742.94
                             1766.12  1785.36  1814.36  1859.59  1897.17
                             1917.27  1933.97  1940.47  2029.59  2054.29
                             2065.31  2076.30  2098.66  2150.85  2156.25
                             2168.43  2170.53  2180.36  2180.77  2199.57
                             2206.80  2218.55  2224.93  2280.76  2319.16
                             2401.44  2470.45  4375.62  4378.61  4381.67
                             4395.85  4431.51  4453.53  4482.59  4487.46
                             4490.60  4496.92  4521.30  4541.66  4542.04
                             4556.88  4604.25  4645.75

 Zero-point correction=                           0.274168 (Hartree/Particle)
 Thermal correction to Energy=                    0.290324
 Thermal correction to Enthalpy=                  0.291268
 Thermal correction to Gibbs Free Energy=         0.230299
 Sum of electronic and zero-point Energies=           -764.722161
 Sum of electronic and thermal Energies=              -764.706005
 Sum of electronic and thermal Enthalpies=            -764.705061
 Sum of electronic and thermal Free Energies=         -764.766030

                     E (Thermal)             CV                S
                      KCal/Mol        Cal/Mol-Kelvin    Cal/Mol-Kelvin
 Total                  182.181             61.172            128.321
 Electronic               0.000              0.000              0.000
 Translational            0.889              2.981             42.228
 Rotational               0.889              2.981             32.851
 Vibrational            180.403             55.210             53.242
 Vibration     1          0.594              1.981              5.264
 Vibration     2          0.595              1.979              4.964
 Vibration     3          0.598              1.968              4.146
 Vibration     4          0.601              1.959              3.744
 Vibration     5          0.602              1.954              3.588
 Vibration     6          0.612              1.922              2.929
 Vibration     7          0.623              1.886              2.496
 Vibration     8          0.627              1.876              2.402
 Vibration     9          0.630              1.865              2.316
 Vibration    10          0.644              1.820              2.011
 Vibration    11          0.660              1.770              1.761
 Vibration    12          0.665              1.755              1.699
 Vibration    13          0.681              1.707              1.520
 Vibration    14          0.689              1.685              1.451
 Vibration    15          0.705              1.639              1.319
 Vibration    16          0.735              1.554              1.120
 Vibration    17          0.759              1.487              0.992
 Vibration    18          0.769              1.463              0.950
 Vibration    19          0.781              1.431              0.898
 Vibration    20          0.805              1.369              0.807
 Vibration    21          0.835              1.297              0.714
 Vibration    22          0.850              1.263              0.673
 Vibration    23          0.896              1.160              0.564
 Vibration    24          0.902              1.146              0.551
 Vibration    25          0.938              1.071              0.482

 Optimization completed.
    -- Stationary point found.
 Normal termination of Gaussian 16 at Mon Dec 14 13:30:31 2020.

 ----------------------------------------------------------------------
 # B3LYP/6-311++G(d,p) empiricaldispersion=gd3bj scf=xqc pop=npa geom=c
 heck
 ----------------------------------------------------------------------

 ---------------------------------------
 CID_143282563_JID_7562_Energie_neutraal
 ---------------------------------------
 Structure from the checkpoint file:  "JID_7562.chk"
 Charge =  0 Multiplicity = 1

 SCF Done:  E(RB3LYP) =  -765.199999316     A.U. after   16 cycles
 Normal termination of Gaussian 16 at Mon Dec 14 13:36:35 2020.

 ----------------------------------------------------------------------
 # B3LYP/6-311++G(d,p) empiricaldispersion=gd3bj scf=xqc pop=npa geom=c
 heck
 ----------------------------------------------------------------------

 -------------------------------------
 CID_143282563_JID_7562_Energie_kation
 -------------------------------------
 Structure from the checkpoint file:  "JID_7562.chk"
 Charge =  1 Multiplicity = 2

 SCF Done:  E(UB3LYP) =  -764.915040444     A.U. after   23 cycles
 Normal termination of Gaussian 16 at Mon Dec 14 13:49:17 2020.
 Gaussian 16:  ES64L-G16RevA.03 25-Dec-2016

 ----------------------------------------------------------------------
 # B3LYP/6-311++G(d,p) empiricaldispersion=gd3bj scf=xqc pop=npa geom=c
 heck
 ----------------------------------------------------------------------

 ------------------------------------
 CID_143282563_JID_7562_Energie_anion
 ------------------------------------
 Structure from the checkpoint file:  "JID_7562.chk"
 Charge = -1 Multiplicity = 2

                         Standard orientation:
 ---------------------------------------------------------------------
 Center     Atomic      Atomic             Coordinates (Angstroms)
 Number     Number       Type             X           Y           Z
 ---------------------------------------------------------------------
      1          6           0       -2.401882    2.675395   -0.997765
      2          6           0       -3.204978    1.544972   -0.371799
      3          8           0       -2.538718    0.986248    0.781561
      4          6           0       -1.405967    0.256848    0.508615
      5          6           0       -1.463748   -0.974604   -0.180801
      6          6           0       -0.299557   -1.691429   -0.409239
      7          6           0        0.952047   -1.210974    0.018600
      8          6           0        0.996881   -0.011232    0.766405
      9          6           0       -0.179875    0.712076    0.981166
     10          6           0        2.332556    0.468671    1.271560
     11          6           0        3.138238    0.769961    0.022158
     12          7           0        3.585393   -0.174296   -0.724360
     13          6           0        3.231808   -1.496051   -0.514091
     14          7           0        2.066459   -2.000388   -0.268083
     15          6           0        3.340441    2.203082   -0.369838
     16          8           0       -2.656870   -1.467367   -0.661539
     17          6           0       -3.561707   -1.905455    0.357928
     18          1           0       -2.207425    3.464389   -0.263622
     19          1           0       -2.955268    3.110029   -1.837986
     20          1           0       -1.441459    2.310227   -1.375786
     21          1           0       -4.158275    1.911127    0.019055
     22          1           0       -3.407493    0.750843   -1.096978
     23          1           0       -0.349013   -2.632422   -0.945588
     24          1           0       -0.160526    1.645893    1.535383
     25          1           0        2.835750   -0.320101    1.846031
     26          1           0        2.222879    1.350426    1.908285
     27          1           0        4.032617   -2.203480   -0.731727
     28          1           0        2.367815    2.704234   -0.456624
     29          1           0        3.906177    2.738144    0.403856
     30          1           0        3.869585    2.270855   -1.321827
     31          1           0       -3.119051   -2.726874    0.935419
     32          1           0       -3.826773   -1.085320    1.032516
     33          1           0       -4.453332   -2.263781   -0.160878
 ---------------------------------------------------------------------

 SCF Done:  E(UB3LYP) =  -765.203572190     A.U. after   33 cycles
 SCF Done:  E(UB3LYP) =  -765.203572190     a.u. after    1 cycles

 The electronic state is 2-A.
 Alpha  occ. eigenvalues --  -19.02827 -19.02261 -14.14916 -14.13958 -10.11564
 Alpha  occ. eigenvalues --  -10.11446 -10.09579 -10.08652 -10.06771 -10.06584
 Alpha  occ. eigenvalues --  -10.06235 -10.06162 -10.04862 -10.04722 -10.04409
 Alpha  occ. eigenvalues --  -10.03727 -10.02862  -0.94945  -0.92852  -0.81127
 Alpha  occ. eigenvalues --   -0.74519  -0.71291  -0.66349  -0.64917  -0.62011
 Alpha  occ. eigenvalues --   -0.59632  -0.59345  -0.54559  -0.53118  -0.49743
 Alpha  occ. eigenvalues --   -0.47802  -0.44297  -0.41608  -0.39263  -0.38394
 Alpha  occ. eigenvalues --   -0.37308  -0.36705  -0.35179  -0.34745  -0.33566
 Alpha  occ. eigenvalues --   -0.33069  -0.30807  -0.30497  -0.30264  -0.29755
 Alpha  occ. eigenvalues --   -0.28701  -0.27962  -0.27365  -0.26262  -0.25951
 Alpha  occ. eigenvalues --   -0.24530  -0.23950  -0.23079  -0.22175  -0.20469
 Alpha  occ. eigenvalues --   -0.17616  -0.15599  -0.15417  -0.15140  -0.11487
 Alpha  occ. eigenvalues --   -0.09375  -0.08092   0.04756
 Alpha virt. eigenvalues --    0.06756   0.07893   0.08408   0.09472   0.10049
 Alpha virt. eigenvalues --    0.10506   0.10746   0.11209   0.11833   0.12136
 Alpha virt. eigenvalues --    0.12405   0.12830   0.12957   0.13365   0.13780

  Beta  occ. eigenvalues --  -19.02829 -19.02256 -14.14889 -14.13724 -10.11533
  Beta  occ. eigenvalues --  -10.11447 -10.09636 -10.08463 -10.06582 -10.06513
  Beta  occ. eigenvalues --  -10.06241 -10.05642 -10.04829 -10.04747 -10.04448
  Beta  occ. eigenvalues --  -10.03679 -10.02698  -0.94916  -0.92812  -0.80655
  Beta  occ. eigenvalues --   -0.74108  -0.70997  -0.66230  -0.64799  -0.61718
  Beta  occ. eigenvalues --   -0.59515  -0.59220  -0.54441  -0.52981  -0.49318
  Beta  occ. eigenvalues --   -0.47567  -0.44117  -0.41419  -0.39129  -0.38303
  Beta  occ. eigenvalues --   -0.37180  -0.36416  -0.35173  -0.34388  -0.33463
  Beta  occ. eigenvalues --   -0.32951  -0.30694  -0.30290  -0.29866  -0.29603
  Beta  occ. eigenvalues --   -0.28646  -0.27807  -0.27212  -0.26097  -0.25840
  Beta  occ. eigenvalues --   -0.24459  -0.23728  -0.22769  -0.21885  -0.20148
  Beta  occ. eigenvalues --   -0.17133  -0.15503  -0.14921  -0.14042  -0.11037
  Beta  occ. eigenvalues --   -0.08735  -0.07365
  Beta virt. eigenvalues --    0.06796   0.07807   0.08344   0.09261   0.09873
  Beta virt. eigenvalues --    0.10214   0.10699   0.10911   0.11205   0.11875
  Beta virt. eigenvalues --    0.12101   0.12520   0.12865   0.13286   0.13646

 Mulliken charges and spin densities:
               1          2
     1  C   -0.532973  -0.078142
     2  C    0.176402  -0.134020
     3  O   -0.118366   0.007546
     4  C   -0.791857   0.014410
     5  C   -0.150166  -0.065402
     6  C    0.095761   0.106724
     7  C   -0.767946  -0.009418
     8  C    1.004841   0.163354
     9  C   -0.260786  -0.047849
    10  C    0.071542  -0.078439
    11  C   -0.190185   0.270310
    12  N   -0.047454   0.033364
    13  C   -0.183864   0.221614
    14  N   -0.068426   0.093649
    15  C   -0.515428  -0.176645
    16  O   -0.148291   0.005873
    17  C   -0.171791  -0.077551
    18  H    0.135346   0.003561
    19  H    0.082997   0.033847
    20  H    0.163977   0.010416
    21  H   -0.105307   0.253991
    22  H    0.182718  -0.032856
    23  H    0.165069  -0.002501
    24  H    0.046457   0.093622
    25  H    0.097331   0.097207
    26  H    0.074597   0.066498
    27  H    0.138664  -0.004627
    28  H    0.149954  -0.004423
    29  H    0.023218   0.120092
    30  H    0.114691   0.017526
    31  H    0.082796   0.036475
    32  H    0.129009   0.047123
    33  H    0.117470   0.014667
 Sum of Mulliken charges =  -1.00000   1.00000

 Dipole moment (field-independent basis, Debye):
    X=             -5.3329    Y=              2.3673    Z=              0.5184  Tot=              5.8577
 Quadrupole moment (field-independent basis, Debye-Ang):
   XX=           -152.4504   YY=           -123.9524   ZZ=           -117.1454
   XY=              7.3215   XZ=              6.7767   YZ=             -4.1018

 Summary of Natural Population Analysis:

                                       Natural Population
                Natural  -----------------------------------------------
    Atom  No    Charge         Core      Valence    Rydberg      Total
 -----------------------------------------------------------------------
      C    1   -0.30129      0.99967     2.29721    0.00442     3.30129
      C    2   -0.01118      0.99958     1.99914    0.01246     3.01118
      O    3   -0.29703      0.99987     3.28681    0.01036     4.29703
      C    4    0.15005      0.99932     1.83627    0.01436     2.84995
      C    5    0.11000      0.99932     1.87680    0.01388     2.89000
      C    6   -0.07966      0.99949     2.07116    0.00902     3.07966
      C    7    0.06611      0.99942     1.92075    0.01373     2.93389
      C    8   -0.01299      0.99948     2.00452    0.00899     3.01299
      C    9   -0.11453      0.99948     2.10569    0.00936     3.11453
      C   10   -0.23094      0.99957     2.22226    0.00911     3.23094
      C   11    0.24740      0.99959     1.73724    0.01577     2.75260
      N   12   -0.27196      0.99960     2.76076    0.01159     3.77196
      C   13    0.18016      0.99962     1.79975    0.02047     2.81984
      N   14   -0.24157      0.99967     2.73056    0.01135     3.74157
      C   15   -0.30853      0.99962     2.30422    0.00468     3.30853
      O   16   -0.29571      0.99986     3.28567    0.01018     4.29571
      C   17   -0.09903      0.99960     2.09155    0.00788     3.09903
      H   18    0.09723      0.00000     0.40157    0.00120     0.40277
      H   19    0.09535      0.00000     0.40381    0.00085     0.40465
      H   20    0.10679      0.00000     0.39222    0.00099     0.39321
      H   21    0.08266      0.00000     0.41569    0.00166     0.41734
      H   22    0.08879      0.00000     0.40957    0.00164     0.41121
      H   23    0.10232      0.00000     0.39600    0.00168     0.39768
      H   24    0.09757      0.00000     0.40073    0.00170     0.40243
      H   25    0.10982      0.00000     0.38881    0.00136     0.39018
      H   26    0.09916      0.00000     0.39969    0.00115     0.40084
      H   27    0.06902      0.00000     0.42974    0.00123     0.43098
      H   28    0.10425      0.00000     0.39478    0.00097     0.39575
      H   29    0.10006      0.00000     0.39859    0.00134     0.39994
      H   30    0.10484      0.00000     0.39387    0.00129     0.39516
      H   31    0.08113      0.00000     0.41738    0.00150     0.41887
      H   32    0.08928      0.00000     0.40904    0.00168     0.41072
      H   33    0.08244      0.00000     0.41647    0.00108     0.41756
 =======================================================================
   * Total *    0.00000     16.99274    44.79832    0.20894    62.00000

 Normal termination of Gaussian 16 at Mon Dec 14 14:07:35 2020.
