 Gaussian 16, Revision A.03,

 -----------------------------------------------------------
 # opt freq B3LYP/6-31G(d) empiricaldispersion=gd3bj scf=xqc
 -----------------------------------------------------------

 ------------------------------
 CID_62542993_JID_3735_neutraal
 ------------------------------
 Symbolic Z-matrix:
 Charge =  0 Multiplicity = 1

 SCF Done:  E(RB3LYP) =  -595.075956862     A.U. after   13 cycles
 SCF Done:  E(RB3LYP) =  -595.078948710     A.U. after   11 cycles
 SCF Done:  E(RB3LYP) =  -595.078032630     A.U. after   11 cycles
 SCF Done:  E(RB3LYP) =  -595.080556693     A.U. after   11 cycles
 SCF Done:  E(RB3LYP) =  -595.081442280     A.U. after   11 cycles
 SCF Done:  E(RB3LYP) =  -595.081914375     A.U. after   10 cycles
 SCF Done:  E(RB3LYP) =  -595.082316775     A.U. after   10 cycles
 SCF Done:  E(RB3LYP) =  -595.082906639     A.U. after   11 cycles
 SCF Done:  E(RB3LYP) =  -595.083255033     A.U. after   11 cycles
 SCF Done:  E(RB3LYP) =  -595.082782065     A.U. after   11 cycles
 SCF Done:  E(RB3LYP) =  -595.084024938     A.U. after   11 cycles
 SCF Done:  E(RB3LYP) =  -595.084032164     A.U. after    9 cycles
 SCF Done:  E(RB3LYP) =  -595.084033658     A.U. after    9 cycles
 SCF Done:  E(RB3LYP) =  -595.084035227     A.U. after    9 cycles
 SCF Done:  E(RB3LYP) =  -595.084035461     A.U. after    7 cycles
 SCF Done:  E(RB3LYP) =  -595.084035553     A.U. after    7 cycles
 Optimization completed.
    -- Stationary point found.
 Normal termination of Gaussian 16 at Wed Dec  9 23:26:11 2020.

 --------------------------------------------------------------------
 #N Geom=AllCheck Guess=TCheck SCRF=Check GenChk RB3LYP/6-31G(d) Freq
 --------------------------------------------------------------------

 Structure from the checkpoint file:  "JID_3735.chk"
 ------------------------------
 CID_62542993_JID_3735_neutraal
 ------------------------------
 Charge =  0 Multiplicity = 1

 SCF Done:  E(RB3LYP) =  -595.084035553     A.U. after    1 cycles

  Exact polarizability: 131.531   0.461 121.855  -6.572   1.751 102.493
 Approx polarizability: 161.223   0.675 165.106  -7.451   3.557 156.086

                      1                      2                      3
                      A                      A                      A
 Frequencies --     29.2641                34.9408                45.0114
 Red. masses --      4.0277                 3.3298                 3.1515
 Frc consts  --      0.0020                 0.0024                 0.0038
 IR Inten    --      0.2276                 0.1913                 0.0402

                      4                      5                      6
                      A                      A                      A
 Frequencies --     83.2924                98.2823               129.5721
 Red. masses --      3.2277                 2.6304                 2.6779
 Frc consts  --      0.0132                 0.0150                 0.0265
 IR Inten    --      1.4590                 3.4298                 2.3789

                      7                      8                      9
                      A                      A                      A
 Frequencies --    168.2499               218.3258               234.4494
 Red. masses --      3.1197                 1.9546                 2.1510
 Frc consts  --      0.0520                 0.0549                 0.0697
 IR Inten    --      0.3984                 0.8134                 0.3552

                     10                     11                     12
                      A                      A                      A
 Frequencies --    247.6903               281.9219               309.6788
 Red. masses --      1.8139                 1.9491                 2.0638
 Frc consts  --      0.0656                 0.0913                 0.1166
 IR Inten    --      3.2551                 0.8128                 7.8555

                     13                     14                     15
                      A                      A                      A
 Frequencies --    334.4951               369.1116               430.8734
 Red. masses --      2.2204                 2.6094                 2.6728
 Frc consts  --      0.1464                 0.2095                 0.2924
 IR Inten    --      4.4612                 1.3590                 1.8214

                     16                     17                     18
                      A                      A                      A
 Frequencies --    436.8909               459.5110               491.2685
 Red. masses --      1.8169                 2.0969                 2.4115
 Frc consts  --      0.2043                 0.2609                 0.3429
 IR Inten    --      2.5546                 6.5927                 1.1919

                     19                     20                     21
                      A                      A                      A
 Frequencies --    527.2833               581.6558               619.8639
 Red. masses --      2.6185                 2.5697                 1.6155
 Frc consts  --      0.4289                 0.5122                 0.3657
 IR Inten    --      4.2875                 0.1472                 3.1812

                     22                     23                     24
                      A                      A                      A
 Frequencies --    745.4817               812.6691               827.1710
 Red. masses --      2.5654                 2.4977                 2.3574
 Frc consts  --      0.8400                 0.9719                 0.9503
 IR Inten    --     36.1702               134.6706                42.8427

                     25                     26                     27
                      A                      A                      A
 Frequencies --    838.9974               857.1462               875.9085
 Red. masses --      1.6243                 1.7733                 1.7271
 Frc consts  --      0.6737                 0.7676                 0.7807
 IR Inten    --      1.1097                11.6842                17.5680

                     28                     29                     30
                      A                      A                      A
 Frequencies --    884.5318               902.4767               930.8074
 Red. masses --      2.2738                 1.7214                 2.1137
 Frc consts  --      1.0482                 0.8261                 1.0790
 IR Inten    --     19.7343                31.7197                 8.9225

                     31                     32                     33
                      A                      A                      A
 Frequencies --    978.2069              1003.3052              1034.7519
 Red. masses --      1.7885                 2.3433                 1.6131
 Frc consts  --      1.0083                 1.3898                 1.0176
 IR Inten    --     56.1194                 6.3762                 4.3718

                     34                     35                     36
                      A                      A                      A
 Frequencies --   1042.7513              1050.6779              1065.0697
 Red. masses --      2.6423                 2.4891                 2.0485
 Frc consts  --      1.6928                 1.6189                 1.3691
 IR Inten    --      8.4518                 9.1408                14.7347

                     37                     38                     39
                      A                      A                      A
 Frequencies --   1080.0607              1129.3116              1138.7549
 Red. masses --      2.2346                 2.0849                 2.2695
 Frc consts  --      1.5358                 1.5666                 1.7340
 IR Inten    --     26.8536                16.1547                48.0585

                     40                     41                     42
                      A                      A                      A
 Frequencies --   1144.3854              1162.6854              1176.1666
 Red. masses --      2.9961                 3.3787                 2.6617
 Frc consts  --      2.3118                 2.6911                 2.1694
 IR Inten    --      6.3312                92.6698                46.1194

                     43                     44                     45
                      A                      A                      A
 Frequencies --   1188.2580              1197.2649              1206.5422
 Red. masses --      2.0117                 1.3404                 2.0172
 Frc consts  --      1.6736                 1.1320                 1.7301
 IR Inten    --      8.3937                 4.1529                25.6232

                     46                     47                     48
                      A                      A                      A
 Frequencies --   1217.4428              1231.4007              1268.4808
 Red. masses --      1.3060                 1.4739                 1.3427
 Frc consts  --      1.1405                 1.3168                 1.2729
 IR Inten    --     17.9556                 9.6001                 9.2900

                     49                     50                     51
                      A                      A                      A
 Frequencies --   1272.9486              1281.1877              1337.8205
 Red. masses --      1.1658                 1.2286                 1.3431
 Frc consts  --      1.1130                 1.1882                 1.4163
 IR Inten    --      7.9229                 2.8630                 4.5548

                     52                     53                     54
                      A                      A                      A
 Frequencies --   1344.8806              1350.7250              1366.6846
 Red. masses --      1.3284                 1.2951                 1.2779
 Frc consts  --      1.4156                 1.3921                 1.4064
 IR Inten    --     11.2246                 7.6685                 0.7607

                     55                     56                     57
                      A                      A                      A
 Frequencies --   1372.6463              1391.3503              1395.0098
 Red. masses --      1.3839                 1.3266                 1.3518
 Frc consts  --      1.5363                 1.5131                 1.5499
 IR Inten    --     10.4365                 7.1230                27.3188

                     58                     59                     60
                      A                      A                      A
 Frequencies --   1410.1067              1412.3751              1416.2973
 Red. masses --      1.3106                 1.3223                 1.3029
 Frc consts  --      1.5354                 1.5541                 1.5398
 IR Inten    --     19.3802                11.4325                 9.5077

                     61                     62                     63
                      A                      A                      A
 Frequencies --   1424.3080              1443.5985              1494.4158
 Red. masses --      1.3422                 1.4231                 1.1012
 Frc consts  --      1.6042                 1.7474                 1.4489
 IR Inten    --      6.0923                10.3787                 6.5559

                     64                     65                     66
                      A                      A                      A
 Frequencies --   1501.3718              1502.5370              1506.8207
 Red. masses --      1.1586                 1.1020                 1.0909
 Frc consts  --      1.5387                 1.4658                 1.4593
 IR Inten    --      7.2930                 7.3309                 7.4106

                     67                     68                     69
                      A                      A                      A
 Frequencies --   1510.5613              1513.4118              1514.6676
 Red. masses --      1.0891                 1.1047                 1.0879
 Frc consts  --      1.4642                 1.4908                 1.4706
 IR Inten    --      5.7723                10.4308                 0.4293

                     70                     71                     72
                      A                      A                      A
 Frequencies --   1514.9193              1525.5005              1529.6380
 Red. masses --      1.0951                 1.1329                 1.0741
 Frc consts  --      1.4808                 1.5533                 1.4808
 IR Inten    --      4.2444                26.3251                12.2363

                     73                     74                     75
                      A                      A                      A
 Frequencies --   1533.3847              1544.4242              1551.9395
 Red. masses --      1.1684                 1.0896                 1.0908
 Frc consts  --      1.6187                 1.5312                 1.5479
 IR Inten    --     24.4776                12.0341                 2.3397

                     76                     77                     78
                      A                      A                      A
 Frequencies --   2954.5501              2984.3278              2995.9317
 Red. masses --      1.0719                 1.0470                 1.0503
 Frc consts  --      5.5131                 5.4939                 5.5544
 IR Inten    --     41.3774                26.8087               140.1817

                     79                     80                     81
                      A                      A                      A
 Frequencies --   2996.5059              3009.2719              3018.4391
 Red. masses --      1.0649                 1.0699                 1.0685
 Frc consts  --      5.6335                 5.7083                 5.7358
 IR Inten    --     18.3316                22.9374                45.1555

                     82                     83                     84
                      A                      A                      A
 Frequencies --   3026.7026              3033.8024              3035.8086
 Red. masses --      1.1060                 1.0604                 1.0813
 Frc consts  --      5.9694                 5.7505                 5.8712
 IR Inten    --     92.9477                35.2688                27.6930

                     85                     86                     87
                      A                      A                      A
 Frequencies --   3036.0265              3039.3616              3048.5389
 Red. masses --      1.0856                 1.0619                 1.0875
 Frc consts  --      5.8957                 5.7799                 5.9549
 IR Inten    --     58.5976                49.4559                68.9916

                     88                     89                     90
                      A                      A                      A
 Frequencies --   3072.4129              3077.7465              3081.7184
 Red. masses --      1.1001                 1.0950                 1.1033
 Frc consts  --      6.1185                 6.1110                 6.1732
 IR Inten    --     29.5323                43.2842                50.6328

                     91                     92                     93
                      A                      A                      A
 Frequencies --   3084.8943              3090.0578              3103.1063
 Red. masses --      1.1048                 1.0977                 1.0937
 Frc consts  --      6.1946                 6.1757                 6.2052
 IR Inten    --     76.1738                21.6110                52.7730

                     94                     95                     96
                      A                      A                      A
 Frequencies --   3136.1125              3447.9885              3462.9981
 Red. masses --      1.0969                 1.0733                 1.0720
 Frc consts  --      6.3560                 7.5182                 7.5747
 IR Inten    --     29.6067                 5.2627                11.6746

 - Thermochemistry -
 -------------------
 Temperature   298.150 Kelvin.  Pressure   1.00000 Atm.
 Atom     1 has atomic number  6 and mass  12.00000

 Molecular mass:   187.16846 amu.
 Principal axes and moments of inertia in atomic units:
                           1         2         3
     Eigenvalues --  1463.672834251.415545170.32387
           X            0.99992   0.01259  -0.00236
           Y           -0.01255   0.99980   0.01578
           Z            0.00256  -0.01575   0.99987
 This molecule is an asymmetric top.
 Rotational symmetry number  1.
 Warning -- assumption of classical behavior for rotation
           may cause significant error
 Rotational temperatures (Kelvin)      0.05918     0.02037     0.01675
 Rotational constants (GHZ):           1.23302     0.42450     0.34906
 Zero-point vibrational energy     824359.7 (Joules/Mol)
                                  197.02669 (Kcal/Mol)
 Warning -- explicit consideration of  21 degrees of freedom as
           vibrations may cause significant error
 Vibrational temperatures:     42.10    50.27    64.76   119.84   141.41
          (Kelvin)            186.43   242.07   314.12   337.32   356.37
                              405.62   445.56   481.26   531.07   619.93
                              628.59   661.13   706.83   758.64   836.87
                              891.85  1072.58  1169.25  1190.11  1207.13
                             1233.24  1260.24  1272.64  1298.46  1339.22
                             1407.42  1443.53  1488.78  1500.29  1511.69
                             1532.40  1553.97  1624.83  1638.41  1646.52
                             1672.84  1692.24  1709.64  1722.60  1735.95
                             1751.63  1771.71  1825.06  1831.49  1843.34
                             1924.83  1934.98  1943.39  1966.35  1974.93
                             2001.84  2007.11  2028.83  2032.09  2037.74
                             2049.26  2077.02  2150.13  2160.14  2161.82
                             2167.98  2173.36  2177.46  2179.27  2179.63
                             2194.85  2200.81  2206.20  2222.08  2232.89
                             4250.94  4293.78  4310.48  4311.30  4329.67
                             4342.86  4354.75  4364.97  4367.85  4368.16
                             4372.96  4386.17  4420.52  4428.19  4433.91
                             4438.47  4445.90  4464.68  4512.17  4960.89
                             4982.48

 Zero-point correction=                           0.313982 (Hartree/Particle)
 Thermal correction to Energy=                    0.328062
 Thermal correction to Enthalpy=                  0.329006
 Thermal correction to Gibbs Free Energy=         0.271512
 Sum of electronic and zero-point Energies=           -594.770054
 Sum of electronic and thermal Energies=              -594.755974
 Sum of electronic and thermal Enthalpies=            -594.755030
 Sum of electronic and thermal Free Energies=         -594.812523

                     E (Thermal)             CV                S
                      KCal/Mol        Cal/Mol-Kelvin    Cal/Mol-Kelvin
 Total                  205.862             52.600            121.005
 Electronic               0.000              0.000              0.000
 Translational            0.889              2.981             41.586
 Rotational               0.889              2.981             31.843
 Vibrational            204.084             46.638             47.576
 Vibration     1          0.593              1.984              5.879
 Vibration     2          0.594              1.983              5.527
 Vibration     3          0.595              1.979              5.025
 Vibration     4          0.600              1.961              3.812
 Vibration     5          0.604              1.950              3.488
 Vibration     6          0.612              1.924              2.952
 Vibration     7          0.625              1.882              2.455
 Vibration     8          0.646              1.813              1.973
 Vibration     9          0.654              1.788              1.845
 Vibration    10          0.661              1.767              1.747
 Vibration    11          0.681              1.707              1.522
 Vibration    12          0.699              1.655              1.364
 Vibration    13          0.716              1.607              1.238
 Vibration    14          0.741              1.536              1.083
 Vibration    15          0.792              1.403              0.856
 Vibration    16          0.797              1.390              0.836
 Vibration    17          0.817              1.340              0.768
 Vibration    18          0.847              1.269              0.680
 Vibration    19          0.882              1.190              0.593
 Vibration    20          0.938              1.071              0.482
 Vibration    21          0.980              0.990              0.417

 Optimization completed.
    -- Stationary point found.
 Normal termination of Gaussian 16 at Wed Dec  9 23:35:02 2020.

 ----------------------------------------------------------------------
 # B3LYP/6-311++G(d,p) empiricaldispersion=gd3bj scf=xqc pop=npa geom=c
 heck
 ----------------------------------------------------------------------

 --------------------------------------
 CID_62542993_JID_3735_Energie_neutraal
 --------------------------------------
 Structure from the checkpoint file:  "JID_3735.chk"
 Charge =  0 Multiplicity = 1

 SCF Done:  E(RB3LYP) =  -595.259580697     A.U. after   13 cycles
 Normal termination of Gaussian 16 at Wed Dec  9 23:38:24 2020.

 ----------------------------------------------------------------------
 # B3LYP/6-311++G(d,p) empiricaldispersion=gd3bj scf=xqc pop=npa geom=c
 heck
 ----------------------------------------------------------------------

 ------------------------------------
 CID_62542993_JID_3735_Energie_kation
 ------------------------------------
 Structure from the checkpoint file:  "JID_3735.chk"
 Charge =  1 Multiplicity = 2

 SCF Done:  E(UB3LYP) =  -594.999402467     A.U. after   20 cycles
 Normal termination of Gaussian 16 at Wed Dec  9 23:45:20 2020.
 Gaussian 16:  ES64L-G16RevA.03 25-Dec-2016

 ----------------------------------------------------------------------
 # B3LYP/6-311++G(d,p) empiricaldispersion=gd3bj scf=xqc pop=npa geom=c
 heck
 ----------------------------------------------------------------------

 -----------------------------------
 CID_62542993_JID_3735_Energie_anion
 -----------------------------------
 Structure from the checkpoint file:  "JID_3735.chk"
 Charge = -1 Multiplicity = 2

                         Standard orientation:
 ---------------------------------------------------------------------
 Center     Atomic      Atomic             Coordinates (Angstroms)
 Number     Number       Type             X           Y           Z
 ---------------------------------------------------------------------
      1          6           0       -3.305832   -2.181853   -0.583944
      2          8           0       -2.568168   -1.102474   -0.056254
      3          6           0       -3.370856    0.037566    0.215556
      4          6           0       -2.443558    1.154531    0.656578
      5          7           0       -1.577893    1.549937   -0.450054
      6          6           0       -0.370191    2.256461   -0.032110
      7          6           0        0.682071    1.324718    0.595961
      8          7           0        1.015067    0.255447   -0.354087
      9          6           0        2.231590    0.510991   -1.130185
     10          6           0        3.513339    0.204915   -0.336500
     11          7           0        3.525349   -1.144704    0.244451
     12          6           0        2.294466   -1.403474    1.006410
     13          6           0        1.023272   -1.100960    0.200840
     14          1           0       -2.601136   -2.997297   -0.766208
     15          1           0       -3.796967   -1.912736   -1.532499
     16          1           0       -4.080023   -2.528112    0.119783
     17          1           0       -3.919343    0.339563   -0.691098
     18          1           0       -4.106838   -0.191452    1.003627
     19          1           0       -3.046458    2.016276    0.974301
     20          1           0       -1.898427    0.798394    1.549998
     21          1           0       -1.255242    0.699386   -0.914788
     22          1           0        0.067379    2.742606   -0.914224
     23          1           0       -0.639641    3.055374    0.671040
     24          1           0        1.564602    1.904163    0.910388
     25          1           0        0.274048    0.873208    1.506605
     26          1           0        2.203819   -0.126282   -2.026729
     27          1           0        2.219810    1.551424   -1.476960
     28          1           0        3.616340    0.919555    0.491255
     29          1           0        4.399581    0.322109   -0.972017
     30          1           0        3.575971   -1.821779   -0.518592
     31          1           0        2.322234   -0.772238    1.905534
     32          1           0        2.305386   -2.446966    1.344624
     33          1           0        0.112860   -1.243404    0.792421
     34          1           0        0.963916   -1.804118   -0.644245
 ---------------------------------------------------------------------

 SCF Done:  E(UB3LYP) =  -595.243565596     A.U. after   29 cycles

 The electronic state is 2-A.
 Alpha  occ. eigenvalues --  -19.02987 -14.20232 -14.19851 -14.18814 -10.11835
 Alpha  occ. eigenvalues --  -10.11209 -10.09325 -10.09317 -10.09231 -10.09164
 Alpha  occ. eigenvalues --  -10.09020 -10.08908 -10.08550  -0.94289  -0.84184
 Alpha  occ. eigenvalues --   -0.80583  -0.78307  -0.66679  -0.66014  -0.62499
 Alpha  occ. eigenvalues --   -0.57524  -0.55576  -0.54059  -0.51987  -0.50031
 Alpha  occ. eigenvalues --   -0.46186  -0.40736  -0.40034  -0.39505  -0.38383
 Alpha  occ. eigenvalues --   -0.37366  -0.35811  -0.35241  -0.34588  -0.34252
 Alpha  occ. eigenvalues --   -0.32840  -0.32200  -0.31174  -0.29097  -0.28672
 Alpha  occ. eigenvalues --   -0.27573  -0.27376  -0.25864  -0.25457  -0.24795
 Alpha  occ. eigenvalues --   -0.23797  -0.23627  -0.22657  -0.16821  -0.15823
 Alpha  occ. eigenvalues --   -0.12585  -0.09591   0.04457
 Alpha virt. eigenvalues --    0.06148   0.06656   0.07624   0.08010   0.08480
 Alpha virt. eigenvalues --    0.09405   0.09647   0.09888   0.10418   0.10720
 Alpha virt. eigenvalues --    0.11738   0.12159   0.12291   0.12929   0.13386

  Beta  occ. eigenvalues --  -19.02977 -14.20233 -14.19834 -14.18811 -10.11815
  Beta  occ. eigenvalues --  -10.11168 -10.09311 -10.09304 -10.09212 -10.09145
  Beta  occ. eigenvalues --  -10.09010 -10.08895 -10.08535  -0.94273  -0.84167
  Beta  occ. eigenvalues --   -0.80566  -0.78283  -0.66652  -0.65983  -0.62466
  Beta  occ. eigenvalues --   -0.57462  -0.55536  -0.54011  -0.51938  -0.49979
  Beta  occ. eigenvalues --   -0.46139  -0.40704  -0.39983  -0.39475  -0.38350
  Beta  occ. eigenvalues --   -0.37340  -0.35773  -0.35208  -0.34552  -0.34227
  Beta  occ. eigenvalues --   -0.32814  -0.32169  -0.31146  -0.29064  -0.28641
  Beta  occ. eigenvalues --   -0.27549  -0.27343  -0.25834  -0.25417  -0.24763
  Beta  occ. eigenvalues --   -0.23773  -0.23598  -0.22600  -0.16799  -0.15801
  Beta  occ. eigenvalues --   -0.12575  -0.09568
  Beta virt. eigenvalues --    0.06506   0.07105   0.07353   0.08027   0.08526
  Beta virt. eigenvalues --    0.08983   0.09687   0.09970   0.10273   0.11020
  Beta virt. eigenvalues --    0.11218   0.12031   0.12368   0.12446   0.13103

 Mulliken charges and spin densities:
               1          2
     1  C    0.754476  -1.021027
     2  O   -0.227567   0.085435
     3  C    0.232098  -0.493073
     4  C   -0.053841  -0.370211
     5  N   -0.007585   0.036178
     6  C   -0.627965  -0.036282
     7  C    0.434052  -0.611930
     8  N    0.007510   0.082593
     9  C   -0.321043   0.107057
    10  C    0.702012  -1.130509
    11  N   -0.237875   0.149914
    12  C    0.194902  -0.780516
    13  C   -0.345544   0.167764
    14  H   -0.405613   0.543853
    15  H   -0.179371   0.304872
    16  H   -0.394147   0.528450
    17  H    0.113304   0.044450
    18  H   -0.197702   0.332253
    19  H   -0.154726   0.309407
    20  H   -0.050376   0.169639
    21  H    0.218904   0.029557
    22  H    0.011043   0.143431
    23  H   -0.065787   0.193627
    24  H   -0.039046   0.149660
    25  H    0.146704   0.013501
    26  H   -0.244145   0.415582
    27  H    0.037245   0.083337
    28  H   -0.002665   0.153107
    29  H   -0.311977   0.485421
    30  H    0.002383   0.227155
    31  H    0.003743   0.156924
    32  H   -0.269523   0.456438
    33  H    0.268045  -0.091600
    34  H    0.010077   0.165541
 Sum of Mulliken charges =  -1.00000   1.00000

 Dipole moment (field-independent basis, Debye):
    X=              0.6591    Y=              3.8957    Z=              0.8695  Tot=              4.0456
 Quadrupole moment (field-independent basis, Debye-Ang):
   XX=           -166.2535   YY=           -131.9319   ZZ=           -116.5252
   XY=             -3.9022   XZ=              4.0672   YZ=              0.6690

 Summary of Natural Population Analysis:

                                       Natural Population
                Natural  -----------------------------------------------
    Atom  No    Charge         Core      Valence    Rydberg      Total
 -----------------------------------------------------------------------
      C    1   -0.09560      0.99962     2.08664    0.00934     3.09560
      O    2   -0.30211      0.99988     3.29170    0.01053     4.30211
      C    3   -0.01083      0.99958     1.99886    0.01239     3.01083
      C    4   -0.09623      0.99962     2.08466    0.01194     3.09623
      N    5   -0.34654      0.99975     2.83532    0.01147     3.84654
      C    6   -0.08740      0.99962     2.07704    0.01074     3.08740
      C    7   -0.09538      0.99960     2.08532    0.01046     3.09538
      N    8   -0.29241      0.99973     2.77832    0.01436     3.79241
      C    9   -0.09195      0.99961     2.08036    0.01199     3.09195
      C   10   -0.09929      0.99962     2.08856    0.01111     3.09929
      N   11   -0.33825      0.99977     2.82496    0.01351     3.83825
      C   12   -0.09933      0.99962     2.08866    0.01105     3.09933
      C   13   -0.09359      0.99960     2.08097    0.01301     3.09359
      H   14    0.09293      0.00000     0.40562    0.00146     0.40707
      H   15    0.07704      0.00000     0.42139    0.00156     0.42296
      H   16    0.07896      0.00000     0.41878    0.00226     0.42104
      H   17    0.08025      0.00000     0.41814    0.00161     0.41975
      H   18    0.08209      0.00000     0.41635    0.00156     0.41791
      H   19    0.09049      0.00000     0.40828    0.00123     0.40951
      H   20    0.08170      0.00000     0.41643    0.00187     0.41830
      H   21    0.18246      0.00000     0.31191    0.00562     0.31754
      H   22    0.09115      0.00000     0.40751    0.00135     0.40885
      H   23    0.08885      0.00000     0.41008    0.00107     0.41115
      H   24    0.08780      0.00000     0.41071    0.00149     0.41220
      H   25    0.09423      0.00000     0.40427    0.00150     0.40577
      H   26    0.09338      0.00000     0.40511    0.00151     0.40662
      H   27    0.09543      0.00000     0.40337    0.00120     0.40457
      H   28    0.08778      0.00000     0.41090    0.00132     0.41222
      H   29    0.09585      0.00000     0.40288    0.00127     0.40415
      H   30    0.16867      0.00000     0.32849    0.00284     0.33133
      H   31    0.08749      0.00000     0.41129    0.00122     0.41251
      H   32    0.09613      0.00000     0.40280    0.00106     0.40387
      H   33    0.10380      0.00000     0.39427    0.00193     0.39620
      H   34    0.09244      0.00000     0.40577    0.00178     0.40756
 =======================================================================
   * Total *   -0.00000     12.99563    38.81573    0.18863    52.00000

 Normal termination of Gaussian 16 at Wed Dec  9 23:55:15 2020.
