 Gaussian 16, Revision A.03,

 -----------------------------------------------------------
 # opt freq B3LYP/6-31G(d) empiricaldispersion=gd3bj scf=xqc
 -----------------------------------------------------------

 ------------------------------
 CID_60097918_JID_5641_neutraal
 ------------------------------
 Symbolic Z-matrix:
 Charge =  0 Multiplicity = 1

 SCF Done:  E(RB3LYP) =  -629.428602207     A.U. after   16 cycles
 SCF Done:  E(RB3LYP) =  -629.432144397     A.U. after   12 cycles
 SCF Done:  E(RB3LYP) =  -629.432376752     A.U. after   12 cycles
 SCF Done:  E(RB3LYP) =  -629.432402768     A.U. after   10 cycles
 SCF Done:  E(RB3LYP) =  -629.432415010     A.U. after   10 cycles
 SCF Done:  E(RB3LYP) =  -629.432428736     A.U. after   10 cycles
 SCF Done:  E(RB3LYP) =  -629.432436517     A.U. after   10 cycles
 SCF Done:  E(RB3LYP) =  -629.432452419     A.U. after   10 cycles
 SCF Done:  E(RB3LYP) =  -629.432482494     A.U. after   10 cycles
 SCF Done:  E(RB3LYP) =  -629.432497302     A.U. after   10 cycles
 SCF Done:  E(RB3LYP) =  -629.432643346     A.U. after   10 cycles
 SCF Done:  E(RB3LYP) =  -629.432641549     A.U. after    9 cycles
 SCF Done:  E(RB3LYP) =  -629.432643950     A.U. after   10 cycles
 SCF Done:  E(RB3LYP) =  -629.432643976     A.U. after    7 cycles
 SCF Done:  E(RB3LYP) =  -629.432644021     A.U. after    7 cycles
 Optimization completed.
    -- Stationary point found.
 Normal termination of Gaussian 16 at Thu Dec 10 16:41:48 2020.

 --------------------------------------------------------------------
 #N Geom=AllCheck Guess=TCheck SCRF=Check GenChk RB3LYP/6-31G(d) Freq
 --------------------------------------------------------------------

 Structure from the checkpoint file:  "JID_5641.chk"
 ------------------------------
 CID_60097918_JID_5641_neutraal
 ------------------------------
 Charge =  0 Multiplicity = 1

 SCF Done:  E(RB3LYP) =  -629.432644021     A.U. after    1 cycles

  Exact polarizability: 208.620  -0.367 161.268   0.006   0.006  70.877
 Approx polarizability: 298.852   5.890 275.526   0.006   0.005 109.380

                      1                      2                      3
                      A                      A                      A
 Frequencies --     63.4795                74.6711                86.4097
 Red. masses --      1.0974                 3.8915                 1.6714
 Frc consts  --      0.0026                 0.0128                 0.0074
 IR Inten    --      0.3155                 2.5454                 2.4044

                      4                      5                      6
                      A                      A                      A
 Frequencies --    102.7787               109.4481               114.3847
 Red. masses --      1.0946                 8.8937                 1.4625
 Frc consts  --      0.0068                 0.0628                 0.0113
 IR Inten    --      0.3025                 3.8044                 0.5777

                      7                      8                      9
                      A                      A                      A
 Frequencies --    138.9885               177.0127               199.0653
 Red. masses --      2.3694                 1.2660                 3.3063
 Frc consts  --      0.0270                 0.0234                 0.0772
 IR Inten    --      0.1993                 0.0323                 0.2346

                     10                     11                     12
                      A                      A                      A
 Frequencies --    212.6140               244.8254               303.0163
 Red. masses --      2.9921                 3.0816                 2.6615
 Frc consts  --      0.0797                 0.1088                 0.1440
 IR Inten    --      2.6936                 0.0259                 0.6310

                     13                     14                     15
                      A                      A                      A
 Frequencies --    342.1408               345.4744               355.3607
 Red. masses --      2.6907                 5.0486                 3.5625
 Frc consts  --      0.1856                 0.3550                 0.2651
 IR Inten    --      0.1738                11.9663                 0.4441

                     16                     17                     18
                      A                      A                      A
 Frequencies --    379.5163               405.6771               415.2902
 Red. masses --      3.6152                 1.4301                 6.4505
 Frc consts  --      0.3068                 0.1387                 0.6555
 IR Inten    --     21.7071                38.6551                 0.2231

                     19                     20                     21
                      A                      A                      A
 Frequencies --    461.4179               529.1660               530.3537
 Red. masses --      5.6034                 4.8053                 4.8054
 Frc consts  --      0.7029                 0.7928                 0.7964
 IR Inten    --      1.9243                 0.0356                19.3848

                     22                     23                     24
                      A                      A                      A
 Frequencies --    549.1959               574.3901               589.6581
 Red. masses --      4.8519                 4.0545                 6.0210
 Frc consts  --      0.8622                 0.7881                 1.2334
 IR Inten    --      0.6764                 1.0934                 7.5064

                     25                     26                     27
                      A                      A                      A
 Frequencies --    651.6020               651.7979               691.7891
 Red. masses --      4.0013                 3.8371                 4.8124
 Frc consts  --      1.0010                 0.9605                 1.3569
 IR Inten    --      0.0790                 0.1063                 0.1072

                     28                     29                     30
                      A                      A                      A
 Frequencies --    746.9412               797.1425               825.1554
 Red. masses --      4.0802                 8.6706                 7.4108
 Frc consts  --      1.3412                 3.2462                 2.9729
 IR Inten    --      1.0105                 1.8866                 2.4904

                     31                     32                     33
                      A                      A                      A
 Frequencies --    921.9949               970.3120              1018.4263
 Red. masses --      3.2888                 2.0422                 1.5526
 Frc consts  --      1.6472                 1.1329                 0.9488
 IR Inten    --      5.9227                 0.6879                18.2135

                     34                     35                     36
                      A                      A                      A
 Frequencies --   1027.7020              1042.9088              1065.7077
 Red. masses --      1.5967                 1.3799                 1.5007
 Frc consts  --      0.9936                 0.8843                 1.0042
 IR Inten    --     11.1207                 3.4535                 0.0146

                     37                     38                     39
                      A                      A                      A
 Frequencies --   1074.3142              1082.1388              1101.1872
 Red. masses --      1.4734                 1.6214                 2.5991
 Frc consts  --      1.0019                 1.1187                 1.8569
 IR Inten    --      1.7054                 0.1334                 9.3079

                     40                     41                     42
                      A                      A                      A
 Frequencies --   1117.6267              1135.7094              1227.8440
 Red. masses --      1.9085                 3.5309                 4.2567
 Frc consts  --      1.4046                 2.6833                 3.7810
 IR Inten    --      7.1878                 0.3532                21.7440

                     43                     44                     45
                      A                      A                      A
 Frequencies --   1275.2918              1320.2168              1369.9407
 Red. masses --      3.3024                 4.1924                 3.7657
 Frc consts  --      3.1645                 4.3053                 4.1639
 IR Inten    --     14.6718                31.0085                 3.5156

                     46                     47                     48
                      A                      A                      A
 Frequencies --   1383.3610              1411.5569              1434.4268
 Red. masses --      5.2396                 4.8516                 1.4531
 Frc consts  --      5.9077                 5.6954                 1.7616
 IR Inten    --     15.6166                53.3807                12.5279

                     49                     50                     51
                      A                      A                      A
 Frequencies --   1443.0688              1446.6919              1452.3633
 Red. masses --      1.2566                 1.3163                 1.2401
 Frc consts  --      1.5418                 1.6231                 1.5412
 IR Inten    --      0.9200                 4.5567                 2.5358

                     52                     53                     54
                      A                      A                      A
 Frequencies --   1482.0695              1487.9384              1504.3844
 Red. masses --      2.8326                 1.5121                 1.0439
 Frc consts  --      3.6658                 1.9725                 1.3919
 IR Inten    --     80.7822                39.7896                 3.8748

                     55                     56                     57
                      A                      A                      A
 Frequencies --   1511.6703              1515.0595              1517.9477
 Red. masses --      1.0431                 1.0450                 1.1886
 Frc consts  --      1.4043                 1.4133                 1.6137
 IR Inten    --      9.2303                11.3603                 3.1832

                     58                     59                     60
                      A                      A                      A
 Frequencies --   1522.5683              1531.9220              1532.5606
 Red. masses --      1.2204                 1.0439                 1.1159
 Frc consts  --      1.6668                 1.4434                 1.5443
 IR Inten    --     11.9294                 4.8314                 7.3091

                     61                     62                     63
                      A                      A                      A
 Frequencies --   1541.7336              1610.5395              1619.1878
 Red. masses --      2.4167                 5.9245                 6.5203
 Frc consts  --      3.3845                 9.0541                10.0719
 IR Inten    --      1.7437                 3.0876                52.8239

                     64                     65                     66
                      A                      A                      A
 Frequencies --   1671.6475              2346.4967              3040.9076
 Red. masses --      6.3360                12.6581                 1.0407
 Frc consts  --     10.4317                41.0638                 5.6702
 IR Inten    --     16.9431                80.1929                21.3738

                     67                     68                     69
                      A                      A                      A
 Frequencies --   3043.6736              3045.6846              3053.9731
 Red. masses --      1.0396                 1.0411                 1.0368
 Frc consts  --      5.6744                 5.6898                 5.6974
 IR Inten    --     35.4317                38.8983                21.6132

                     70                     71                     72
                      A                      A                      A
 Frequencies --   3087.7477              3089.5859              3093.6594
 Red. masses --      1.0999                 1.1002                 1.1014
 Frc consts  --      6.1787                 6.1875                 6.2108
 IR Inten    --     27.5695                 9.8011                14.3255

                     73                     74                     75
                      A                      A                      A
 Frequencies --   3111.6251              3121.9505              3151.6941
 Red. masses --      1.1015                 1.1009                 1.0958
 Frc consts  --      6.2838                 6.3222                 6.4133
 IR Inten    --     10.8156                27.8464                20.7479

                     76                     77                     78
                      A                      A                      A
 Frequencies --   3155.1499              3163.9848              3659.7865
 Red. masses --      1.0982                 1.0983                 1.0794
 Frc consts  --      6.4412                 6.4778                 8.5183
 IR Inten    --      2.3962                 6.4188                53.9464

 - Thermochemistry -
 -------------------
 Temperature   298.150 Kelvin.  Pressure   1.00000 Atm.
 Atom     1 has atomic number  6 and mass  12.00000

 Molecular mass:   199.11095 amu.
 Principal axes and moments of inertia in atomic units:
                           1         2         3
     Eigenvalues --  1768.578533950.954015674.70175
           X            0.99927  -0.03825   0.00000
           Y            0.03825   0.99927   0.00000
           Z           -0.00000  -0.00000   1.00000
 This molecule is an asymmetric top.
 Rotational symmetry number  1.
 Warning -- assumption of classical behavior for rotation
           may cause significant error
 Rotational temperatures (Kelvin)      0.04897     0.02192     0.01526
 Rotational constants (GHZ):           1.02045     0.45679     0.31803
 Zero-point vibrational energy     599369.2 (Joules/Mol)
                                  143.25267 (Kcal/Mol)
 Warning -- explicit consideration of  24 degrees of freedom as
           vibrations may cause significant error
 Vibrational temperatures:     91.33   107.43   124.32   147.88   157.47
          (Kelvin)            164.57   199.97   254.68   286.41   305.90
                              352.25   435.97   492.26   497.06   511.28
                              546.04   583.68   597.51   663.88   761.35
                              763.06   790.17   826.42   848.39   937.51
                              937.79   995.33  1074.68  1146.91  1187.21
                             1326.55  1396.06  1465.29  1478.63  1500.51
                             1533.32  1545.70  1556.96  1584.36  1608.02
                             1634.03  1766.59  1834.86  1899.50  1971.04
                             1990.35  2030.92  2063.82  2076.25  2081.47
                             2089.63  2132.37  2140.81  2164.47  2174.96
                             2179.83  2183.99  2190.64  2204.09  2205.01
                             2218.21  2317.21  2329.65  2405.13  3376.09
                             4375.19  4379.17  4382.06  4393.99  4442.58
                             4445.23  4451.09  4476.93  4491.79  4534.58
                             4539.56  4552.27  5265.62

 Zero-point correction=                           0.228288 (Hartree/Particle)
 Thermal correction to Energy=                    0.243223
 Thermal correction to Enthalpy=                  0.244167
 Thermal correction to Gibbs Free Energy=         0.186632
 Sum of electronic and zero-point Energies=           -629.204356
 Sum of electronic and thermal Energies=              -629.189421
 Sum of electronic and thermal Enthalpies=            -629.188477
 Sum of electronic and thermal Free Energies=         -629.246012

                     E (Thermal)             CV                S
                      KCal/Mol        Cal/Mol-Kelvin    Cal/Mol-Kelvin
 Total                  152.625             55.070            121.094
 Electronic               0.000              0.000              0.000
 Translational            0.889              2.981             41.771
 Rotational               0.889              2.981             32.050
 Vibrational            150.847             49.108             47.273
 Vibration     1          0.597              1.972              4.346
 Vibration     2          0.599              1.966              4.026
 Vibration     3          0.601              1.959              3.740
 Vibration     4          0.605              1.947              3.401
 Vibration     5          0.606              1.942              3.279
 Vibration     6          0.607              1.938              3.193
 Vibration     7          0.615              1.914              2.818
 Vibration     8          0.628              1.871              2.360
 Vibration     9          0.637              1.841              2.142
 Vibration    10          0.644              1.822              2.021
 Vibration    11          0.660              1.771              1.768
 Vibration    12          0.694              1.668              1.400
 Vibration    13          0.721              1.591              1.202
 Vibration    14          0.724              1.584              1.187
 Vibration    15          0.731              1.564              1.142
 Vibration    16          0.750              1.514              1.041
 Vibration    17          0.771              1.458              0.942
 Vibration    18          0.779              1.437              0.908
 Vibration    19          0.819              1.336              0.762
 Vibration    20          0.884              1.185              0.589
 Vibration    21          0.885              1.183              0.586
 Vibration    22          0.904              1.141              0.546
 Vibration    23          0.931              1.087              0.496
 Vibration    24          0.947              1.054              0.468

                           ! Non-Optimized Parameters !
 Normal termination of Gaussian 16 at Thu Dec 10 16:50:38 2020.

 ----------------------------------------------------------------------
 # B3LYP/6-311++G(d,p) empiricaldispersion=gd3bj scf=xqc pop=npa geom=c
 heck
 ----------------------------------------------------------------------

 --------------------------------------
 CID_60097918_JID_5641_Energie_neutraal
 --------------------------------------
 Structure from the checkpoint file:  "JID_5641.chk"
 Charge =  0 Multiplicity = 1

 SCF Done:  E(RB3LYP) =  -629.595119116     A.U. after   16 cycles
 Normal termination of Gaussian 16 at Thu Dec 10 16:55:31 2020.

 ----------------------------------------------------------------------
 # B3LYP/6-311++G(d,p) empiricaldispersion=gd3bj scf=xqc pop=npa geom=c
 heck
 ----------------------------------------------------------------------

 ------------------------------------
 CID_60097918_JID_5641_Energie_kation
 ------------------------------------
 Structure from the checkpoint file:  "JID_5641.chk"
 Charge =  1 Multiplicity = 2

 SCF Done:  E(UB3LYP) =  -629.305058573     A.U. after   24 cycles
 Normal termination of Gaussian 16 at Thu Dec 10 17:04:48 2020.
 Gaussian 16:  ES64L-G16RevA.03 25-Dec-2016

 ----------------------------------------------------------------------
 # B3LYP/6-311++G(d,p) empiricaldispersion=gd3bj scf=xqc pop=npa geom=c
 heck
 ----------------------------------------------------------------------

 -----------------------------------
 CID_60097918_JID_5641_Energie_anion
 -----------------------------------
 Structure from the checkpoint file:  "JID_5641.chk"
 Charge = -1 Multiplicity = 2

                         Standard orientation:
 ---------------------------------------------------------------------
 Center     Atomic      Atomic             Coordinates (Angstroms)
 Number     Number       Type             X           Y           Z
 ---------------------------------------------------------------------
      1          6           0       -3.741668   -0.252033   -0.000322
      2          6           0       -2.243217   -0.069670    0.000017
      3          6           0       -1.375328   -1.170987    0.000152
      4          6           0       -0.013259   -0.861090   -0.000018
      5          6           0        0.427619    0.482438    0.000052
      6          6           0        1.873122    0.447693    0.000003
      7          6           0        2.254363   -0.886176   -0.000126
      8          7           0        1.118930   -1.663269    0.000112
      9          6           0        3.620653   -1.480116   -0.000152
     10          6           0        2.768129    1.543874    0.000073
     11          7           0        3.528941    2.425691    0.000033
     12          7           0       -0.403608    1.530160    0.000155
     13          6           0       -1.710210    1.251969    0.000070
     14          6           0       -2.634313    2.443710   -0.000024
     15          6           0       -1.855335   -2.602004    0.000299
     16          1           0       -4.032441   -1.304165   -0.000389
     17          1           0       -4.200547    0.216737   -0.879747
     18          1           0       -4.201047    0.216866    0.878771
     19          1           0        1.126201   -2.671571   -0.001426
     20          1           0        3.787223   -2.104005    0.886982
     21          1           0        3.785912   -2.107017   -0.885399
     22          1           0        4.368870   -0.684314   -0.002020
     23          1           0       -3.288904    2.450432    0.880922
     24          1           0       -2.036535    3.356568    0.000249
     25          1           0       -3.288401    2.450647   -0.881345
     26          1           0       -1.021315   -3.310619    0.003693
     27          1           0       -2.468676   -2.820647    0.881493
     28          1           0       -2.463502   -2.822635   -0.884028
 ---------------------------------------------------------------------

 SCF Done:  E(UB3LYP) =  -629.587523755     A.U. after   33 cycles
 SCF Done:  E(UB3LYP) =  -629.587523755     a.u. after    1 cycles

 The electronic state is 2-A.
 Alpha  occ. eigenvalues --  -14.22541 -14.15602 -14.13766 -10.06626 -10.06233
 Alpha  occ. eigenvalues --  -10.06206 -10.06132 -10.05759 -10.05720 -10.05420
 Alpha  occ. eigenvalues --  -10.05270 -10.03942 -10.03809 -10.03648 -10.03267
 Alpha  occ. eigenvalues --   -0.85372  -0.78493  -0.75534  -0.69204  -0.65349
 Alpha  occ. eigenvalues --   -0.65203  -0.61563  -0.59091  -0.57389  -0.53152
 Alpha  occ. eigenvalues --   -0.50141  -0.46257  -0.44959  -0.39283  -0.36041
 Alpha  occ. eigenvalues --   -0.35335  -0.34793  -0.33038  -0.31848  -0.30431
 Alpha  occ. eigenvalues --   -0.30131  -0.29357  -0.28226  -0.27771  -0.27515
 Alpha  occ. eigenvalues --   -0.27315  -0.26443  -0.25591  -0.24277  -0.22530
 Alpha  occ. eigenvalues --   -0.22096  -0.21681  -0.20960  -0.18347  -0.14417
 Alpha  occ. eigenvalues --   -0.10805  -0.09466  -0.08327   0.05955
 Alpha virt. eigenvalues --    0.06824   0.07754   0.08722   0.10199   0.10256
 Alpha virt. eigenvalues --    0.10591   0.11434   0.12087   0.12916   0.13265
 Alpha virt. eigenvalues --    0.13303   0.13554   0.14176   0.15139   0.15301

  Beta  occ. eigenvalues --  -14.22506 -14.15559 -14.13379 -10.06710 -10.06183
  Beta  occ. eigenvalues --  -10.06160 -10.05810 -10.05691 -10.05633 -10.05401
  Beta  occ. eigenvalues --  -10.05280 -10.03947 -10.03821 -10.03282 -10.03174
  Beta  occ. eigenvalues --   -0.85098  -0.78000  -0.75459  -0.68743  -0.65166
  Beta  occ. eigenvalues --   -0.64778  -0.61335  -0.59028  -0.57278  -0.53015
  Beta  occ. eigenvalues --   -0.49874  -0.46132  -0.44427  -0.39072  -0.35855
  Beta  occ. eigenvalues --   -0.35160  -0.34560  -0.32464  -0.31260  -0.30197
  Beta  occ. eigenvalues --   -0.29924  -0.29285  -0.28096  -0.27711  -0.27450
  Beta  occ. eigenvalues --   -0.27030  -0.26371  -0.25400  -0.24119  -0.22412
  Beta  occ. eigenvalues --   -0.22011  -0.21408  -0.19861  -0.18272  -0.13132
  Beta  occ. eigenvalues --   -0.10385  -0.08571  -0.06793
  Beta virt. eigenvalues --    0.06773   0.07771   0.08709   0.10058   0.10121
  Beta virt. eigenvalues --    0.10760   0.11336   0.11701   0.12763   0.13010
  Beta virt. eigenvalues --    0.13144   0.13483   0.13922   0.14973   0.15042

 Mulliken charges and spin densities:
               1          2
     1  C   -0.453989  -0.007566
     2  C    0.130039   0.104084
     3  C    0.344498   0.160845
     4  C   -0.619662  -0.042880
     5  C   -0.113336  -0.012465
     6  C    1.970312   0.068033
     7  C   -0.426589   0.260414
     8  N   -0.057695   0.033200
     9  C   -0.303833  -0.087136
    10  C   -1.633152   0.007572
    11  N   -0.300433   0.021828
    12  N    0.034796   0.180136
    13  C   -0.211561  -0.017011
    14  C   -0.532628   0.004479
    15  C   -0.413399  -0.026828
    16  H    0.135201   0.000047
    17  H    0.123522   0.005702
    18  H    0.123662   0.005551
    19  H    0.253580  -0.001641
    20  H    0.029598   0.118221
    21  H    0.029830   0.117515
    22  H    0.188556   0.001047
    23  H    0.113549   0.004041
    24  H    0.168101  -0.001624
    25  H    0.113292   0.004318
    26  H    0.093573   0.000434
    27  H    0.107118   0.049519
    28  H    0.107052   0.050164
 Sum of Mulliken charges =  -1.00000   1.00000

 Dipole moment (field-independent basis, Debye):
    X=             -5.4036    Y=             -6.0815    Z=             -0.0012  Tot=              8.1354
 Quadrupole moment (field-independent basis, Debye-Ang):
   XX=           -135.7949   YY=           -117.8784   ZZ=           -100.2645
   XY=            -14.8695   XZ=             -0.0240   YZ=              0.0045

 Summary of Natural Population Analysis:

                                       Natural Population
                Natural  -----------------------------------------------
    Atom  No    Charge         Core      Valence    Rydberg      Total
 -----------------------------------------------------------------------
      C    1   -0.28650      0.99966     2.28338    0.00347     3.28650
      C    2   -0.03605      0.99947     2.02799    0.00859     3.03605
      C    3    0.01638      0.99949     1.96885    0.01529     2.98362
      C    4    0.10939      0.99942     1.87834    0.01285     2.89061
      C    5    0.07895      0.99950     1.90354    0.01801     2.92105
      C    6   -0.15730      0.99933     2.14730    0.01066     3.15730
      C    7    0.22414      0.99954     1.76404    0.01229     2.77586
      N    8   -0.28729      0.99966     2.77406    0.01356     3.78729
      C    9   -0.30959      0.99964     2.30556    0.00439     3.30959
      C   10    0.17016      0.99964     1.81257    0.01763     2.82984
      N   11   -0.21741      0.99979     2.70647    0.01116     3.71741
      N   12   -0.19609      0.99965     2.68406    0.01239     3.69609
      C   13    0.10106      0.99953     1.88508    0.01433     2.89894
      C   14   -0.29769      0.99964     2.29328    0.00477     3.29769
      C   15   -0.29715      0.99965     2.29177    0.00574     3.29715
      H   16    0.09547      0.00000     0.40364    0.00089     0.40453
      H   17    0.09592      0.00000     0.40254    0.00154     0.40408
      H   18    0.09590      0.00000     0.40256    0.00154     0.40410
      H   19    0.19147      0.00000     0.30660    0.00192     0.30853
      H   20    0.10368      0.00000     0.39499    0.00133     0.39632
      H   21    0.10361      0.00000     0.39506    0.00133     0.39639
      H   22    0.11175      0.00000     0.38772    0.00053     0.38825
      H   23    0.09332      0.00000     0.40558    0.00110     0.40668
      H   24    0.10823      0.00000     0.39072    0.00105     0.39177
      H   25    0.09333      0.00000     0.40556    0.00110     0.40667
      H   26    0.09240      0.00000     0.40677    0.00083     0.40760
      H   27    0.10249      0.00000     0.39662    0.00088     0.39751
      H   28    0.10252      0.00000     0.39660    0.00088     0.39748
 =======================================================================
   * Total *    0.00510     14.99362    37.82124    0.18005    52.99490

 Normal termination of Gaussian 16 at Thu Dec 10 17:18:10 2020.
