 Gaussian 16, Revision A.03,

 -----------------------------------------------------------
 # opt freq B3LYP/6-31G(d) empiricaldispersion=gd3bj scf=xqc
 -----------------------------------------------------------

 -------------------------------
 CID_107440834_JID_4032_neutraal
 -------------------------------
 Symbolic Z-matrix:
 Charge =  0 Multiplicity = 1

 SCF Done:  E(RB3LYP) =  -661.666079926     A.U. after   14 cycles
 SCF Done:  E(RB3LYP) =  -661.670546987     A.U. after   12 cycles
 SCF Done:  E(RB3LYP) =  -661.671580397     A.U. after   13 cycles
 SCF Done:  E(RB3LYP) =  -661.672733484     A.U. after   13 cycles
 SCF Done:  E(RB3LYP) =  -661.673210184     A.U. after   12 cycles
 SCF Done:  E(RB3LYP) =  -661.673448734     A.U. after   11 cycles
 SCF Done:  E(RB3LYP) =  -661.673538735     A.U. after   11 cycles
 SCF Done:  E(RB3LYP) =  -661.673560463     A.U. after   10 cycles
 SCF Done:  E(RB3LYP) =  -661.673568590     A.U. after    9 cycles
 SCF Done:  E(RB3LYP) =  -661.673572474     A.U. after    9 cycles
 SCF Done:  E(RB3LYP) =  -661.673574057     A.U. after    7 cycles
 SCF Done:  E(RB3LYP) =  -661.673574123     A.U. after    7 cycles
 SCF Done:  E(RB3LYP) =  -661.673574214     A.U. after    7 cycles
 SCF Done:  E(RB3LYP) =  -661.673574263     A.U. after    7 cycles
 SCF Done:  E(RB3LYP) =  -661.673574303     A.U. after    7 cycles
 Optimization completed.
    -- Stationary point found.
 Normal termination of Gaussian 16 at Thu Dec 10 09:16:00 2020.

 --------------------------------------------------------------------
 #N Geom=AllCheck Guess=TCheck SCRF=Check GenChk RB3LYP/6-31G(d) Freq
 --------------------------------------------------------------------

 Structure from the checkpoint file:  "JID_4032.chk"
 -------------------------------
 CID_107440834_JID_4032_neutraal
 -------------------------------
 Charge =  0 Multiplicity = 1

 SCF Done:  E(RB3LYP) =  -661.673574303     A.U. after    1 cycles

  Exact polarizability: 163.390  -5.364  95.650   9.307   1.256  83.731
 Approx polarizability: 190.911  -7.510 161.902  17.122   5.522 134.682

                      1                      2                      3
                      A                      A                      A
 Frequencies --     23.1352                38.4452                42.8698
 Red. masses --      4.1531                 3.6818                 4.6340
 Frc consts  --      0.0013                 0.0032                 0.0050
 IR Inten    --      0.6680                 0.0339                 9.5250

                      4                      5                      6
                      A                      A                      A
 Frequencies --     50.6269                90.5286               104.8449
 Red. masses --      5.2893                 3.7540                 1.3648
 Frc consts  --      0.0080                 0.0181                 0.0088
 IR Inten    --      1.3873                 3.4816               222.1019

                      7                      8                      9
                      A                      A                      A
 Frequencies --    116.1605               165.6683               200.9136
 Red. masses --      3.8698                 2.9103                 3.9948
 Frc consts  --      0.0308                 0.0471                 0.0950
 IR Inten    --      7.7916                 7.5678                 2.1604

                     10                     11                     12
                      A                      A                      A
 Frequencies --    254.9333               270.1017               293.8434
 Red. masses --      2.8228                 3.5747                 4.1838
 Frc consts  --      0.1081                 0.1537                 0.2128
 IR Inten    --     10.9519                 1.2616                13.3981

                     13                     14                     15
                      A                      A                      A
 Frequencies --    359.5930               425.5868               451.8677
 Red. masses --      2.8515                 4.4519                 3.7145
 Frc consts  --      0.2172                 0.4751                 0.4469
 IR Inten    --      0.3725                 0.5353                 1.2668

                     16                     17                     18
                      A                      A                      A
 Frequencies --    491.8929               524.1070               588.3755
 Red. masses --      1.6035                 4.0440                 1.7858
 Frc consts  --      0.2286                 0.6545                 0.3642
 IR Inten    --      5.7569                31.3201                49.8426

                     19                     20                     21
                      A                      A                      A
 Frequencies --    626.9086               659.4116               675.9951
 Red. masses --      2.1939                 2.1560                 2.3550
 Frc consts  --      0.5080                 0.5523                 0.6341
 IR Inten    --      2.8894                10.4332                 9.6178

                     22                     23                     24
                      A                      A                      A
 Frequencies --    705.3160               767.3019               777.6844
 Red. masses --      1.9622                 4.3474                 2.8721
 Frc consts  --      0.5751                 1.5080                 1.0234
 IR Inten    --     32.4301                 8.0414                 4.2287

                     25                     26                     27
                      A                      A                      A
 Frequencies --    803.1377               807.8537               833.0354
 Red. masses --      2.2018                 1.1712                 1.7398
 Frc consts  --      0.8368                 0.4504                 0.7114
 IR Inten    --     40.1667                 1.8747                12.0310

                     28                     29                     30
                      A                      A                      A
 Frequencies --    876.4518               922.9703               926.7062
 Red. masses --      1.7639                 3.5242                 2.8780
 Frc consts  --      0.7983                 1.7688                 1.4562
 IR Inten    --     65.4666                 7.7686                 0.1289

                     31                     32                     33
                      A                      A                      A
 Frequencies --    964.2962              1006.0301              1022.3246
 Red. masses --      2.4808                 2.1814                 4.6532
 Frc consts  --      1.3592                 1.3008                 2.8653
 IR Inten    --     15.9525                 8.6233                30.6615

                     34                     35                     36
                      A                      A                      A
 Frequencies --   1069.1783              1081.4198              1089.1809
 Red. masses --      1.3867                 4.6103                 1.3514
 Frc consts  --      0.9340                 3.1766                 0.9446
 IR Inten    --     17.5095                25.4019                 3.0437

                     37                     38                     39
                      A                      A                      A
 Frequencies --   1089.2109              1089.6514              1124.8617
 Red. masses --      1.5043                 1.9094                 1.9833
 Frc consts  --      1.0515                 1.3358                 1.4786
 IR Inten    --      3.7813                 1.1769                19.4297

                     40                     41                     42
                      A                      A                      A
 Frequencies --   1140.6566              1173.0576              1185.5053
 Red. masses --      1.0900                 3.0808                 3.1815
 Frc consts  --      0.8356                 2.4978                 2.6344
 IR Inten    --      1.3980                10.0938                40.7621

                     43                     44                     45
                      A                      A                      A
 Frequencies --   1219.6751              1232.1563              1234.1942
 Red. masses --      1.3789                 2.2720                 1.2121
 Frc consts  --      1.2085                 2.0323                 1.0878
 IR Inten    --      0.4343                 0.4307                 2.7873

                     46                     47                     48
                      A                      A                      A
 Frequencies --   1261.4167              1311.9594              1320.7069
 Red. masses --      2.6330                 1.5052                 1.7053
 Frc consts  --      2.4684                 1.5265                 1.7525
 IR Inten    --    104.4600                39.6809               107.1013

                     49                     50                     51
                      A                      A                      A
 Frequencies --   1330.7702              1374.9294              1413.4659
 Red. masses --      1.7614                 1.6164                 2.0949
 Frc consts  --      1.8379                 1.8003                 2.4660
 IR Inten    --      1.3985                17.7112                53.3783

                     52                     53                     54
                      A                      A                      A
 Frequencies --   1441.7372              1487.2101              1488.1157
 Red. masses --      2.2972                 1.0886                 2.0264
 Frc consts  --      2.8133                 1.4186                 2.6439
 IR Inten    --      1.7454                 1.2982                39.9423

                     55                     56                     57
                      A                      A                      A
 Frequencies --   1495.7533              1525.9925              1532.0195
 Red. masses --      1.2978                 1.2916                 1.3445
 Frc consts  --      1.7107                 1.7720                 1.8592
 IR Inten    --     19.4387                 1.1087                25.2720

                     58                     59                     60
                      A                      A                      A
 Frequencies --   1536.4550              1549.3223              1597.2499
 Red. masses --      1.1831                 7.4119                 5.3128
 Frc consts  --      1.6455                10.4824                 7.9859
 IR Inten    --     13.8505                80.2324                38.3363

                     61                     62                     63
                      A                      A                      A
 Frequencies --   1645.3734              1804.7609              3030.7610
 Red. masses --      1.2538                 9.0980                 1.0578
 Frc consts  --      1.9999                17.4596                 5.7250
 IR Inten    --    104.0829               266.4933                20.0198

                     64                     65                     66
                      A                      A                      A
 Frequencies --   3041.9330              3066.5278              3087.3935
 Red. masses --      1.0617                 1.1044                 1.1020
 Frc consts  --      5.7881                 6.1190                 6.1889
 IR Inten    --     34.2559                15.5563                20.3382

                     67                     68                     69
                      A                      A                      A
 Frequencies --   3150.0279              3153.1020              3200.7120
 Red. masses --      1.0505                 1.0582                 1.0905
 Frc consts  --      6.1415                 6.1988                 6.5819
 IR Inten    --     21.2044                14.9672                 4.0506

                     70                     71                     72
                      A                      A                      A
 Frequencies --   3231.3840              3245.7563              3472.9532
 Red. masses --      1.1200                 1.1160                 1.0727
 Frc consts  --      6.8902                 6.9268                 7.6228
 IR Inten    --      0.3548                18.9658                 7.1160

                     73                     74                     75
                      A                      A                      A
 Frequencies --   3591.0650              3660.4941              3717.1294
 Red. masses --      1.0450                 1.0813                 1.1052
 Frc consts  --      7.9401                 8.5362                 8.9971
 IR Inten    --     39.8540                75.3527                34.0732

 - Thermochemistry -
 -------------------
 Temperature   298.150 Kelvin.  Pressure   1.00000 Atm.
 Atom     1 has atomic number  6 and mass  12.00000

 Molecular mass:   195.11201 amu.
 Principal axes and moments of inertia in atomic units:
                           1         2         3
     Eigenvalues --   636.330277866.941468074.42592
           X            0.99996  -0.00641   0.00578
           Y            0.00633   0.99989   0.01305
           Z           -0.00587  -0.01301   0.99990
 This molecule is an asymmetric top.
 Rotational symmetry number  1.
 Warning -- assumption of classical behavior for rotation
           may cause significant error
 Rotational temperatures (Kelvin)      0.13611     0.01101     0.01073
 Rotational constants (GHZ):           2.83617     0.22941     0.22351
 Zero-point vibrational energy     588348.2 (Joules/Mol)
                                  140.61860 (Kcal/Mol)
 Warning -- explicit consideration of  18 degrees of freedom as
           vibrations may cause significant error
 Vibrational temperatures:     33.29    55.31    61.68    72.84   130.25
          (Kelvin)            150.85   167.13   238.36   289.07   366.79
                              388.62   422.78   517.37   612.32   650.14
                              707.72   754.07   846.54   901.98   948.75
                              972.61  1014.79  1103.98  1118.91  1155.54
                             1162.32  1198.55  1261.02  1327.95  1333.32
                             1387.41  1447.45  1470.90  1538.31  1555.92
                             1567.09  1567.13  1567.77  1618.43  1641.15
                             1687.77  1705.68  1754.84  1772.80  1775.73
                             1814.90  1887.62  1900.20  1914.68  1978.22
                             2033.66  2074.34  2139.76  2141.07  2152.06
                             2195.56  2204.23  2210.62  2229.13  2298.09
                             2367.33  2596.65  4360.59  4376.66  4412.05
                             4442.07  4532.19  4536.61  4605.11  4649.24
                             4669.92  4996.81  5166.74  5266.63  5348.12

 Zero-point correction=                           0.224090 (Hartree/Particle)
 Thermal correction to Energy=                    0.238122
 Thermal correction to Enthalpy=                  0.239066
 Thermal correction to Gibbs Free Energy=         0.180399
 Sum of electronic and zero-point Energies=           -661.449484
 Sum of electronic and thermal Energies=              -661.435452
 Sum of electronic and thermal Enthalpies=            -661.434508
 Sum of electronic and thermal Free Energies=         -661.493175

                     E (Thermal)             CV                S
                      KCal/Mol        Cal/Mol-Kelvin    Cal/Mol-Kelvin
 Total                  149.424             50.413            123.476
 Electronic               0.000              0.000              0.000
 Translational            0.889              2.981             41.710
 Rotational               0.889              2.981             32.069
 Vibrational            147.647             44.451             49.697
 Vibration     1          0.593              1.985              6.345
 Vibration     2          0.594              1.982              5.338
 Vibration     3          0.595              1.980              5.122
 Vibration     4          0.595              1.977              4.793
 Vibration     5          0.602              1.956              3.649
 Vibration     6          0.605              1.945              3.362
 Vibration     7          0.608              1.936              3.163
 Vibration     8          0.624              1.885              2.484
 Vibration     9          0.638              1.839              2.125
 Vibration    10          0.665              1.754              1.696
 Vibration    11          0.674              1.728              1.596
 Vibration    12          0.689              1.685              1.452
 Vibration    13          0.734              1.556              1.124
 Vibration    14          0.787              1.415              0.873
 Vibration    15          0.811              1.357              0.790
 Vibration    16          0.848              1.268              0.679
 Vibration    17          0.879              1.197              0.601
 Vibration    18          0.946              1.057              0.470

                           ! Non-Optimized Parameters !
 Normal termination of Gaussian 16 at Thu Dec 10 09:21:31 2020.

 ----------------------------------------------------------------------
 # B3LYP/6-311++G(d,p) empiricaldispersion=gd3bj scf=xqc pop=npa geom=c
 heck
 ----------------------------------------------------------------------

 ---------------------------------------
 CID_107440834_JID_4032_Energie_neutraal
 ---------------------------------------
 Structure from the checkpoint file:  "JID_4032.chk"
 Charge =  0 Multiplicity = 1

 SCF Done:  E(RB3LYP) =  -661.871813306     A.U. after   14 cycles
 Normal termination of Gaussian 16 at Thu Dec 10 09:23:47 2020.

 ----------------------------------------------------------------------
 # B3LYP/6-311++G(d,p) empiricaldispersion=gd3bj scf=xqc pop=npa geom=c
 heck
 ----------------------------------------------------------------------

 -------------------------------------
 CID_107440834_JID_4032_Energie_kation
 -------------------------------------
 Structure from the checkpoint file:  "JID_4032.chk"
 Charge =  1 Multiplicity = 2

 SCF Done:  E(UB3LYP) =  -661.567708739     A.U. after   24 cycles
 Normal termination of Gaussian 16 at Thu Dec 10 09:29:42 2020.
 Gaussian 16:  ES64L-G16RevA.03 25-Dec-2016

 ----------------------------------------------------------------------
 # B3LYP/6-311++G(d,p) empiricaldispersion=gd3bj scf=xqc pop=npa geom=c
 heck
 ----------------------------------------------------------------------

 ------------------------------------
 CID_107440834_JID_4032_Energie_anion
 ------------------------------------
 Structure from the checkpoint file:  "JID_4032.chk"
 Charge = -1 Multiplicity = 2

                         Standard orientation:
 ---------------------------------------------------------------------
 Center     Atomic      Atomic             Coordinates (Angstroms)
 Number     Number       Type             X           Y           Z
 ---------------------------------------------------------------------
      1          6           0        4.983382    0.086960   -0.520472
      2          6           0        4.807897   -0.495517    0.850523
      3          6           0        3.776833   -0.783222   -0.223962
      4          6           0        2.436840   -0.173625   -0.136540
      5          7           0        2.222470    1.044038    0.358357
      6          7           0        0.873959    1.165562    0.231877
      7          6           0        0.341078    0.050106   -0.307572
      8          7           0        1.304706   -0.825050   -0.556025
      9          6           0       -1.121033   -0.085549   -0.589561
     10          7           0       -1.874941    0.827101    0.282457
     11          6           0       -3.271674    0.948988   -0.096585
     12          6           0       -4.086239   -0.322449    0.200198
     13          8           0       -3.695050   -1.147993    1.013671
     14          7           0       -5.268373   -0.435284   -0.465853
     15          1           0        5.754054   -0.322583   -1.167528
     16          1           0        4.791970    1.148158   -0.646812
     17          1           0        5.456112   -1.311091    1.158621
     18          1           0        4.498232    0.173101    1.647833
     19          1           0        3.760241   -1.780870   -0.649672
     20          1           0        0.377789    1.987852    0.543595
     21          1           0       -1.315167    0.208622   -1.630234
     22          1           0       -1.411187   -1.140326   -0.492177
     23          1           0       -1.860886    0.429369    1.222773
     24          1           0       -3.725061    1.772605    0.471647
     25          1           0       -3.338545    1.220066   -1.157275
     26          1           0       -5.572208    0.239667   -1.150999
     27          1           0       -5.862202   -1.229346   -0.271005
 ---------------------------------------------------------------------

 SCF Done:  E(UB3LYP) =  -661.867489275     A.U. after   33 cycles
 SCF Done:  E(UB3LYP) =  -661.867489275     a.u. after    1 cycles

 The electronic state is 2-A.
 Alpha  occ. eigenvalues --  -18.98862 -14.30197 -14.24763 -14.22255 -14.21627
 Alpha  occ. eigenvalues --  -14.21490 -10.16995 -10.15437 -10.14056 -10.11727
 Alpha  occ. eigenvalues --  -10.11242 -10.10501 -10.10473 -10.10190  -0.98803
 Alpha  occ. eigenvalues --   -0.93856  -0.82676  -0.81035  -0.79796  -0.79424
 Alpha  occ. eigenvalues --   -0.74090  -0.64107  -0.58908  -0.57427  -0.53328
 Alpha  occ. eigenvalues --   -0.52894  -0.48403  -0.47893  -0.46263  -0.43666
 Alpha  occ. eigenvalues --   -0.41678  -0.40279  -0.39097  -0.38313  -0.37677
 Alpha  occ. eigenvalues --   -0.35460  -0.34224  -0.31946  -0.30740  -0.30363
 Alpha  occ. eigenvalues --   -0.29949  -0.29200  -0.26259  -0.25471  -0.24809
 Alpha  occ. eigenvalues --   -0.23343  -0.20324  -0.19604  -0.17291  -0.16962
 Alpha  occ. eigenvalues --   -0.16175  -0.14668   0.04264
 Alpha virt. eigenvalues --    0.05526   0.07227   0.07526   0.08081   0.08343
 Alpha virt. eigenvalues --    0.08930   0.09222   0.10514   0.10727   0.10910
 Alpha virt. eigenvalues --    0.11760   0.12067   0.12518   0.13088   0.13426

  Beta  occ. eigenvalues --  -18.98855 -14.30186 -14.24755 -14.22147 -14.21618
  Beta  occ. eigenvalues --  -14.21489 -10.16992 -10.15428 -10.14056 -10.11713
  Beta  occ. eigenvalues --  -10.11242 -10.10499 -10.10472 -10.10129  -0.98792
  Beta  occ. eigenvalues --   -0.93832  -0.82655  -0.81026  -0.79656  -0.79416
  Beta  occ. eigenvalues --   -0.74071  -0.64047  -0.58881  -0.57353  -0.53324
  Beta  occ. eigenvalues --   -0.52877  -0.48319  -0.47805  -0.46246  -0.43567
  Beta  occ. eigenvalues --   -0.41658  -0.40256  -0.39066  -0.38274  -0.37630
  Beta  occ. eigenvalues --   -0.35424  -0.34166  -0.31916  -0.30710  -0.30348
  Beta  occ. eigenvalues --   -0.29941  -0.29142  -0.26211  -0.25463  -0.24795
  Beta  occ. eigenvalues --   -0.23339  -0.20306  -0.19599  -0.17274  -0.16882
  Beta  occ. eigenvalues --   -0.16145  -0.14637
  Beta virt. eigenvalues --    0.05468   0.07169   0.07450   0.07897   0.08541
  Beta virt. eigenvalues --    0.08664   0.09179   0.10012   0.10855   0.10910
  Beta virt. eigenvalues --    0.11324   0.11842   0.12447   0.12902   0.13249

 Mulliken charges and spin densities:
               1          2
     1  C   -0.380143  -0.088625
     2  C   -0.411705  -0.051257
     3  C    0.392823  -0.029091
     4  C   -0.377133  -0.157249
     5  N   -0.121291   0.125400
     6  N   -0.191227  -0.150550
     7  C    0.101958   0.276862
     8  N   -0.121251   0.005517
     9  C   -0.139877  -0.375714
    10  N   -0.353534   0.252684
    11  C    2.227459  -2.716288
    12  C   -0.039505   0.141771
    13  O   -0.353389  -0.030493
    14  N   -0.313510   0.055351
    15  H    0.111251   0.020813
    16  H    0.134883   0.023116
    17  H    0.120211   0.015283
    18  H    0.142372   0.012491
    19  H    0.214170   0.040399
    20  H    0.224179   0.126963
    21  H   -0.100912   0.297828
    22  H    0.189924   0.015720
    23  H    0.266550  -0.029338
    24  H   -0.610140   0.825955
    25  H   -0.564071   0.769797
    26  H   -0.576382   0.858778
    27  H   -0.471710   0.763875
 Sum of Mulliken charges =  -1.00000   1.00000

 Dipole moment (field-independent basis, Debye):
    X=             16.1062    Y=             -1.1067    Z=              3.0950  Tot=             16.4381
 Quadrupole moment (field-independent basis, Debye-Ang):
   XX=           -211.2355   YY=           -114.8680   ZZ=           -112.4494
   XY=              1.8041   XZ=            -16.9018   YZ=              4.1519

 Summary of Natural Population Analysis:

                                       Natural Population
                Natural  -----------------------------------------------
    Atom  No    Charge         Core      Valence    Rydberg      Total
 -----------------------------------------------------------------------
      C    1   -0.19182      0.99964     2.18559    0.00659     3.19182
      C    2   -0.19199      0.99964     2.18572    0.00663     3.19199
      C    3   -0.13191      0.99956     2.12150    0.01085     3.13191
      C    4    0.16978      0.99963     1.81102    0.01957     2.83022
      N    5   -0.17711      0.99970     2.66650    0.01091     3.67711
      N    6   -0.17836      0.99964     2.66609    0.01264     3.67836
      C    7    0.19810      0.99963     1.78461    0.01766     2.80190
      N    8   -0.26701      0.99968     2.75944    0.00789     3.76701
      C    9   -0.11157      0.99958     2.10121    0.01078     3.11157
      N   10   -0.34378      0.99976     2.83117    0.01285     3.84378
      C   11   -0.13014      0.99960     2.11740    0.01315     3.13014
      C   12    0.32842      0.99971     1.64855    0.02332     2.67158
      O   13   -0.33425      0.99988     3.32786    0.00652     4.33425
      N   14   -0.39671      0.99971     2.88845    0.00855     3.89671
      H   15    0.09889      0.00000     0.40003    0.00107     0.40111
      H   16    0.10872      0.00000     0.39008    0.00120     0.39128
      H   17    0.09885      0.00000     0.40011    0.00105     0.40115
      H   18    0.10865      0.00000     0.39017    0.00119     0.39135
      H   19    0.11376      0.00000     0.38524    0.00100     0.38624
      H   20    0.21125      0.00000     0.28638    0.00237     0.28875
      H   21    0.10691      0.00000     0.39156    0.00153     0.39309
      H   22    0.10586      0.00000     0.39260    0.00154     0.39414
      H   23    0.18164      0.00000     0.31581    0.00255     0.31836
      H   24    0.11010      0.00000     0.38785    0.00205     0.38990
      H   25    0.10697      0.00000     0.38876    0.00427     0.39303
      H   26    0.20850      0.00000     0.24992    0.04158     0.29150
      H   27    0.19828      0.00000     0.29707    0.00466     0.30172
 =======================================================================
   * Total *    0.00001     13.99533    37.77068    0.23398    51.99999

 Normal termination of Gaussian 16 at Thu Dec 10 09:37:05 2020.
