 Gaussian 16, Revision A.03,

 -----------------------------------------------------------
 # opt freq B3LYP/6-31G(d) empiricaldispersion=gd3bj scf=xqc
 -----------------------------------------------------------

 ------------------------------
 CID_63855904_JID_8161_neutraal
 ------------------------------
 Symbolic Z-matrix:
 Charge =  0 Multiplicity = 1

 SCF Done:  E(RB3LYP) =  -1290.50484982     A.U. after   15 cycles
 SCF Done:  E(RB3LYP) =  -1290.44534331     A.U. after   14 cycles
 SCF Done:  E(RB3LYP) =  -1290.51181596     A.U. after   12 cycles
 SCF Done:  E(RB3LYP) =  -1290.51378183     A.U. after   13 cycles
 SCF Done:  E(RB3LYP) =  -1290.51504538     A.U. after   12 cycles
 SCF Done:  E(RB3LYP) =  -1290.51608738     A.U. after   13 cycles
 SCF Done:  E(RB3LYP) =  -1290.51713841     A.U. after   13 cycles
 SCF Done:  E(RB3LYP) =  -1290.51798197     A.U. after   13 cycles
 SCF Done:  E(RB3LYP) =  -1290.51843551     A.U. after   13 cycles
 SCF Done:  E(RB3LYP) =  -1290.51888526     A.U. after   12 cycles
 SCF Done:  E(RB3LYP) =  -1290.51919748     A.U. after   10 cycles
 SCF Done:  E(RB3LYP) =  -1290.51920043     A.U. after    9 cycles
 SCF Done:  E(RB3LYP) =  -1290.51920087     A.U. after    8 cycles
 SCF Done:  E(RB3LYP) =  -1290.51920089     A.U. after    7 cycles
 Optimization completed.
    -- Stationary point found.
 Normal termination of Gaussian 16 at Fri Dec 11 19:18:16 2020.

 --------------------------------------------------------------------
 #N Geom=AllCheck Guess=TCheck SCRF=Check GenChk RB3LYP/6-31G(d) Freq
 --------------------------------------------------------------------

 Structure from the checkpoint file:  "JID_8161.chk"
 ------------------------------
 CID_63855904_JID_8161_neutraal
 ------------------------------
 Charge =  0 Multiplicity = 1

 SCF Done:  E(RB3LYP) =  -1290.51920089     A.U. after    1 cycles

  Exact polarizability: 172.151  13.150 130.011   3.443 -11.634 117.335
 Approx polarizability: 236.314  26.296 197.875   0.923 -23.674 211.475

                      1                      2                      3
                      A                      A                      A
 Frequencies --     21.4638                34.5388                45.7981
 Red. masses --      6.3901                 6.9361                 9.2253
 Frc consts  --      0.0017                 0.0049                 0.0114
 IR Inten    --      0.9933                 4.0747                 1.9891

                      4                      5                      6
                      A                      A                      A
 Frequencies --     58.9821                79.6522                95.1653
 Red. masses --      4.6008                 5.8396                 4.3752
 Frc consts  --      0.0094                 0.0218                 0.0233
 IR Inten    --      3.1103                 0.5648                 2.4634

                      7                      8                      9
                      A                      A                      A
 Frequencies --    116.1353               130.1727               135.0000
 Red. masses --      3.7317                 2.5468                 6.8091
 Frc consts  --      0.0297                 0.0254                 0.0731
 IR Inten    --      5.2205                 7.4869                 4.4883

                     10                     11                     12
                      A                      A                      A
 Frequencies --    162.2150               180.9458               201.9164
 Red. masses --      4.9238                 3.6940                 2.4305
 Frc consts  --      0.0763                 0.0713                 0.0584
 IR Inten    --      1.7291                 0.4535                 6.8063

                     13                     14                     15
                      A                      A                      A
 Frequencies --    214.2765               237.1570               257.8372
 Red. masses --      4.3729                 2.1259                 2.4595
 Frc consts  --      0.1183                 0.0704                 0.0963
 IR Inten    --      1.0583                 2.9632                 2.2833

                     16                     17                     18
                      A                      A                      A
 Frequencies --    283.7957               296.9942               352.7429
 Red. masses --      3.2495                 4.5117                 2.6286
 Frc consts  --      0.1542                 0.2345                 0.1927
 IR Inten    --      6.9582                 0.4917                 0.4904

                     19                     20                     21
                      A                      A                      A
 Frequencies --    375.7095               411.0127               431.2638
 Red. masses --      4.0660                 7.6520                 2.4695
 Frc consts  --      0.3382                 0.7616                 0.2706
 IR Inten    --     13.5095                18.9345                 4.5922

                     22                     23                     24
                      A                      A                      A
 Frequencies --    451.6251               475.2123               496.9820
 Red. masses --      2.8126                 4.0949                 3.8415
 Frc consts  --      0.3380                 0.5448                 0.5590
 IR Inten    --      9.7948                15.1869                 7.4522

                     25                     26                     27
                      A                      A                      A
 Frequencies --    525.5185               558.1318               584.6655
 Red. masses --      5.1949                 3.4268                 1.4694
 Frc consts  --      0.8453                 0.6289                 0.2959
 IR Inten    --      4.6086                14.2130                73.7254

                     28                     29                     30
                      A                      A                      A
 Frequencies --    629.0302               663.9309               671.9275
 Red. masses --      3.8984                 3.1108                 2.9014
 Frc consts  --      0.9088                 0.8079                 0.7718
 IR Inten    --      4.1366                30.4630                23.2287

                     31                     32                     33
                      A                      A                      A
 Frequencies --    698.3113               716.4446               726.9974
 Red. masses --      2.7083                 6.5255                 3.9055
 Frc consts  --      0.7781                 1.9735                 1.2162
 IR Inten    --     26.2202                 8.5758                46.5649

                     34                     35                     36
                      A                      A                      A
 Frequencies --    779.1961               789.7915               834.4203
 Red. masses --      3.4686                 2.0805                 1.8097
 Frc consts  --      1.2408                 0.7646                 0.7424
 IR Inten    --     46.8141                16.5717                 5.3860

                     37                     38                     39
                      A                      A                      A
 Frequencies --    874.8771               905.3416               927.9010
 Red. masses --      2.6011                 2.3002                 2.2955
 Frc consts  --      1.1730                 1.1108                 1.1645
 IR Inten    --      4.2709                49.8944                15.5933

                     40                     41                     42
                      A                      A                      A
 Frequencies --    957.1399              1006.3737              1027.1431
 Red. masses --      2.2142                 2.3112                 5.3374
 Frc consts  --      1.1951                 1.3792                 3.3178
 IR Inten    --      3.3207                 3.5764                 8.6792

                     43                     44                     45
                      A                      A                      A
 Frequencies --   1045.6527              1059.7119              1066.1049
 Red. masses --      3.5430                 1.8156                 3.0374
 Frc consts  --      2.2824                 1.2013                 2.0340
 IR Inten    --      9.0484                 8.1532                57.7682

                     46                     47                     48
                      A                      A                      A
 Frequencies --   1099.8691              1111.2497              1133.2376
 Red. masses --      5.5805                 2.4678                 3.2527
 Frc consts  --      3.9775                 1.7955                 2.4612
 IR Inten    --    194.1974                13.9397                61.1893

                     49                     50                     51
                      A                      A                      A
 Frequencies --   1139.2152              1164.5199              1177.8155
 Red. masses --      3.0017                 2.3984                 1.6109
 Frc consts  --      2.2953                 1.9163                 1.3167
 IR Inten    --     34.5451               122.2245               184.7107

                     52                     53                     54
                      A                      A                      A
 Frequencies --   1190.6149              1205.2433              1222.2460
 Red. masses --      1.2618                 1.2578                 1.6685
 Frc consts  --      1.0538                 1.0765                 1.4686
 IR Inten    --      5.3566                14.6903                53.7897

                     55                     56                     57
                      A                      A                      A
 Frequencies --   1237.1268              1275.5676              1297.8465
 Red. masses --      1.1863                 2.1562                 2.1211
 Frc consts  --      1.0697                 2.0670                 2.1050
 IR Inten    --     13.6522                60.1720                82.2042

                     58                     59                     60
                      A                      A                      A
 Frequencies --   1304.5804              1323.5314              1334.5133
 Red. masses --      3.1428                 1.9062                 1.2562
 Frc consts  --      3.1514                 1.9674                 1.3181
 IR Inten    --     42.6627                11.3416                22.5952

                     61                     62                     63
                      A                      A                      A
 Frequencies --   1341.0415              1363.3816              1365.3839
 Red. masses --      2.6150                 1.5661                 1.3221
 Frc consts  --      2.7708                 1.7152                 1.4522
 IR Inten    --     33.0655                 8.8818                 6.7097

                     64                     65                     66
                      A                      A                      A
 Frequencies --   1405.9597              1409.2784              1430.3432
 Red. masses --      1.3762                 1.3898                 1.2555
 Frc consts  --      1.6028                 1.6262                 1.5134
 IR Inten    --      6.7178                18.7082                10.0510

                     67                     68                     69
                      A                      A                      A
 Frequencies --   1440.4121              1468.9740              1490.4660
 Red. masses --      5.3908                 1.0961                 1.0986
 Frc consts  --      6.5898                 1.3936                 1.4379
 IR Inten    --     52.7331                11.1386                 6.4616

                     70                     71                     72
                      A                      A                      A
 Frequencies --   1498.9139              1500.9795              1507.7085
 Red. masses --      1.5036                 1.3160                 1.0989
 Frc consts  --      1.9904                 1.7468                 1.4718
 IR Inten    --     13.8635                17.9207                 8.1761

                     73                     74                     75
                      A                      A                      A
 Frequencies --   1519.3154              1522.8523              1531.4348
 Red. masses --      1.6749                 1.0871                 1.0548
 Frc consts  --      2.2779                 1.4853                 1.4576
 IR Inten    --     19.0289                 8.5409                 5.8644

                     76                     77                     78
                      A                      A                      A
 Frequencies --   1545.8113              1578.3274              1849.2847
 Red. masses --      1.0968                 6.1248                10.0901
 Frc consts  --      1.5442                 8.9896                20.3307
 IR Inten    --      5.8417                43.0785               325.2597

                     79                     80                     81
                      A                      A                      A
 Frequencies --   3012.2538              3017.8596              3063.1440
 Red. masses --      1.0599                 1.0533                 1.0677
 Frc consts  --      5.6660                 5.6518                 5.9027
 IR Inten    --     28.5015                75.4833                25.7303

                     82                     83                     84
                      A                      A                      A
 Frequencies --   3080.8487              3093.0870              3100.1438
 Red. masses --      1.0972                 1.0604                 1.0619
 Frc consts  --      6.1360                 5.9775                 6.0130
 IR Inten    --     33.5575                16.2397                 4.5558

                     85                     86                     87
                      A                      A                      A
 Frequencies --   3106.0671              3109.0557              3122.6537
 Red. masses --      1.0609                 1.0959                 1.0970
 Frc consts  --      6.0304                 6.2411                 6.3022
 IR Inten    --      8.7865                 6.8561                25.2229

                     88                     89                     90
                      A                      A                      A
 Frequencies --   3151.8077              3156.0679              3175.4876
 Red. masses --      1.1056                 1.1061                 1.1046
 Frc consts  --      6.4711                 6.4916                 6.5626
 IR Inten    --     10.1928                 2.1278                 2.5893

                     91                     92                     93
                      A                      A                      A
 Frequencies --   3177.0861              3313.5516              3696.6414
 Red. masses --      1.0963                 1.1002                 1.0641
 Frc consts  --      6.5200                 7.1174                 8.5677
 IR Inten    --     15.6510                 3.6957                80.9645

 - Thermochemistry -
 -------------------
 Temperature   298.150 Kelvin.  Pressure   1.00000 Atm.
 Atom     1 has atomic number  6 and mass  12.00000

 Molecular mass:   277.07324 amu.
 Principal axes and moments of inertia in atomic units:
                           1         2         3
     Eigenvalues --  2560.475427483.680568752.25378
           X            0.99995  -0.00769   0.00569
           Y            0.00784   0.99963  -0.02613
           Z           -0.00549   0.02617   0.99964
 This molecule is an asymmetric top.
 Rotational symmetry number  1.
 Warning -- assumption of classical behavior for rotation
           may cause significant error
 Rotational temperatures (Kelvin)      0.03383     0.01157     0.00990
 Rotational constants (GHZ):           0.70485     0.24116     0.20620
 Zero-point vibrational energy     687601.6 (Joules/Mol)
                                  164.34072 (Kcal/Mol)
 Warning -- explicit consideration of  27 degrees of freedom as
           vibrations may cause significant error
 Vibrational temperatures:     30.88    49.69    65.89    84.86   114.60
          (Kelvin)            136.92   167.09   187.29   194.23   233.39
                              260.34   290.51   308.30   341.22   370.97
                              408.32   427.31   507.52   540.56   591.36
                              620.49   649.79   683.72   715.05   756.10
                              803.03   841.20   905.03   955.25   966.75
                             1004.71  1030.80  1045.99  1121.09  1136.33
                             1200.54  1258.75  1302.58  1335.04  1377.11
                             1447.95  1477.83  1504.46  1524.69  1533.89
                             1582.47  1598.84  1630.48  1639.08  1675.48
                             1694.61  1713.03  1734.08  1758.54  1779.95
                             1835.26  1867.31  1877.00  1904.27  1920.07
                             1929.46  1961.60  1964.48  2022.86  2027.64
                             2057.94  2072.43  2113.53  2144.45  2156.60
                             2159.57  2169.26  2185.96  2191.04  2203.39
                             2224.08  2270.86  2660.71  4333.96  4342.03
                             4407.18  4432.65  4450.26  4460.42  4468.94
                             4473.24  4492.80  4534.75  4540.88  4568.82
                             4571.12  4767.46  5318.64

 Zero-point correction=                           0.261894 (Hartree/Particle)
 Thermal correction to Energy=                    0.280103
 Thermal correction to Enthalpy=                  0.281047
 Thermal correction to Gibbs Free Energy=         0.213700
 Sum of electronic and zero-point Energies=          -1290.257307
 Sum of electronic and thermal Energies=             -1290.239098
 Sum of electronic and thermal Enthalpies=           -1290.238154
 Sum of electronic and thermal Free Energies=        -1290.305501

                     E (Thermal)             CV                S
                      KCal/Mol        Cal/Mol-Kelvin    Cal/Mol-Kelvin
 Total                  175.767             66.352            141.744
 Electronic               0.000              0.000              0.000
 Translational            0.889              2.981             42.756
 Rotational               0.889              2.981             33.483
 Vibrational            173.990             60.390             65.505
 Vibration     1          0.593              1.985              6.494
 Vibration     2          0.594              1.983              5.550
 Vibration     3          0.595              1.979              4.991
 Vibration     4          0.596              1.974              4.491
 Vibration     5          0.600              1.963              3.899
 Vibration     6          0.603              1.953              3.551
 Vibration     7          0.608              1.936              3.164
 Vibration     8          0.612              1.923              2.943
 Vibration     9          0.613              1.918              2.874
 Vibration    10          0.622              1.889              2.524
 Vibration    11          0.630              1.866              2.319
 Vibration    12          0.639              1.837              2.116
 Vibration    13          0.644              1.819              2.007
 Vibration    14          0.656              1.784              1.824
 Vibration    15          0.667              1.750              1.676
 Vibration    16          0.682              1.704              1.511
 Vibration    17          0.691              1.679              1.434
 Vibration    18          0.729              1.570              1.154
 Vibration    19          0.747              1.522              1.056
 Vibration    20          0.775              1.446              0.923
 Vibration    21          0.792              1.402              0.855
 Vibration    22          0.810              1.357              0.791
 Vibration    23          0.832              1.305              0.723
 Vibration    24          0.853              1.257              0.666
 Vibration    25          0.880              1.194              0.597
 Vibration    26          0.914              1.122              0.528
 Vibration    27          0.942              1.065              0.477

                           ! Non-Optimized Parameters !
 Normal termination of Gaussian 16 at Fri Dec 11 19:34:01 2020.

 ----------------------------------------------------------------------
 # B3LYP/6-311++G(d,p) empiricaldispersion=gd3bj scf=xqc pop=npa geom=c
 heck
 ----------------------------------------------------------------------

 --------------------------------------
 CID_63855904_JID_8161_Energie_neutraal
 --------------------------------------
 Structure from the checkpoint file:  "JID_8161.chk"
 Charge =  0 Multiplicity = 1

 SCF Done:  E(RB3LYP) =  -1290.81105909     A.U. after   15 cycles
 Normal termination of Gaussian 16 at Fri Dec 11 19:39:36 2020.

 ----------------------------------------------------------------------
 # B3LYP/6-311++G(d,p) empiricaldispersion=gd3bj scf=xqc pop=npa geom=c
 heck
 ----------------------------------------------------------------------

 ------------------------------------
 CID_63855904_JID_8161_Energie_kation
 ------------------------------------
 Structure from the checkpoint file:  "JID_8161.chk"
 Charge =  1 Multiplicity = 2

 SCF Done:  E(UB3LYP) =  -1290.46383512     A.U. after   33 cycles
 SCF Done:  E(UB3LYP) =  -1290.46383512     a.u. after    1 cycles
 Normal termination of Gaussian 16 at Fri Dec 11 19:56:16 2020.
 Gaussian 16:  ES64L-G16RevA.03 25-Dec-2016

 ----------------------------------------------------------------------
 # B3LYP/6-311++G(d,p) empiricaldispersion=gd3bj scf=xqc pop=npa geom=c
 heck
 ----------------------------------------------------------------------

 -----------------------------------
 CID_63855904_JID_8161_Energie_anion
 -----------------------------------
 Structure from the checkpoint file:  "JID_8161.chk"
 Charge = -1 Multiplicity = 2

                         Standard orientation:
 ---------------------------------------------------------------------
 Center     Atomic      Atomic             Coordinates (Angstroms)
 Number     Number       Type             X           Y           Z
 ---------------------------------------------------------------------
      1          6           0        0.877297    2.492099   -0.047208
      2          8           0       -0.010003    1.741330    0.770464
      3          6           0       -1.318394    2.291834    0.833993
      4          6           0       -2.120854    2.147688   -0.462604
      5          6           0       -2.099125    0.749415   -1.076915
      6         16           0       -2.814571   -0.548808   -0.021556
      7          8           0       -3.808303    0.063435    0.879127
      8          8           0       -3.185626   -1.673258   -0.900428
      9          6           0       -1.478945   -1.169647    1.068865
     10          6           0       -0.528447   -2.163857    0.394679
     11          7           0        0.701816   -1.534412   -0.065306
     12          6           0        1.851391   -1.339191    0.609919
     13          6           0        2.622739   -0.571447   -0.242105
     14          7           0        1.904816   -0.334053   -1.381823
     15          7           0        0.749467   -0.915047   -1.277495
     16          6           0        3.960731   -0.004630   -0.020711
     17          8           0        4.497953    0.832752   -0.709323
     18          8           0        4.530384   -0.527165    1.099237
     19          1           0        0.858227    3.555809    0.233066
     20          1           0        0.638745    2.396987   -1.114066
     21          1           0        1.880794    2.096525    0.109790
     22          1           0       -1.829532    1.761466    1.642061
     23          1           0       -1.267646    3.354964    1.115676
     24          1           0       -3.154968    2.440766   -0.254266
     25          1           0       -1.739570    2.836887   -1.225548
     26          1           0       -2.726296    0.698595   -1.972152
     27          1           0       -1.096512    0.406332   -1.345585
     28          1           0       -0.940777   -0.315635    1.483488
     29          1           0       -2.051581   -1.657855    1.862525
     30          1           0       -0.244133   -2.947471    1.100743
     31          1           0       -1.010285   -2.635344   -0.464923
     32          1           0        2.036575   -1.733957    1.596004
     33          1           0        5.393810   -0.082904    1.190368
 ---------------------------------------------------------------------

 SCF Done:  E(UB3LYP) =  -1290.81490231     A.U. after   33 cycles
 SCF Done:  E(UB3LYP) =  -1290.81490230     a.u. after    1 cycles

 The electronic state is 2-A.
 Alpha  occ. eigenvalues --  -88.95030 -19.04732 -19.04590 -19.02275 -19.02085
 Alpha  occ. eigenvalues --  -18.97435 -14.28383 -14.25730 -14.22208 -10.16174
 Alpha  occ. eigenvalues --  -10.14193 -10.12660 -10.12041 -10.12003 -10.11687
 Alpha  occ. eigenvalues --  -10.10678 -10.08696 -10.07664  -8.01562  -5.97826
 Alpha  occ. eigenvalues --   -5.97709  -5.97653  -1.01286  -0.98719  -0.97996
 Alpha  occ. eigenvalues --   -0.95540  -0.91069  -0.89045  -0.81294  -0.73238
 Alpha  occ. eigenvalues --   -0.70307  -0.69265  -0.65038  -0.61208  -0.58684
 Alpha  occ. eigenvalues --   -0.56383  -0.53198  -0.50103  -0.48658  -0.46732
 Alpha  occ. eigenvalues --   -0.43050  -0.42835  -0.41539  -0.40345  -0.39973
 Alpha  occ. eigenvalues --   -0.38434  -0.38350  -0.37007  -0.36079  -0.35642
 Alpha  occ. eigenvalues --   -0.34730  -0.34430  -0.33604  -0.33370  -0.31933
 Alpha  occ. eigenvalues --   -0.30858  -0.30262  -0.29700  -0.29316  -0.28278
 Alpha  occ. eigenvalues --   -0.28223  -0.24232  -0.23667  -0.22956  -0.22547
 Alpha  occ. eigenvalues --   -0.21381  -0.20788  -0.19987  -0.18575  -0.18117
 Alpha  occ. eigenvalues --   -0.16341  -0.15813  -0.15151   0.04298
 Alpha virt. eigenvalues --    0.06166   0.06992   0.08004   0.08270   0.08861
 Alpha virt. eigenvalues --    0.09314   0.09940   0.10479   0.10848   0.11581
 Alpha virt. eigenvalues --    0.11861   0.12749   0.13161   0.13610   0.14149

  Beta  occ. eigenvalues --  -88.95031 -19.04689 -19.04589 -19.02273 -19.02083
  Beta  occ. eigenvalues --  -18.97169 -14.28265 -14.25803 -14.22175 -10.15906
  Beta  occ. eigenvalues --  -10.14191 -10.12630 -10.12040 -10.12001 -10.11665
  Beta  occ. eigenvalues --  -10.10677 -10.08366 -10.07621  -8.01562  -5.97826
  Beta  occ. eigenvalues --   -5.97709  -5.97654  -1.01284  -0.98577  -0.97788
  Beta  occ. eigenvalues --   -0.95539  -0.91067  -0.88665  -0.81110  -0.73228
  Beta  occ. eigenvalues --   -0.70124  -0.69052  -0.65025  -0.61145  -0.58609
  Beta  occ. eigenvalues --   -0.55952  -0.53171  -0.49909  -0.48609  -0.46564
  Beta  occ. eigenvalues --   -0.43023  -0.42679  -0.41449  -0.40320  -0.39880
  Beta  occ. eigenvalues --   -0.38359  -0.38205  -0.36804  -0.35892  -0.35411
  Beta  occ. eigenvalues --   -0.34594  -0.34378  -0.33463  -0.32914  -0.31446
  Beta  occ. eigenvalues --   -0.30736  -0.30247  -0.29544  -0.29291  -0.28227
  Beta  occ. eigenvalues --   -0.28051  -0.24224  -0.23658  -0.22944  -0.22537
  Beta  occ. eigenvalues --   -0.21375  -0.20036  -0.19711  -0.18443  -0.17605
  Beta  occ. eigenvalues --   -0.16277  -0.15544  -0.14232
  Beta virt. eigenvalues --    0.06106   0.07783   0.08063   0.08242   0.09038
  Beta virt. eigenvalues --    0.09507   0.09715   0.10487   0.10844   0.11216
  Beta virt. eigenvalues --    0.11710   0.11842   0.12757   0.13498   0.13668

 Mulliken charges and spin densities:
               1          2
     1  C   -0.386834  -0.004127
     2  O   -0.032281  -0.000083
     3  C   -0.347956  -0.096368
     4  C   -0.494308   0.081987
     5  C   -0.609685   0.035060
     6  S    0.899972  -0.460404
     7  O   -0.214616   0.007938
     8  O   -0.151825  -0.003850
     9  C   -0.581360   0.062560
    10  C    0.523654  -1.025730
    11  N    0.263988   0.037772
    12  C   -0.309884   0.087891
    13  C    0.342376  -0.040695
    14  N   -0.235102  -0.014325
    15  N   -0.025135   0.027709
    16  C   -0.073091   0.022887
    17  O   -0.359594   0.087517
    18  O   -0.192172   0.009550
    19  H    0.111663  -0.002696
    20  H    0.150158  -0.001325
    21  H    0.249649   0.000423
    22  H    0.145724   0.046336
    23  H    0.110140   0.011323
    24  H    0.178537   0.011401
    25  H    0.152079   0.017193
    26  H    0.234468   0.009391
    27  H    0.253606   0.010710
    28  H    0.416915  -0.105600
    29  H   -0.311468   0.580167
    30  H   -0.980214   1.201315
    31  H    0.260672  -0.010532
    32  H   -0.237876   0.411353
    33  H    0.249801   0.005251
 Sum of Mulliken charges =  -1.00000   1.00000

 Dipole moment (field-independent basis, Debye):
    X=             -2.7544    Y=              7.8764    Z=             -0.3861  Tot=              8.3531
 Quadrupole moment (field-independent basis, Debye-Ang):
   XX=           -182.2622   YY=           -148.4709   ZZ=           -141.4985
   XY=            -11.0969   XZ=             14.7886   YZ=             10.2336

 Summary of Natural Population Analysis:

                                       Natural Population
                Natural  -----------------------------------------------
    Atom  No    Charge         Core      Valence    Rydberg      Total
 -----------------------------------------------------------------------
      C    1   -0.10204      0.99961     2.09370    0.00873     3.10204
      O    2   -0.30075      0.99989     3.29152    0.00934     4.30075
      C    3   -0.01321      0.99958     2.00171    0.01192     3.01321
      C    4   -0.21570      0.99962     2.20807    0.00801     3.21570
      C    5   -0.29893      0.99956     2.28804    0.01133     3.29893
      S    6    1.01272      4.99928     1.89310    0.09490     6.98728
      O    7   -0.47592      0.99991     3.47023    0.00578     4.47592
      O    8   -0.47080      0.99991     3.46511    0.00579     4.47080
      C    9   -0.29565      0.99956     2.28392    0.01217     3.29565
      C   10   -0.09942      0.99958     2.08581    0.01402     3.09942
      N   11   -0.09449      0.99965     2.57964    0.01520     3.59449
      C   12    0.06622      0.99951     1.92223    0.01204     2.93378
      C   13   -0.01845      0.99950     2.00350    0.01545     3.01845
      N   14   -0.11481      0.99973     2.60134    0.01374     3.61481
      N   15   -0.07985      0.99977     2.56316    0.01691     3.57985
      C   16    0.41416      0.99966     1.56100    0.02518     2.58584
      O   17   -0.29014      0.99987     3.28461    0.00566     4.29014
      O   18   -0.35202      0.99988     3.34559    0.00655     4.35202
      H   19    0.07150      0.00000     0.42747    0.00103     0.42850
      H   20    0.08254      0.00000     0.41637    0.00109     0.41746
      H   21    0.10597      0.00000     0.39311    0.00092     0.39403
      H   22    0.09537      0.00000     0.40326    0.00137     0.40463
      H   23    0.07956      0.00000     0.41882    0.00163     0.42044
      H   24    0.11013      0.00000     0.38857    0.00130     0.38987
      H   25    0.10166      0.00000     0.39713    0.00120     0.39834
      H   26    0.11679      0.00000     0.38208    0.00114     0.38321
      H   27    0.13640      0.00000     0.36185    0.00176     0.36360
      H   28    0.12516      0.00000     0.37282    0.00203     0.37484
      H   29    0.12287      0.00000     0.37506    0.00207     0.37713
      H   30    0.11775      0.00000     0.37326    0.00899     0.38225
      H   31    0.12022      0.00000     0.37810    0.00168     0.37978
      H   32    0.11092      0.00000     0.38762    0.00145     0.38908
      H   33    0.23225      0.00000     0.26406    0.00369     0.26775
 =======================================================================
   * Total *    0.00000     21.99409    50.68183    0.32408    73.00000

 Normal termination of Gaussian 16 at Fri Dec 11 20:13:12 2020.
