 Gaussian 16, Revision A.03,

 -----------------------------------------------------------
 # opt freq B3LYP/6-31G(d) empiricaldispersion=gd3bj scf=xqc
 -----------------------------------------------------------

 ------------------------------
 CID_75447871_JID_8715_neutraal
 ------------------------------
 Symbolic Z-matrix:
 Charge =  0 Multiplicity = 1

 SCF Done:  E(RB3LYP) =  -1257.02705985     A.U. after   14 cycles
 SCF Done:  E(RB3LYP) =  -1257.04165624     A.U. after   12 cycles
 SCF Done:  E(RB3LYP) =  -1257.04361331     A.U. after   13 cycles
 SCF Done:  E(RB3LYP) =  -1257.04624478     A.U. after   12 cycles
 SCF Done:  E(RB3LYP) =  -1257.04793402     A.U. after   12 cycles
 SCF Done:  E(RB3LYP) =  -1257.04917656     A.U. after   12 cycles
 SCF Done:  E(RB3LYP) =  -1257.05042771     A.U. after   12 cycles
 SCF Done:  E(RB3LYP) =  -1257.05086851     A.U. after   12 cycles
 SCF Done:  E(RB3LYP) =  -1257.05148543     A.U. after   12 cycles
 SCF Done:  E(RB3LYP) =  -1257.05160761     A.U. after   10 cycles
 SCF Done:  E(RB3LYP) =  -1257.05166127     A.U. after    9 cycles
 SCF Done:  E(RB3LYP) =  -1257.05166427     A.U. after    8 cycles
 SCF Done:  E(RB3LYP) =  -1257.05166505     A.U. after    8 cycles
 SCF Done:  E(RB3LYP) =  -1257.05166535     A.U. after    7 cycles
 SCF Done:  E(RB3LYP) =  -1257.05166541     A.U. after    7 cycles
 Optimization completed.
    -- Stationary point found.
 Normal termination of Gaussian 16 at Fri Dec 11 22:18:12 2020.

 --------------------------------------------------------------------
 #N Geom=AllCheck Guess=TCheck SCRF=Check GenChk RB3LYP/6-31G(d) Freq
 --------------------------------------------------------------------

 Structure from the checkpoint file:  "JID_8715.chk"
 ------------------------------
 CID_75447871_JID_8715_neutraal
 ------------------------------
 Charge =  0 Multiplicity = 1

 SCF Done:  E(RB3LYP) =  -1257.05166541     A.U. after    1 cycles

  Exact polarizability: 171.016  -3.055 156.187   3.957   0.853 127.177
 Approx polarizability: 223.700  -5.131 217.866   6.310  10.745 204.807

                      1                      2                      3
                      A                      A                      A
 Frequencies --     33.9938                38.0550                48.4759
 Red. masses --      3.6699                 4.2439                 4.0189
 Frc consts  --      0.0025                 0.0036                 0.0056
 IR Inten    --      1.0990                 0.4571                 2.7718

                      4                      5                      6
                      A                      A                      A
 Frequencies --     86.1567               106.0116               114.9766
 Red. masses --      4.7081                 3.3497                 2.7540
 Frc consts  --      0.0206                 0.0222                 0.0215
 IR Inten    --      1.5984                 0.9231                 0.5517

                      7                      8                      9
                      A                      A                      A
 Frequencies --    120.7203               145.1887               158.1274
 Red. masses --      3.2634                 3.1434                 3.1701
 Frc consts  --      0.0280                 0.0390                 0.0467
 IR Inten    --      0.4602                 8.3080                 7.7634

                     10                     11                     12
                      A                      A                      A
 Frequencies --    171.4056               206.3482               212.5024
 Red. masses --      2.5850                 1.2060                 1.1507
 Frc consts  --      0.0447                 0.0303                 0.0306
 IR Inten    --      0.1124                 1.9832                 0.8046

                     13                     14                     15
                      A                      A                      A
 Frequencies --    217.3556               226.7408               241.5982
 Red. masses --      1.9430                 1.4064                 3.2980
 Frc consts  --      0.0541                 0.0426                 0.1134
 IR Inten    --      0.0596                 0.2793                 2.5689

                     16                     17                     18
                      A                      A                      A
 Frequencies --    256.6789               273.7816               274.6966
 Red. masses --      1.0766                 4.2815                 1.0836
 Frc consts  --      0.0418                 0.1891                 0.0482
 IR Inten    --      0.1299                 2.0987                 0.0527

                     19                     20                     21
                      A                      A                      A
 Frequencies --    289.6271               294.7172               330.3215
 Red. masses --      5.0719                 4.5289                 3.6082
 Frc consts  --      0.2507                 0.2318                 0.2320
 IR Inten    --      1.2279                 2.3263                 3.7294

                     22                     23                     24
                      A                      A                      A
 Frequencies --    336.2745               351.4561               366.7718
 Red. masses --      3.2261                 2.5145                 3.4031
 Frc consts  --      0.2149                 0.1830                 0.2697
 IR Inten    --     12.8320                 1.4402                 4.4753

                     25                     26                     27
                      A                      A                      A
 Frequencies --    409.8690               425.8164               460.0616
 Red. masses --      3.0620                 3.7147                 2.9414
 Frc consts  --      0.3031                 0.3968                 0.3668
 IR Inten    --      0.5861                 5.7049                 2.5550

                     28                     29                     30
                      A                      A                      A
 Frequencies --    475.1983               482.5945               515.3220
 Red. masses --      5.6665                 3.4662                 4.4550
 Frc consts  --      0.7539                 0.4756                 0.6970
 IR Inten    --     10.7193                 8.7870                 1.2451

                     31                     32                     33
                      A                      A                      A
 Frequencies --    536.8745               553.7865               639.3258
 Red. masses --      8.5579                 5.0933                 7.3240
 Frc consts  --      1.4533                 0.9203                 1.7638
 IR Inten    --     84.1353                 9.2418                42.8082

                     34                     35                     36
                      A                      A                      A
 Frequencies --    649.7650               722.1273               752.4601
 Red. masses --      2.2052                 5.5178                 7.1866
 Frc consts  --      0.5486                 1.6953                 2.3974
 IR Inten    --      3.7505               123.7409                 7.9306

                     37                     38                     39
                      A                      A                      A
 Frequencies --    764.9302               798.2994               857.7320
 Red. masses --      6.7383                 5.6901                 2.8720
 Frc consts  --      2.3230                 2.1365                 1.2449
 IR Inten    --     13.3347                24.7794                12.6437

                     40                     41                     42
                      A                      A                      A
 Frequencies --    877.2366               893.9496               930.6673
 Red. masses --      2.0509                 3.2957                 1.7375
 Frc consts  --      0.9299                 1.5518                 0.8867
 IR Inten    --     11.2193                25.2402                12.6089

                     43                     44                     45
                      A                      A                      A
 Frequencies --    936.3782               938.1851               940.4310
 Red. masses --      2.6855                 1.6321                 1.6710
 Frc consts  --      1.3873                 0.8464                 0.8707
 IR Inten    --      0.4151                 0.0548                 1.6648

                     46                     47                     48
                      A                      A                      A
 Frequencies --    972.3380               983.3835              1015.0040
 Red. masses --      2.9583                 1.1983                 2.7467
 Frc consts  --      1.6479                 0.6827                 1.6673
 IR Inten    --    108.3192                 0.2896                28.9923

                     49                     50                     51
                      A                      A                      A
 Frequencies --   1043.4020              1066.4178              1072.5418
 Red. masses --      3.2648                 1.4051                 1.4427
 Frc consts  --      2.0942                 0.9415                 0.9778
 IR Inten    --     33.7356                 0.2938                 1.7029

                     52                     53                     54
                      A                      A                      A
 Frequencies --   1092.4924              1121.6916              1141.9858
 Red. masses --      1.4893                 8.2136                 1.2187
 Frc consts  --      1.0473                 6.0888                 0.9364
 IR Inten    --      7.2586               187.9537                 1.3686

                     55                     56                     57
                      A                      A                      A
 Frequencies --   1143.8562              1161.4270              1183.4352
 Red. masses --      2.1317                 4.3109                 3.3200
 Frc consts  --      1.6433                 3.4261                 2.7396
 IR Inten    --     37.0718               100.2526               154.3827

                     58                     59                     60
                      A                      A                      A
 Frequencies --   1188.7918              1221.9943              1237.9774
 Red. masses --      1.6101                 2.1506                 3.9668
 Frc consts  --      1.3406                 1.8921                 3.5819
 IR Inten    --     44.4572               206.1545                17.3805

                     61                     62                     63
                      A                      A                      A
 Frequencies --   1241.5267              1242.3364              1281.1322
 Red. masses --      1.4770                 1.2919                 1.2977
 Frc consts  --      1.3413                 1.1747                 1.2549
 IR Inten    --      4.3448                12.3726                15.1407

                     64                     65                     66
                      A                      A                      A
 Frequencies --   1287.3539              1299.4480              1318.4931
 Red. masses --      2.6922                 2.6944                 2.1433
 Frc consts  --      2.6288                 2.6806                 2.1953
 IR Inten    --     15.2288                34.7007                24.3780

                     67                     68                     69
                      A                      A                      A
 Frequencies --   1332.8409              1344.8744              1363.5667
 Red. masses --      6.0985                 1.4281                 1.2890
 Frc consts  --      6.3831                 1.5219                 1.4121
 IR Inten    --    154.5595                42.8431                22.4636

                     70                     71                     72
                      A                      A                      A
 Frequencies --   1381.8656              1401.2438              1423.9007
 Red. masses --      1.3926                 6.1590                 1.2857
 Frc consts  --      1.5667                 7.1250                 1.5359
 IR Inten    --      8.8464               467.3800                17.6640

                     73                     74                     75
                      A                      A                      A
 Frequencies --   1428.2715              1452.6366              1459.7767
 Red. masses --      1.3160                 1.2371                 1.1483
 Frc consts  --      1.5817                 1.5380                 1.4417
 IR Inten    --     43.2568                22.5483                 0.2552

                     76                     77                     78
                      A                      A                      A
 Frequencies --   1486.4779              1499.8730              1515.6775
 Red. masses --      1.1674                 1.0468                 1.0419
 Frc consts  --      1.5197                 1.3875                 1.4102
 IR Inten    --      5.2491                 0.5374                 3.6465

                     79                     80                     81
                      A                      A                      A
 Frequencies --   1519.6842              1520.3332              1521.2789
 Red. masses --      1.0479                 1.0527                 1.0836
 Frc consts  --      1.4259                 1.4336                 1.4775
 IR Inten    --      1.2034                 0.7642                 5.0811

                     82                     83                     84
                      A                      A                      A
 Frequencies --   1524.5689              1525.3117              1527.7466
 Red. masses --      1.0616                 1.0502                 1.0895
 Frc consts  --      1.4538                 1.4395                 1.4982
 IR Inten    --     13.1642                11.4244                 3.5698

                     85                     86                     87
                      A                      A                      A
 Frequencies --   1534.8582              1539.1853              1548.5627
 Red. masses --      1.0524                 1.0495                 1.0948
 Frc consts  --      1.4607                 1.4649                 1.5468
 IR Inten    --      1.1634                10.0080                 0.1012

                     88                     89                     90
                      A                      A                      A
 Frequencies --   1555.3536              1557.1581              1792.0273
 Red. masses --      1.0543                 1.0562                11.1681
 Frc consts  --      1.5027                 1.5089                21.1309
 IR Inten    --     10.8463                16.3830               284.9485

                     91                     92                     93
                      A                      A                      A
 Frequencies --   3058.3108              3059.4706              3060.6791
 Red. masses --      1.0352                 1.0355                 1.0382
 Frc consts  --      5.7047                 5.7109                 5.7299
 IR Inten    --     25.2591                 7.9929                27.7583

                     94                     95                     96
                      A                      A                      A
 Frequencies --   3066.6353              3067.7931              3080.8982
 Red. masses --      1.0342                 1.0382                 1.0711
 Frc consts  --      5.7303                 5.7567                 5.9899
 IR Inten    --     49.5683                18.1393                23.8981

                     97                     98                     99
                      A                      A                      A
 Frequencies --   3097.4644              3104.0987              3117.4448
 Red. masses --      1.0594                 1.0591                 1.1057
 Frc consts  --      5.9886                 6.0123                 6.3315
 IR Inten    --     13.0694                29.9131                26.5971

                    100                    101                    102
                      A                      A                      A
 Frequencies --   3123.0235              3124.9908              3136.0770
 Red. masses --      1.1027                 1.1023                 1.1059
 Frc consts  --      6.3364                 6.3425                 6.4083
 IR Inten    --      4.9324                19.2804                 2.6207

                    103                    104                    105
                      A                      A                      A
 Frequencies --   3136.1507              3139.4091              3140.1451
 Red. masses --      1.1035                 1.1026                 1.1093
 Frc consts  --      6.3948                 6.4026                 6.4446
 IR Inten    --     35.1093                44.5464                 1.7806

                    106                    107                    108
                      A                      A                      A
 Frequencies --   3157.3152              3173.4442              3176.5133
 Red. masses --      1.1077                 1.0997                 1.0992
 Frc consts  --      6.5059                 6.5252                 6.5346
 IR Inten    --     22.0125                 0.9306                12.5735

                    109                    110                    111
                      A                      A                      A
 Frequencies --   3181.9002              3183.8477              3192.1253
 Red. masses --      1.1022                 1.0980                 1.0996
 Frc consts  --      6.5751                 6.5581                 6.6018
 IR Inten    --      2.4669                 1.7814                 1.3460

 - Thermochemistry -
 -------------------
 Temperature   298.150 Kelvin.  Pressure   1.00000 Atm.
 Atom     1 has atomic number  6 and mass  12.00000

 Molecular mass:   279.12528 amu.
 Principal axes and moments of inertia in atomic units:
                           1         2         3
     Eigenvalues --  2710.750646627.739307830.74770
           X            0.99997  -0.00266   0.00755
           Y            0.00269   0.99999  -0.00419
           Z           -0.00754   0.00421   0.99996
 This molecule is an asymmetric top.
 Rotational symmetry number  1.
 Warning -- assumption of classical behavior for rotation
           may cause significant error
 Rotational temperatures (Kelvin)      0.03195     0.01307     0.01106
 Rotational constants (GHZ):           0.66577     0.27230     0.23047
 Zero-point vibrational energy     867979.5 (Joules/Mol)
                                  207.45207 (Kcal/Mol)
 Warning -- explicit consideration of  32 degrees of freedom as
           vibrations may cause significant error
 Vibrational temperatures:     48.91    54.75    69.75   123.96   152.53
          (Kelvin)            165.43   173.69   208.89   227.51   246.61
                              296.89   305.74   312.73   326.23   347.61
                              369.30   393.91   395.23   416.71   424.03
                              475.26   483.82   505.67   527.70   589.71
                              612.65   661.93   683.70   694.35   741.43
                              772.44   796.78   919.85   934.87  1038.98
                             1082.62  1100.56  1148.57  1234.08  1262.15
                             1286.19  1339.02  1347.24  1349.84  1353.07
                             1398.98  1414.87  1460.36  1501.22  1534.34
                             1543.15  1571.85  1613.86  1643.06  1645.75
                             1671.03  1702.70  1710.41  1758.18  1781.17
                             1786.28  1787.44  1843.26  1852.22  1869.62
                             1897.02  1917.66  1934.97  1961.87  1988.20
                             2016.08  2048.68  2054.96  2090.02  2100.29
                             2138.71  2157.98  2180.72  2186.49  2187.42
                             2188.78  2193.51  2194.58  2198.09  2208.32
                             2214.54  2228.04  2237.81  2240.40  2578.33
                             4400.23  4401.90  4403.63  4412.20  4413.87
                             4432.73  4456.56  4466.11  4485.31  4493.33
                             4496.16  4512.12  4512.22  4516.91  4517.97
                             4542.67  4565.88  4570.29  4578.04  4580.85
                             4592.76

 Zero-point correction=                           0.330596 (Hartree/Particle)
 Thermal correction to Energy=                    0.350629
 Thermal correction to Enthalpy=                  0.351573
 Thermal correction to Gibbs Free Energy=         0.282634
 Sum of electronic and zero-point Energies=          -1256.721069
 Sum of electronic and thermal Energies=             -1256.701036
 Sum of electronic and thermal Enthalpies=           -1256.700092
 Sum of electronic and thermal Free Energies=        -1256.769031

                     E (Thermal)             CV                S
                      KCal/Mol        Cal/Mol-Kelvin    Cal/Mol-Kelvin
 Total                  220.023             74.874            145.095
 Electronic               0.000              0.000              0.000
 Translational            0.889              2.981             42.778
 Rotational               0.889              2.981             33.308
 Vibrational            218.246             68.912             69.009
 Vibration     1          0.594              1.983              5.582
 Vibration     2          0.594              1.982              5.358
 Vibration     3          0.595              1.978              4.879
 Vibration     4          0.601              1.959              3.745
 Vibration     5          0.605              1.944              3.341
 Vibration     6          0.608              1.937              3.183
 Vibration     7          0.609              1.932              3.089
 Vibration     8          0.617              1.908              2.734
 Vibration     9          0.621              1.894              2.572
 Vibration    10          0.626              1.878              2.420
 Vibration    11          0.641              1.831              2.076
 Vibration    12          0.644              1.822              2.022
 Vibration    13          0.646              1.815              1.981
 Vibration    14          0.650              1.800              1.905
 Vibration    15          0.658              1.777              1.791
 Vibration    16          0.666              1.751              1.684
 Vibration    17          0.676              1.722              1.572
 Vibration    18          0.677              1.720              1.566
 Vibration    19          0.686              1.693              1.476
 Vibration    20          0.689              1.684              1.447
 Vibration    21          0.713              1.615              1.259
 Vibration    22          0.717              1.603              1.230
 Vibration    23          0.728              1.572              1.160
 Vibration    24          0.740              1.541              1.093
 Vibration    25          0.774              1.449              0.927
 Vibration    26          0.788              1.414              0.872
 Vibration    27          0.818              1.339              0.766
 Vibration    28          0.832              1.305              0.723
 Vibration    29          0.839              1.289              0.703
 Vibration    30          0.870              1.216              0.621
 Vibration    31          0.892              1.168              0.572
 Vibration    32          0.909              1.131              0.536

                           ! Non-Optimized Parameters !
 Normal termination of Gaussian 16 at Fri Dec 11 22:38:17 2020.

 ----------------------------------------------------------------------
 # B3LYP/6-311++G(d,p) empiricaldispersion=gd3bj scf=xqc pop=npa geom=c
 heck
 ----------------------------------------------------------------------

 --------------------------------------
 CID_75447871_JID_8715_Energie_neutraal
 --------------------------------------
 Structure from the checkpoint file:  "JID_8715.chk"
 Charge =  0 Multiplicity = 1

 SCF Done:  E(RB3LYP) =  -1257.32509752     A.U. after   15 cycles
 Normal termination of Gaussian 16 at Fri Dec 11 22:47:39 2020.

 ----------------------------------------------------------------------
 # B3LYP/6-311++G(d,p) empiricaldispersion=gd3bj scf=xqc pop=npa geom=c
 heck
 ----------------------------------------------------------------------

 ------------------------------------
 CID_75447871_JID_8715_Energie_kation
 ------------------------------------
 Structure from the checkpoint file:  "JID_8715.chk"
 Charge =  1 Multiplicity = 2

 SCF Done:  E(UB3LYP) =  -1257.00800114     A.U. after   28 cycles
 Normal termination of Gaussian 16 at Fri Dec 11 23:12:12 2020.
 Gaussian 16:  ES64L-G16RevA.03 25-Dec-2016

 ----------------------------------------------------------------------
 # B3LYP/6-311++G(d,p) empiricaldispersion=gd3bj scf=xqc pop=npa geom=c
 heck
 ----------------------------------------------------------------------

 -----------------------------------
 CID_75447871_JID_8715_Energie_anion
 -----------------------------------
 Structure from the checkpoint file:  "JID_8715.chk"
 Charge = -1 Multiplicity = 2

                         Standard orientation:
 ---------------------------------------------------------------------
 Center     Atomic      Atomic             Coordinates (Angstroms)
 Number     Number       Type             X           Y           Z
 ---------------------------------------------------------------------
      1          6           0        4.369788    0.687148    0.937357
      2          6           0        3.448704   -0.161161    0.061742
      3          6           0        3.891848   -0.118055   -1.401246
      4          6           0        3.350710   -1.589788    0.599978
      5          8           0        2.153785    0.522071    0.211966
      6          6           0        1.050189    0.047188   -0.402396
      7          8           0        0.991561   -0.926195   -1.133406
      8          7           0       -0.031817    0.812063   -0.022235
      9          6           0        0.060200    2.141631    0.625833
     10          6           0       -1.190829    2.881144    0.111238
     11          6           0       -1.628906    2.031804   -1.094088
     12          7           0       -1.232853    0.649513   -0.739696
     13         16           0       -2.432071   -0.158673    0.272266
     14          8           0       -2.317693    0.307095    1.657481
     15          8           0       -3.673651   -0.006755   -0.482358
     16          7           0       -1.982744   -1.745636    0.237335
     17          6           0       -0.985443   -2.228715    1.195540
     18          6           0       -1.966916   -2.394482   -1.079653
     19          1           0        5.387260    0.284683    0.909860
     20          1           0        4.022501    0.687250    1.975213
     21          1           0        4.395282    1.721399    0.580030
     22          1           0        4.904504   -0.526386   -1.488712
     23          1           0        3.219358   -0.702112   -2.030478
     24          1           0        3.909003    0.916258   -1.761034
     25          1           0        2.949999   -1.582752    1.619328
     26          1           0        2.708526   -2.204423   -0.031609
     27          1           0        4.349935   -2.037386    0.629523
     28          1           0        0.991076    2.620874    0.317172
     29          1           0        0.061026    2.032336    1.712128
     30          1           0       -1.972781    2.881862    0.873523
     31          1           0       -0.970711    3.915508   -0.165295
     32          1           0       -2.695596    2.063024   -1.311499
     33          1           0       -1.069927    2.293349   -1.998642
     34          1           0       -1.028508   -1.620977    2.098212
     35          1           0       -1.241289   -3.261934    1.452860
     36          1           0        0.022624   -2.204780    0.767586
     37          1           0       -2.812557   -2.035458   -1.666346
     38          1           0       -1.026774   -2.192753   -1.602565
     39          1           0       -2.086008   -3.470415   -0.918641
 ---------------------------------------------------------------------

 SCF Done:  E(UB3LYP) =  -1257.31475395     A.U. after   33 cycles
 SCF Done:  E(UB3LYP) =  -1257.31475395     a.u. after    1 cycles

 The electronic state is 2-A.
 Alpha  occ. eigenvalues --  -88.98933 -19.06878 -19.03873 -19.03870 -19.00867
 Alpha  occ. eigenvalues --  -14.29152 -14.28682 -14.26988 -10.23477 -10.15232
 Alpha  occ. eigenvalues --  -10.12597 -10.12033 -10.11718 -10.11616 -10.09136
 Alpha  occ. eigenvalues --  -10.06667 -10.06633 -10.06396  -8.04992  -6.01229
 Alpha  occ. eigenvalues --   -6.01211  -6.01181  -1.04903  -1.01974  -0.94204
 Alpha  occ. eigenvalues --   -0.93247  -0.92154  -0.86148  -0.76771  -0.71378
 Alpha  occ. eigenvalues --   -0.70672  -0.64306  -0.63389  -0.60361  -0.60196
 Alpha  occ. eigenvalues --   -0.59465  -0.55019  -0.53606  -0.49548  -0.46714
 Alpha  occ. eigenvalues --   -0.44702  -0.43172  -0.42304  -0.40531  -0.39793
 Alpha  occ. eigenvalues --   -0.39396  -0.38400  -0.37423  -0.37103  -0.36432
 Alpha  occ. eigenvalues --   -0.35684  -0.34719  -0.33238  -0.32896  -0.32768
 Alpha  occ. eigenvalues --   -0.32100  -0.31630  -0.30544  -0.30051  -0.29801
 Alpha  occ. eigenvalues --   -0.28664  -0.27745  -0.27399  -0.27017  -0.26642
 Alpha  occ. eigenvalues --   -0.26054  -0.25834  -0.24791  -0.24690  -0.23072
 Alpha  occ. eigenvalues --   -0.21322  -0.20360  -0.19001  -0.17585  -0.16096
 Alpha  occ. eigenvalues --    0.03990
 Alpha virt. eigenvalues --    0.05985   0.06315   0.07561   0.08197   0.08444
 Alpha virt. eigenvalues --    0.08760   0.09051   0.09333   0.10412   0.10644
 Alpha virt. eigenvalues --    0.11069   0.11431   0.11585   0.11725   0.12154

  Beta  occ. eigenvalues --  -88.98932 -19.06871 -19.03870 -19.03868 -19.00861
  Beta  occ. eigenvalues --  -14.29151 -14.28681 -14.26986 -10.23476 -10.15231
  Beta  occ. eigenvalues --  -10.12579 -10.12012 -10.11700 -10.11607 -10.09116
  Beta  occ. eigenvalues --  -10.06627 -10.06599 -10.06365  -8.04991  -6.01229
  Beta  occ. eigenvalues --   -6.01210  -6.01180  -1.04898  -1.01965  -0.94197
  Beta  occ. eigenvalues --   -0.93243  -0.92144  -0.86140  -0.76759  -0.71355
  Beta  occ. eigenvalues --   -0.70643  -0.64284  -0.63372  -0.60304  -0.60139
  Beta  occ. eigenvalues --   -0.59431  -0.54995  -0.53560  -0.49514  -0.46692
  Beta  occ. eigenvalues --   -0.44671  -0.43158  -0.42263  -0.40511  -0.39773
  Beta  occ. eigenvalues --   -0.39371  -0.38379  -0.37400  -0.37081  -0.36402
  Beta  occ. eigenvalues --   -0.35663  -0.34696  -0.33211  -0.32862  -0.32744
  Beta  occ. eigenvalues --   -0.32083  -0.31594  -0.30530  -0.30015  -0.29763
  Beta  occ. eigenvalues --   -0.28634  -0.27711  -0.27371  -0.27005  -0.26612
  Beta  occ. eigenvalues --   -0.26023  -0.25819  -0.24763  -0.24681  -0.23063
  Beta  occ. eigenvalues --   -0.21306  -0.20346  -0.18989  -0.17572  -0.16087
  Beta virt. eigenvalues --    0.06078   0.06846   0.07159   0.07909   0.08647
  Beta virt. eigenvalues --    0.08855   0.09177   0.09306   0.09605   0.10686
  Beta virt. eigenvalues --    0.11070   0.11334   0.11679   0.11719   0.11844

 Mulliken charges and spin densities:
               1          2
     1  C    0.345679  -0.784879
     2  C   -2.017042   1.970684
     3  C    0.782142  -1.205466
     4  C    1.354200  -1.802057
     5  O    0.156902   0.005014
     6  C    0.204227  -0.329068
     7  O   -0.198156   0.002722
     8  N   -0.915011   0.224898
     9  C    0.335454  -0.590075
    10  C   -0.291028  -0.096331
    11  C    0.134330  -0.489050
    12  N    0.533277  -0.061784
    13  S    0.915504  -0.379003
    14  O   -0.180674   0.010173
    15  O   -0.183053   0.009826
    16  N   -0.392675   0.074961
    17  C   -0.249873  -0.169866
    18  C   -0.288639  -0.154267
    19  H   -0.127291   0.275154
    20  H   -0.175381   0.332184
    21  H   -0.356679   0.519818
    22  H   -0.177609   0.344220
    23  H    0.085937   0.096204
    24  H   -0.179547   0.334248
    25  H   -0.011891   0.158536
    26  H   -0.130592   0.312954
    27  H   -0.288535   0.465833
    28  H    0.059835   0.132846
    29  H    0.065997   0.149552
    30  H    0.209744  -0.016838
    31  H   -0.581563   0.764973
    32  H    0.151944   0.050896
    33  H   -0.186492   0.361899
    34  H    0.099934   0.109338
    35  H   -0.148159   0.326063
    36  H    0.294432  -0.147544
    37  H    0.092965   0.080447
    38  H    0.249170  -0.023306
    39  H    0.008218   0.136093
 Sum of Mulliken charges =  -1.00000   1.00000

 Dipole moment (field-independent basis, Debye):
    X=             -5.6690    Y=             -2.5492    Z=             -0.0225  Tot=              6.2159
 Quadrupole moment (field-independent basis, Debye-Ang):
   XX=           -207.3883   YY=           -169.0359   ZZ=           -152.4560
   XY=             -0.9349   XZ=              1.3474   YZ=              5.5153

 Summary of Natural Population Analysis:

                                       Natural Population
                Natural  -----------------------------------------------
    Atom  No    Charge         Core      Valence    Rydberg      Total
 -----------------------------------------------------------------------
      C    1   -0.28906      0.99960     2.28246    0.00700     3.28906
      C    2    0.13574      0.99954     1.85010    0.01463     2.86426
      C    3   -0.30149      0.99960     2.29546    0.00644     3.30149
      C    4   -0.30193      0.99960     2.29555    0.00678     3.30193
      O    5   -0.29666      0.99985     3.28629    0.01052     4.29666
      C    6    0.47161      0.99965     1.50168    0.02706     2.52839
      O    7   -0.33065      0.99987     3.32597    0.00481     4.33065
      N    8   -0.18412      0.99964     2.67025    0.01424     3.68412
      C    9   -0.08549      0.99962     2.07572    0.01016     3.08549
      C   10   -0.20869      0.99963     2.20115    0.00791     3.20869
      C   11   -0.09637      0.99962     2.08488    0.01187     3.09637
      N   12   -0.24651      0.99975     2.72972    0.01705     3.74651
      S   13    1.16307      4.99924     1.73555    0.10213     6.83693
      O   14   -0.45785      0.99990     3.45267    0.00528     4.45785
      O   15   -0.45980      0.99990     3.45466    0.00524     4.45980
      N   16   -0.36788      0.99973     2.85438    0.01377     3.86788
      C   17   -0.18091      0.99963     2.17236    0.00892     3.18091
      C   18   -0.18356      0.99963     2.17644    0.00749     3.18356
      H   19    0.10351      0.00000     0.39509    0.00140     0.39649
      H   20    0.10368      0.00000     0.39501    0.00131     0.39632
      H   21    0.10627      0.00000     0.39211    0.00162     0.39373
      H   22    0.10371      0.00000     0.39522    0.00107     0.39629
      H   23    0.11320      0.00000     0.38576    0.00104     0.38680
      H   24    0.10486      0.00000     0.39382    0.00131     0.39514
      H   25    0.10250      0.00000     0.39625    0.00125     0.39750
      H   26    0.11202      0.00000     0.38672    0.00126     0.38798
      H   27    0.10525      0.00000     0.39355    0.00119     0.39475
      H   28    0.10938      0.00000     0.38855    0.00207     0.39062
      H   29    0.10354      0.00000     0.39536    0.00111     0.39646
      H   30    0.10517      0.00000     0.39358    0.00125     0.39483
      H   31    0.10935      0.00000     0.38879    0.00187     0.39065
      H   32    0.11316      0.00000     0.38581    0.00104     0.38684
      H   33    0.10303      0.00000     0.39563    0.00134     0.39697
      H   34    0.11308      0.00000     0.38574    0.00117     0.38692
      H   35    0.09547      0.00000     0.40353    0.00100     0.40453
      H   36    0.09999      0.00000     0.39863    0.00138     0.40001
      H   37    0.10752      0.00000     0.39149    0.00099     0.39248
      H   38    0.11071      0.00000     0.38800    0.00129     0.38929
      H   39    0.09515      0.00000     0.40384    0.00101     0.40485
 =======================================================================
   * Total *    0.00000     21.99397    52.69775    0.30828    75.00000

 Normal termination of Gaussian 16 at Fri Dec 11 23:41:30 2020.
