 Gaussian 16, Revision A.03,

 -----------------------------------------------------------
 # opt freq B3LYP/6-31G(d) empiricaldispersion=gd3bj scf=xqc
 -----------------------------------------------------------

 -------------------------------
 CID_141279121_JID_2431_neutraal
 -------------------------------
 Symbolic Z-matrix:
 Charge =  0 Multiplicity = 1

 SCF Done:  E(RB3LYP) =  -589.278319819     A.U. after   14 cycles
 SCF Done:  E(RB3LYP) =  -589.286140132     A.U. after   12 cycles
 SCF Done:  E(RB3LYP) =  -589.286845211     A.U. after   11 cycles
 SCF Done:  E(RB3LYP) =  -589.287136810     A.U. after   12 cycles
 SCF Done:  E(RB3LYP) =  -589.287239003     A.U. after   10 cycles
 SCF Done:  E(RB3LYP) =  -589.287288652     A.U. after   10 cycles
 SCF Done:  E(RB3LYP) =  -589.287309570     A.U. after   10 cycles
 SCF Done:  E(RB3LYP) =  -589.287311739     A.U. after    8 cycles
 SCF Done:  E(RB3LYP) =  -589.287313242     A.U. after    8 cycles
 SCF Done:  E(RB3LYP) =  -589.287316116     A.U. after    9 cycles
 SCF Done:  E(RB3LYP) =  -589.288635678     A.U. after   11 cycles
 SCF Done:  E(RB3LYP) =  -589.288727033     A.U. after   11 cycles
 SCF Done:  E(RB3LYP) =  -589.288775563     A.U. after   10 cycles
 SCF Done:  E(RB3LYP) =  -589.288781653     A.U. after    9 cycles
 SCF Done:  E(RB3LYP) =  -589.288781821     A.U. after    7 cycles
 SCF Done:  E(RB3LYP) =  -589.288781860     A.U. after    7 cycles
 Optimization completed.
    -- Stationary point found.
 Normal termination of Gaussian 16 at Wed Dec  9 17:27:11 2020.

 --------------------------------------------------------------------
 #N Geom=AllCheck Guess=TCheck SCRF=Check GenChk RB3LYP/6-31G(d) Freq
 --------------------------------------------------------------------

 Structure from the checkpoint file:  "JID_2431.chk"
 -------------------------------
 CID_141279121_JID_2431_neutraal
 -------------------------------
 Charge =  0 Multiplicity = 1

 SCF Done:  E(RB3LYP) =  -589.288781859     A.U. after    1 cycles

  Exact polarizability: 116.808  -2.174 112.361  -1.413  -2.231  69.452
 Approx polarizability: 159.637 -10.167 160.948  -0.573  -5.873 102.259

                      1                      2                      3
                      A                      A                      A
 Frequencies --     64.7479                73.1131                85.6591
 Red. masses --      3.3101                 4.0883                 3.5272
 Frc consts  --      0.0082                 0.0129                 0.0152
 IR Inten    --      0.3809                 0.3913                 4.1210

                      4                      5                      6
                      A                      A                      A
 Frequencies --    103.3033               127.1702               139.4458
 Red. masses --      2.2856                 1.2534                 2.0172
 Frc consts  --      0.0144                 0.0119                 0.0231
 IR Inten    --     10.0030                 2.5696                 1.0725

                      7                      8                      9
                      A                      A                      A
 Frequencies --    162.1660               191.5099               223.6214
 Red. masses --      1.6844                 2.6673                 3.1836
 Frc consts  --      0.0261                 0.0576                 0.0938
 IR Inten    --      1.7512                 3.9876                 1.0379

                     10                     11                     12
                      A                      A                      A
 Frequencies --    239.0985               252.9305               275.7651
 Red. masses --      1.2779                 2.6475                 2.1747
 Frc consts  --      0.0430                 0.0998                 0.0974
 IR Inten    --     40.0377                 3.8519                 3.1411

                     13                     14                     15
                      A                      A                      A
 Frequencies --    311.2993               368.3702               401.3042
 Red. masses --      2.6149                 2.4581                 1.5018
 Frc consts  --      0.1493                 0.1965                 0.1425
 IR Inten    --     10.3046                42.3391               105.7087

                     16                     17                     18
                      A                      A                      A
 Frequencies --    432.2232               489.8389               570.2478
 Red. masses --      4.7228                 4.3299                 4.3671
 Frc consts  --      0.5198                 0.6121                 0.8367
 IR Inten    --      1.7616                 9.7698                 8.7345

                     19                     20                     21
                      A                      A                      A
 Frequencies --    615.7621               666.0042               676.4271
 Red. masses --      3.9848                 3.6945                 5.7344
 Frc consts  --      0.8902                 0.9655                 1.5459
 IR Inten    --      5.1139                18.9311                 7.0587

                     22                     23                     24
                      A                      A                      A
 Frequencies --    712.1888               769.0153               861.8600
 Red. masses --     10.3216                 4.2526                 2.2345
 Frc consts  --      3.0845                 1.4818                 0.9779
 IR Inten    --      7.6988                44.0561                29.6006

                     25                     26                     27
                      A                      A                      A
 Frequencies --    880.7386               964.0384              1004.2298
 Red. masses --      1.5366                 1.7422                 2.7151
 Frc consts  --      0.7023                 0.9540                 1.6133
 IR Inten    --     96.7555                24.4709                44.2322

                     28                     29                     30
                      A                      A                      A
 Frequencies --   1015.8257              1044.8288              1064.8916
 Red. masses --      3.4547                 2.8923                 3.2141
 Frc consts  --      2.1004                 1.8603                 2.1474
 IR Inten    --     83.2963                53.0518                26.6985

                     31                     32                     33
                      A                      A                      A
 Frequencies --   1077.1419              1101.8659              1145.0659
 Red. masses --      1.4716                 2.2642                 2.6360
 Frc consts  --      1.0059                 1.6196                 2.0363
 IR Inten    --      2.8040                16.6129                42.5348

                     34                     35                     36
                      A                      A                      A
 Frequencies --   1191.2066              1222.8968              1230.5063
 Red. masses --      1.2600                 1.3968                 1.2643
 Frc consts  --      1.0534                 1.2307                 1.1279
 IR Inten    --      0.6531                27.2624                12.7789

                     37                     38                     39
                      A                      A                      A
 Frequencies --   1251.6620              1285.8933              1334.0335
 Red. masses --      2.3562                 2.5105                 3.0361
 Frc consts  --      2.1749                 2.4458                 3.1834
 IR Inten    --      5.8904                20.1134                79.0765

                     40                     41                     42
                      A                      A                      A
 Frequencies --   1353.9777              1369.7138              1419.3805
 Red. masses --      1.4821                 1.4992                 2.0466
 Frc consts  --      1.6008                 1.6572                 2.4293
 IR Inten    --      5.1289                15.5387                39.1381

                     43                     44                     45
                      A                      A                      A
 Frequencies --   1442.1749              1447.0978              1466.2005
 Red. masses --      1.5801                 1.3282                 1.4617
 Frc consts  --      1.9363                 1.6387                 1.8513
 IR Inten    --    151.6822                 5.9062                66.2521

                     46                     47                     48
                      A                      A                      A
 Frequencies --   1478.9565              1505.1424              1507.1067
 Red. masses --      1.2912                 1.0444                 1.0479
 Frc consts  --      1.6640                 1.3941                 1.4024
 IR Inten    --     44.7773                 3.1746                 6.1149

                     49                     50                     51
                      A                      A                      A
 Frequencies --   1519.2518              1526.8822              1530.6944
 Red. masses --      1.1558                 1.2990                 1.0722
 Frc consts  --      1.5718                 1.7844                 1.4801
 IR Inten    --     25.3055                55.8658                 1.3559

                     52                     53                     54
                      A                      A                      A
 Frequencies --   1533.8652              1550.5394              1611.0562
 Red. masses --      1.2206                 1.8404                 5.4765
 Frc consts  --      1.6920                 2.6069                 8.3748
 IR Inten    --      2.8528               105.4159               284.7760

                     55                     56                     57
                      A                      A                      A
 Frequencies --   1659.4734              1688.4613              3033.8950
 Red. masses --      6.9731                 1.0991                 1.0674
 Frc consts  --     11.3140                 1.8461                 5.7887
 IR Inten    --     23.8936                25.5587                46.9510

                     58                     59                     60
                      A                      A                      A
 Frequencies --   3046.1155              3046.7553              3067.0954
 Red. masses --      1.0524                 1.0522                 1.0294
 Frc consts  --      5.7535                 5.7547                 5.7055
 IR Inten    --     79.9519                11.9239                50.4235

                     61                     62                     63
                      A                      A                      A
 Frequencies --   3096.8168              3114.9824              3129.0200
 Red. masses --      1.1012                 1.0957                 1.1005
 Frc consts  --      6.2221                 6.2641                 6.3481
 IR Inten    --     19.6377                15.9165                22.3157

                     64                     65                     66
                      A                      A                      A
 Frequencies --   3130.9197              3138.6373              3174.4714
 Red. masses --      1.0986                 1.1074                 1.1069
 Frc consts  --      6.3450                 6.4275                 6.5721
 IR Inten    --      8.9967                23.9195                22.6619

                     67                     68                     69
                      A                      A                      A
 Frequencies --   3473.2027              3565.0507              3725.6688
 Red. masses --      1.0495                 1.0933                 1.0660
 Frc consts  --      7.4594                 8.1869                 8.7182
 IR Inten    --      0.5712                 0.2557                 8.5863

 - Thermochemistry -
 -------------------
 Temperature   298.150 Kelvin.  Pressure   1.00000 Atm.
 Atom     1 has atomic number  6 and mass  12.00000

 Molecular mass:   171.10078 amu.
 Principal axes and moments of inertia in atomic units:
                           1         2         3
     Eigenvalues --  1582.590592246.777823442.88944
           X            0.99974   0.02184  -0.00725
           Y           -0.02185   0.99976  -0.00052
           Z            0.00724   0.00067   0.99997
 This molecule is an asymmetric top.
 Rotational symmetry number  1.
 Warning -- assumption of classical behavior for rotation
           may cause significant error
 Rotational temperatures (Kelvin)      0.05473     0.03855     0.02516
 Rotational constants (GHZ):           1.14037     0.80326     0.52419
 Zero-point vibrational energy     556146.9 (Joules/Mol)
                                  132.92230 (Kcal/Mol)
 Warning -- explicit consideration of  19 degrees of freedom as
           vibrations may cause significant error
 Vibrational temperatures:     93.16   105.19   123.24   148.63   182.97
          (Kelvin)            200.63   233.32   275.54   321.74   344.01
                              363.91   396.76   447.89   530.00   577.39
                              621.87   704.77   820.46   885.94   958.23
                              973.23  1024.68  1106.44  1240.02  1267.19
                             1387.04  1444.86  1461.55  1503.28  1532.14
                             1549.77  1585.34  1647.49  1713.88  1759.48
                             1770.42  1800.86  1850.11  1919.38  1948.07
                             1970.71  2042.17  2074.97  2082.05  2109.54
                             2127.89  2165.56  2168.39  2185.86  2196.84
                             2202.33  2206.89  2230.88  2317.95  2387.61
                             2429.32  4365.10  4382.68  4383.60  4412.87
                             4455.63  4481.76  4501.96  4504.70  4515.80
                             4567.36  4997.16  5129.31  5360.41

 Zero-point correction=                           0.211825 (Hartree/Particle)
 Thermal correction to Energy=                    0.225119
 Thermal correction to Enthalpy=                  0.226063
 Thermal correction to Gibbs Free Energy=         0.172047
 Sum of electronic and zero-point Energies=           -589.076957
 Sum of electronic and thermal Energies=              -589.063663
 Sum of electronic and thermal Enthalpies=            -589.062719
 Sum of electronic and thermal Free Energies=         -589.116735

                     E (Thermal)             CV                S
                      KCal/Mol        Cal/Mol-Kelvin    Cal/Mol-Kelvin
 Total                  141.264             47.195            113.687
 Electronic               0.000              0.000              0.000
 Translational            0.889              2.981             41.319
 Rotational               0.889              2.981             30.882
 Vibrational            139.487             41.233             41.486
 Vibration     1          0.597              1.971              4.307
 Vibration     2          0.599              1.967              4.068
 Vibration     3          0.601              1.959              3.757
 Vibration     4          0.605              1.947              3.391
 Vibration     5          0.611              1.926              2.988
 Vibration     6          0.615              1.914              2.811
 Vibration     7          0.622              1.889              2.524
 Vibration     8          0.634              1.852              2.213
 Vibration     9          0.649              1.805              1.930
 Vibration    10          0.657              1.781              1.810
 Vibration    11          0.664              1.758              1.710
 Vibration    12          0.677              1.718              1.560
 Vibration    13          0.700              1.652              1.355
 Vibration    14          0.741              1.537              1.087
 Vibration    15          0.767              1.467              0.958
 Vibration    16          0.793              1.400              0.851
 Vibration    17          0.846              1.273              0.684
 Vibration    18          0.926              1.096              0.504
 Vibration    19          0.975              0.999              0.423

 Optimization completed.
    -- Stationary point found.
 Normal termination of Gaussian 16 at Wed Dec  9 17:32:44 2020.

 ----------------------------------------------------------------------
 # B3LYP/6-311++G(d,p) empiricaldispersion=gd3bj scf=xqc pop=npa geom=c
 heck
 ----------------------------------------------------------------------

 ---------------------------------------
 CID_141279121_JID_2431_Energie_neutraal
 ---------------------------------------
 Structure from the checkpoint file:  "JID_2431.chk"
 Charge =  0 Multiplicity = 1

 SCF Done:  E(RB3LYP) =  -589.473347650     A.U. after   13 cycles
 Normal termination of Gaussian 16 at Wed Dec  9 17:35:32 2020.

 ----------------------------------------------------------------------
 # B3LYP/6-311++G(d,p) empiricaldispersion=gd3bj scf=xqc pop=npa geom=c
 heck
 ----------------------------------------------------------------------

 -------------------------------------
 CID_141279121_JID_2431_Energie_kation
 -------------------------------------
 Structure from the checkpoint file:  "JID_2431.chk"
 Charge =  1 Multiplicity = 2

 SCF Done:  E(UB3LYP) =  -589.194553386     A.U. after   19 cycles
 Normal termination of Gaussian 16 at Wed Dec  9 17:40:35 2020.
 Gaussian 16:  ES64L-G16RevA.03 25-Dec-2016

 ----------------------------------------------------------------------
 # B3LYP/6-311++G(d,p) empiricaldispersion=gd3bj scf=xqc pop=npa geom=c
 heck
 ----------------------------------------------------------------------

 ------------------------------------
 CID_141279121_JID_2431_Energie_anion
 ------------------------------------
 Structure from the checkpoint file:  "JID_2431.chk"
 Charge = -1 Multiplicity = 2

                         Standard orientation:
 ---------------------------------------------------------------------
 Center     Atomic      Atomic             Coordinates (Angstroms)
 Number     Number       Type             X           Y           Z
 ---------------------------------------------------------------------
      1          6           0        0.752803    2.991859   -0.449411
      2          6           0        0.247872    1.604223   -0.220061
      3          6           0        0.953831    0.429056   -0.125837
      4          7           0       -0.010133   -0.568161    0.096722
      5          6           0       -1.213140    0.071534    0.097368
      6          7           0       -1.117730    1.366712   -0.081533
      7          8           0       -2.335070   -0.648390    0.274709
      8          6           0       -3.538181    0.128226    0.295585
      9          6           0        0.230267   -1.992793    0.230245
     10          7           0        0.555750   -2.579218   -1.066859
     11          6           0        2.403542    0.105810   -0.180791
     12          8           0        2.911834   -0.403220    1.065356
     13          1           0        0.438792    3.660593    0.360935
     14          1           0        0.350486    3.406503   -1.381571
     15          1           0        1.845017    3.017147   -0.510966
     16          1           0       -3.511623    0.856009    1.111924
     17          1           0       -3.665466    0.664350   -0.649326
     18          1           0       -4.346536   -0.588748    0.444759
     19          1           0        1.093303   -2.123224    0.887309
     20          1           0       -0.658851   -2.409912    0.720477
     21          1           0        0.909920   -3.524493   -0.933646
     22          1           0       -0.286031   -2.650277   -1.636382
     23          1           0        2.597360   -0.689514   -0.906045
     24          1           0        2.959154    0.999431   -0.497381
     25          1           0        2.643191    0.232188    1.748506
 ---------------------------------------------------------------------

 SCF Done:  E(UB3LYP) =  -589.459620958     A.U. after   29 cycles

 The electronic state is 2-A.
 Alpha  occ. eigenvalues --  -19.06405 -19.01980 -14.25294 -14.19243 -14.18224
 Alpha  occ. eigenvalues --  -10.17316 -10.12741 -10.12307 -10.11793 -10.08733
 Alpha  occ. eigenvalues --  -10.08667 -10.06621  -0.99233  -0.91968  -0.89824
 Alpha  occ. eigenvalues --   -0.80637  -0.75334  -0.67549  -0.62666  -0.61490
 Alpha  occ. eigenvalues --   -0.58071  -0.53858  -0.47678  -0.46505  -0.42776
 Alpha  occ. eigenvalues --   -0.41337  -0.39387  -0.38233  -0.36393  -0.36203
 Alpha  occ. eigenvalues --   -0.34127  -0.33513  -0.32895  -0.31974  -0.30204
 Alpha  occ. eigenvalues --   -0.29170  -0.28548  -0.28308  -0.25673  -0.24711
 Alpha  occ. eigenvalues --   -0.22150  -0.18427  -0.17508  -0.16426  -0.14960
 Alpha  occ. eigenvalues --   -0.10324   0.04530
 Alpha virt. eigenvalues --    0.06629   0.06937   0.08180   0.09528   0.09704
 Alpha virt. eigenvalues --    0.10152   0.10715   0.11134   0.11990   0.12348
 Alpha virt. eigenvalues --    0.12949   0.13664   0.14198   0.14941   0.15101

  Beta  occ. eigenvalues --  -19.06392 -19.01949 -14.25297 -14.19185 -14.18218
  Beta  occ. eigenvalues --  -10.17298 -10.12715 -10.12278 -10.11776 -10.08721
  Beta  occ. eigenvalues --  -10.08658 -10.06600  -0.99209  -0.91908  -0.89803
  Beta  occ. eigenvalues --   -0.80588  -0.75269  -0.67513  -0.62623  -0.61429
  Beta  occ. eigenvalues --   -0.57997  -0.53801  -0.47642  -0.46469  -0.42729
  Beta  occ. eigenvalues --   -0.41292  -0.39326  -0.38182  -0.36332  -0.36147
  Beta  occ. eigenvalues --   -0.34081  -0.33466  -0.32856  -0.31929  -0.30160
  Beta  occ. eigenvalues --   -0.29136  -0.28518  -0.28265  -0.25640  -0.24680
  Beta  occ. eigenvalues --   -0.22116  -0.18390  -0.17476  -0.16406  -0.14906
  Beta  occ. eigenvalues --   -0.10252
  Beta virt. eigenvalues --    0.06740   0.07506   0.07936   0.08713   0.09824
  Beta virt. eigenvalues --    0.10297   0.10762   0.11019   0.11421   0.12269
  Beta virt. eigenvalues --    0.12658   0.13136   0.13985   0.14554   0.14975

 Mulliken charges and spin densities:
               1          2
     1  C    0.580868  -1.070845
     2  C   -0.572783   0.391329
     3  C   -0.405831   0.684794
     4  N   -0.129396   0.160850
     5  C   -0.124708   0.289505
     6  N   -0.154714   0.068317
     7  O   -0.230299   0.059150
     8  C    0.746780  -0.982528
     9  C    1.313100  -1.737670
    10  N   -0.510139   0.176252
    11  C    0.281299  -1.020113
    12  O   -0.234439   0.036003
    13  H   -0.083606   0.237192
    14  H   -0.015776   0.165170
    15  H   -0.174844   0.291874
    16  H   -0.110311   0.282627
    17  H   -0.030835   0.204477
    18  H   -0.396888   0.542389
    19  H   -0.096103   0.313668
    20  H   -0.281843   0.470889
    21  H   -0.278797   0.519190
    22  H   -0.153948   0.385375
    23  H    0.142508   0.074459
    24  H   -0.051847   0.190551
    25  H   -0.027446   0.267095
 Sum of Mulliken charges =  -1.00000   1.00000

 Dipole moment (field-independent basis, Debye):
    X=              0.1196    Y=              3.5686    Z=             -0.1760  Tot=              3.5749
 Quadrupole moment (field-independent basis, Debye-Ang):
   XX=           -124.5394   YY=           -127.4155   ZZ=            -99.1969
   XY=             -0.2131   XZ=             -1.6203   YZ=             -4.4210

 Summary of Natural Population Analysis:

                                       Natural Population
                Natural  -----------------------------------------------
    Atom  No    Charge         Core      Valence    Rydberg      Total
 -----------------------------------------------------------------------
      C    1   -0.29355      0.99963     2.28878    0.00514     3.29355
      C    2    0.06661      0.99948     1.92104    0.01286     2.93339
      C    3    0.03389      0.99944     1.95405    0.01261     2.96611
      N    4   -0.22194      0.99959     2.70993    0.01242     3.72194
      C    5    0.36306      0.99949     1.62006    0.01738     2.63694
      N    6   -0.29890      0.99966     2.78896    0.01027     3.79890
      O    7   -0.27233      0.99985     3.26365    0.00883     4.27233
      C    8   -0.09589      0.99959     2.08824    0.00806     3.09589
      C    9    0.00301      0.99963     1.98311    0.01425     2.99699
      N   10   -0.42210      0.99977     2.91216    0.01017     3.92210
      C   11   -0.03132      0.99954     2.02005    0.01172     3.03132
      O   12   -0.37074      0.99991     3.36394    0.00690     4.37074
      H   13    0.10362      0.00000     0.39455    0.00183     0.39638
      H   14    0.10160      0.00000     0.39682    0.00158     0.39840
      H   15    0.10064      0.00000     0.39798    0.00139     0.39936
      H   16    0.08886      0.00000     0.40896    0.00217     0.41114
      H   17    0.08878      0.00000     0.40907    0.00214     0.41122
      H   18    0.09038      0.00000     0.40792    0.00170     0.40962
      H   19    0.10302      0.00000     0.39493    0.00205     0.39698
      H   20    0.09255      0.00000     0.40445    0.00299     0.40745
      H   21    0.18085      0.00000     0.31453    0.00462     0.31915
      H   22    0.17737      0.00000     0.31965    0.00299     0.32263
      H   23    0.10090      0.00000     0.39704    0.00206     0.39910
      H   24    0.08424      0.00000     0.41413    0.00163     0.41576
      H   25    0.22737      0.00000     0.26775    0.00488     0.27263
 =======================================================================
   * Total *    0.00000     11.99558    33.84176    0.16265    46.00000

 Normal termination of Gaussian 16 at Wed Dec  9 17:51:02 2020.
