 Gaussian 16, Revision A.03,

 -----------------------------------------------------------
 # opt freq B3LYP/6-31G(d) empiricaldispersion=gd3bj scf=xqc
 -----------------------------------------------------------

 ------------------------------
 CID_126583284_JID_848_neutraal
 ------------------------------
 Symbolic Z-matrix:
 Charge =  0 Multiplicity = 1

 SCF Done:  E(RB3LYP) =  -420.342582488     A.U. after   15 cycles
 SCF Done:  E(RB3LYP) =  -420.347377108     A.U. after   12 cycles
 SCF Done:  E(RB3LYP) =  -420.348175391     A.U. after   12 cycles
 SCF Done:  E(RB3LYP) =  -420.348340757     A.U. after   12 cycles
 SCF Done:  E(RB3LYP) =  -420.348369754     A.U. after   10 cycles
 SCF Done:  E(RB3LYP) =  -420.348374390     A.U. after    9 cycles
 SCF Done:  E(RB3LYP) =  -420.348375632     A.U. after    8 cycles
 Optimization completed.
    -- Stationary point found.

 1\1\GINC-NODE103\FOpt\RB3LYP\6-31G(d)\C8H10N2\VSC10255\08-Dec-2020\0\\
 # opt freq B3LYP/6-31G(d) empiricaldispersion=gd3bj scf=xqc\\CID_12658
 3284_JID_848_neutraal\\0,1\C,1.0544456952,0.0930833074,-0.0460501512\C
 ,0.5746527255,1.3593671753,0.598164093\C,-0.0079811612,1.3875517771,1.
 8189656569\C,-0.5696378606,2.6087311399,2.3811236718\C,-0.2474396366,3
 .7885395721,1.8115005875\C,-0.6796619762,5.1577607914,1.9648574497\N,-
 0.2465393873,5.9311603825,1.0123385338\N,0.4249039608,5.1482589109,0.0
 788277128\C,0.7594965475,3.8430742704,0.6829677963\C,0.6512521685,2.63

 Normal termination of Gaussian 16 at Tue Dec  8 12:49:40 2020.

 --------------------------------------------------------------------
 #N Geom=AllCheck Guess=TCheck SCRF=Check GenChk RB3LYP/6-31G(d) Freq
 --------------------------------------------------------------------

 Structure from the checkpoint file:  "JID_848.chk"
 ------------------------------
 CID_126583284_JID_848_neutraal
 ------------------------------
 Charge =  0 Multiplicity = 1

 SCF Done:  E(RB3LYP) =  -420.348375632     A.U. after    1 cycles

  Exact polarizability: 134.249  -2.830 105.030   0.088  -1.770  52.110
 Approx polarizability: 213.062 -20.988 190.581  -0.625  -0.385  80.889

                      1                      2                      3
                      A                      A                      A
 Frequencies --    109.5641               163.7183               199.1766
 Red. masses --      3.2172                 2.0374                 1.3235
 Frc consts  --      0.0228                 0.0322                 0.0309
 IR Inten    --      0.2148                 0.5612                 0.1468

                      4                      5                      6
                      A                      A                      A
 Frequencies --    260.0890               288.3168               359.8455
 Red. masses --      3.4378                 3.2411                 2.3965
 Frc consts  --      0.1370                 0.1587                 0.1828
 IR Inten    --      1.1581                 0.7272                 3.3470

                      7                      8                      9
                      A                      A                      A
 Frequencies --    399.5203               439.3318               507.2902
 Red. masses --      3.3820                 5.1457                 2.5168
 Frc consts  --      0.3181                 0.5852                 0.3816
 IR Inten    --      4.4847                 1.3554                 2.7678

                     10                     11                     12
                      A                      A                      A
 Frequencies --    532.1816               600.1357               658.1861
 Red. masses --      3.6449                 2.9397                 3.3151
 Frc consts  --      0.6082                 0.6238                 0.8461
 IR Inten    --      0.9278                37.0919                 6.1043

                     13                     14                     15
                      A                      A                      A
 Frequencies --    684.5261               740.3339               800.8576
 Red. masses --      2.0925                 3.8772                 2.7187
 Frc consts  --      0.5777                 1.2521                 1.0274
 IR Inten    --    133.8571                26.3522                21.0987

                     16                     17                     18
                      A                      A                      A
 Frequencies --    838.8193               864.7840               867.2292
 Red. masses --      1.3113                 1.6422                 3.0861
 Frc consts  --      0.5436                 0.7236                 1.3675
 IR Inten    --     25.2645                28.1378                35.7413

                     19                     20                     21
                      A                      A                      A
 Frequencies --    896.3428               912.7100               985.5150
 Red. masses --      2.8870                 1.6206                 1.7952
 Frc consts  --      1.3666                 0.7954                 1.0273
 IR Inten    --      7.2844                 8.1343                11.2642

                     22                     23                     24
                      A                      A                      A
 Frequencies --   1002.7999              1050.6450              1070.4612
 Red. masses --      1.7425                 2.5805                 2.1148
 Frc consts  --      1.0324                 1.6783                 1.4278
 IR Inten    --      3.7387                18.9901                 1.1979

                     25                     26                     27
                      A                      A                      A
 Frequencies --   1078.8413              1102.5687              1134.2527
 Red. masses --      1.8247                 1.5745                 2.3293
 Frc consts  --      1.2513                 1.1277                 1.7656
 IR Inten    --      5.8919                 4.8401                 1.2114

                     28                     29                     30
                      A                      A                      A
 Frequencies --   1185.1180              1207.6725              1231.4899
 Red. masses --      1.7092                 1.5955                 1.8591
 Frc consts  --      1.4144                 1.3711                 1.6612
 IR Inten    --      2.0723                 1.3792                 8.3797

                     31                     32                     33
                      A                      A                      A
 Frequencies --   1280.3893              1315.8380              1340.1747
 Red. masses --      1.6305                 1.5473                 1.6552
 Frc consts  --      1.5749                 1.5785                 1.7516
 IR Inten    --      6.5093                20.9220                 0.3511

                     34                     35                     36
                      A                      A                      A
 Frequencies --   1376.9814              1384.1378              1408.3615
 Red. masses --      1.6301                 1.6369                 2.0303
 Frc consts  --      1.8210                 1.8477                 2.3727
 IR Inten    --      4.7522                 1.0342                 3.4757

                     37                     38                     39
                      A                      A                      A
 Frequencies --   1441.8135              1442.9580              1502.1757
 Red. masses --      1.3700                 1.3931                 1.0756
 Frc consts  --      1.6779                 1.7090                 1.4300
 IR Inten    --      3.6564                10.5956                 5.3245

                     40                     41                     42
                      A                      A                      A
 Frequencies --   1507.5761              1517.9679              1588.9834
 Red. masses --      1.0696                 1.0797                 4.7871
 Frc consts  --      1.4322                 1.4659                 7.1213
 IR Inten    --      4.3005                 7.0908                 3.0992

                     43                     44                     45
                      A                      A                      A
 Frequencies --   1653.5158              1727.6085              2924.3270
 Red. masses --      6.9005                 6.4940                 1.0808
 Frc consts  --     11.1160                11.4197                 5.4457
 IR Inten    --      7.7704                 7.4713                46.8996

                     46                     47                     48
                      A                      A                      A
 Frequencies --   2997.4090              3021.4899              3063.2783
 Red. masses --      1.0692                 1.0400                 1.0989
 Frc consts  --      5.6595                 5.5938                 6.0757
 IR Inten    --     24.0183                48.1096                22.4212

                     49                     50                     51
                      A                      A                      A
 Frequencies --   3078.1028              3123.2166              3174.5984
 Red. masses --      1.0915                 1.0989                 1.0887
 Frc consts  --      6.0930                 6.3154                 6.4645
 IR Inten    --     32.2104                20.7931                31.4301

                     52                     53                     54
                      A                      A                      A
 Frequencies --   3196.7800              3238.0268              3559.9971
 Red. masses --      1.0923                 1.0945                 1.0773
 Frc consts  --      6.5767                 6.7615                 8.0442
 IR Inten    --     19.1277                13.4577                 9.3676

 - Thermochemistry -
 -------------------
 Temperature   298.150 Kelvin.  Pressure   1.00000 Atm.
 Atom     1 has atomic number  6 and mass  12.00000

 Molecular mass:   134.08440 amu.
 Principal axes and moments of inertia in atomic units:
                           1         2         3
     Eigenvalues --   556.014951792.274382282.62347
           X            0.99985   0.01717   0.00300
           Y           -0.01715   0.99981  -0.00940
           Z           -0.00316   0.00935   0.99995
 This molecule is an asymmetric top.
 Rotational symmetry number  1.
 Warning -- assumption of classical behavior for rotation
           may cause significant error
 Rotational temperatures (Kelvin)      0.15578     0.04833     0.03794
 Rotational constants (GHZ):           3.24585     1.00696     0.79064
 Zero-point vibrational energy     442845.8 (Joules/Mol)
                                  105.84268 (Kcal/Mol)
 Warning -- explicit consideration of  11 degrees of freedom as
           vibrations may cause significant error
 Vibrational temperatures:    157.64   235.55   286.57   374.21   414.82
          (Kelvin)            517.74   574.82   632.10   729.88   765.69
                              863.46   946.98   984.88  1065.18  1152.26
                             1206.87  1244.23  1247.75  1289.64  1313.19
                             1417.94  1442.81  1511.64  1540.15  1552.21
                             1586.35  1631.94  1705.12  1737.57  1771.84
                             1842.19  1893.20  1928.21  1981.17  1991.47
                             2026.32  2074.45  2076.09  2161.30  2169.07
                             2184.02  2286.19  2379.04  2485.64  4207.45
                             4312.60  4347.25  4407.37  4428.70  4493.61
                             4567.54  4599.45  4658.80  5122.04

 Zero-point correction=                           0.168671 (Hartree/Particle)
 Thermal correction to Energy=                    0.176891
 Thermal correction to Enthalpy=                  0.177835
 Thermal correction to Gibbs Free Energy=         0.135908
 Sum of electronic and zero-point Energies=           -420.179705
 Sum of electronic and thermal Energies=              -420.171485
 Sum of electronic and thermal Enthalpies=            -420.170541
 Sum of electronic and thermal Free Energies=         -420.212468

                     E (Thermal)             CV                S
                      KCal/Mol        Cal/Mol-Kelvin    Cal/Mol-Kelvin
 Total                  111.001             32.891             88.244
 Electronic               0.000              0.000              0.000
 Translational            0.889              2.981             40.592
 Rotational               0.889              2.981             29.210
 Vibrational            109.223             26.929             18.441
 Vibration     1          0.606              1.942              3.277
 Vibration     2          0.623              1.887              2.506
 Vibration     3          0.637              1.841              2.141
 Vibration     4          0.668              1.746              1.661
 Vibration     5          0.685              1.695              1.484
 Vibration     6          0.734              1.555              1.123
 Vibration     7          0.766              1.471              0.964
 Vibration     8          0.799              1.384              0.829
 Vibration     9          0.862              1.234              0.640
 Vibration    10          0.887              1.179              0.582
 Vibration    11          0.958              1.032              0.449

 Optimization completed.
    -- Stationary point found.

 1\1\GINC-NODE103\Freq\RB3LYP\6-31G(d)\C8H10N2\VSC10255\08-Dec-2020\0\\
 #N Geom=AllCheck Guess=TCheck SCRF=Check GenChk RB3LYP/6-31G(d) Freq\\
 CID_126583284_JID_848_neutraal\\0,1\C,1.0544456952,0.0930833074,-0.046
 0501512\C,0.5746527255,1.3593671753,0.598164093\C,-0.0079811612,1.3875
 517771,1.8189656569\C,-0.5696378606,2.6087311399,2.3811236718\C,-0.247
 4396366,3.7885395721,1.8115005875\C,-0.6796619762,5.1577607914,1.96485
 74497\N,-0.2465393873,5.9311603825,1.0123385338\N,0.4249039608,5.14825
 89109,0.0788277128\C,0.7594965475,3.8430742704,0.6829677963\C,0.651252

 Normal termination of Gaussian 16 at Tue Dec  8 13:04:03 2020.

 ----------------------------------------------------------------------
 # B3LYP/6-311++G(d,p) empiricaldispersion=gd3bj scf=xqc pop=npa geom=c
 heck
 ----------------------------------------------------------------------

 --------------------------------------
 CID_126583284_JID_848_Energie_neutraal
 --------------------------------------
 Structure from the checkpoint file:  "JID_848.chk"
 Charge =  0 Multiplicity = 1

 SCF Done:  E(RB3LYP) =  -420.462218450     A.U. after   16 cycles
 Normal termination of Gaussian 16 at Tue Dec  8 13:08:46 2020.

 ----------------------------------------------------------------------
 # B3LYP/6-311++G(d,p) empiricaldispersion=gd3bj scf=xqc pop=npa geom=c
 heck
 ----------------------------------------------------------------------

 ------------------------------------
 CID_126583284_JID_848_Energie_kation
 ------------------------------------
 Structure from the checkpoint file:  "JID_848.chk"
 Charge =  1 Multiplicity = 2

 SCF Done:  E(UB3LYP) =  -420.193613530     A.U. after   21 cycles
 Normal termination of Gaussian 16 at Tue Dec  8 13:17:05 2020.
 Gaussian 16:  ES64L-G16RevA.03 25-Dec-2016

 -----------------------------------
 CID_126583284_JID_848_Energie_anion
 -----------------------------------
 Structure from the checkpoint file:  "JID_848.chk"
 Charge = -1 Multiplicity = 2

                         Standard orientation:
 ---------------------------------------------------------------------
 Center     Atomic      Atomic             Coordinates (Angstroms)
 Number     Number       Type             X           Y           Z
 ---------------------------------------------------------------------
      1          6           0       -3.257413   -0.560040   -0.030491
      2          6           0       -1.840624   -0.068887   -0.017598
      3          6           0       -1.518204    1.241596    0.078788
      4          6           0       -0.142490    1.710315   -0.023553
      5          6           0        0.855527    0.808543    0.081326
      6          6           0        2.288343    0.833556   -0.096193
      7          7           0        2.812745   -0.357036   -0.119194
      8          7           0        1.785205   -1.293210   -0.064850
      9          6           0        0.548492   -0.637557    0.405367
     10          6           0       -0.744755   -1.100262   -0.244189
     11          1           0       -3.473309   -1.104619   -0.961350
     12          1           0       -3.974294    0.262310    0.056122
     13          1           0       -3.444933   -1.266294    0.790275
     14          1           0       -2.310539    1.981511    0.168284
     15          1           0        0.052994    2.760897   -0.220125
     16          1           0        2.916521    1.705648   -0.235718
     17          1           0        2.088697   -2.114218    0.448241
     18          1           0        0.452799   -0.728993    1.505149
     19          1           0       -0.580167   -1.228306   -1.327577
     20          1           0       -1.046689   -2.079802    0.144274
 ---------------------------------------------------------------------

 SCF Done:  E(UB3LYP) =  -420.462091135     A.U. after   30 cycles

 The electronic state is 2-A.
 Alpha  occ. eigenvalues --  -14.18370 -14.16143 -10.05150 -10.03342 -10.03101
 Alpha  occ. eigenvalues --  -10.02375 -10.01022 -10.00871 -10.00251  -9.99820
 Alpha  occ. eigenvalues --   -0.85030  -0.69049  -0.65301  -0.62095  -0.57954
 Alpha  occ. eigenvalues --   -0.54268  -0.47347  -0.43334  -0.41893  -0.37565
 Alpha  occ. eigenvalues --   -0.33680  -0.32624  -0.30404  -0.29073  -0.28356
 Alpha  occ. eigenvalues --   -0.26241  -0.25622  -0.24845  -0.23183  -0.19995
 Alpha  occ. eigenvalues --   -0.18857  -0.17312  -0.16271  -0.12560  -0.10043
 Alpha  occ. eigenvalues --   -0.04198   0.05565
 Alpha virt. eigenvalues --    0.08702   0.10095   0.10272   0.11559   0.11693
 Alpha virt. eigenvalues --    0.12115   0.13137   0.14012   0.14471   0.15256
 Alpha virt. eigenvalues --    0.16043   0.17763   0.18304   0.18556   0.19039

  Beta  occ. eigenvalues --  -14.18282 -14.15614 -10.05167 -10.03366 -10.03144
  Beta  occ. eigenvalues --  -10.02371 -10.00954 -10.00599 -10.00054  -9.99610
  Beta  occ. eigenvalues --   -0.84494  -0.68629  -0.64957  -0.61630  -0.57720
  Beta  occ. eigenvalues --   -0.54004  -0.47155  -0.43004  -0.41469  -0.37303
  Beta  occ. eigenvalues --   -0.33390  -0.32310  -0.30178  -0.28713  -0.28068
  Beta  occ. eigenvalues --   -0.26044  -0.25487  -0.24501  -0.22932  -0.19193
  Beta  occ. eigenvalues --   -0.18361  -0.17020  -0.15214  -0.11925  -0.09163
  Beta  occ. eigenvalues --   -0.02558
  Beta virt. eigenvalues --    0.08695   0.09973   0.10228   0.11200   0.11668
  Beta virt. eigenvalues --    0.12087   0.12541   0.13264   0.13929   0.14597
  Beta virt. eigenvalues --    0.15294   0.16618   0.17814   0.18419   0.18926

 Mulliken charges and spin densities:
               1          2
     1  C   -0.149735  -0.432070
     2  C    0.895445   0.630057
     3  C   -0.715405  -0.556855
     4  C   -0.864425   0.670477
     5  C    0.891273  -0.248819
     6  C   -0.213440  -0.233257
     7  N   -0.274371   0.309607
     8  N    0.106052  -0.037456
     9  C   -0.664356   0.241778
    10  C   -0.388336  -0.235530
    11  H    0.116926  -0.001709
    12  H    0.076892   0.036963
    13  H   -0.128173   0.284655
    14  H    0.065317   0.005109
    15  H    0.059254   0.026477
    16  H    0.107296   0.003216
    17  H    0.148099   0.073455
    18  H   -0.104851   0.247016
    19  H    0.145935  -0.014534
    20  H   -0.109395   0.231422
 Sum of Mulliken charges =  -1.00000   1.00000

 Dipole moment (field-independent basis, Debye):
    X=             -1.5796    Y=              0.6393    Z=             -0.7118  Tot=              1.8468
 Quadrupole moment (field-independent basis, Debye-Ang):
   XX=            -97.3175   YY=            -75.0507   ZZ=            -74.1320
   XY=             -0.2584   XZ=              5.1639   YZ=             -0.5865

 Summary of Natural Population Analysis:

                                       Natural Population
                Natural  -----------------------------------------------
    Atom  No    Charge         Core      Valence    Rydberg      Total
 -----------------------------------------------------------------------
      C    1   -0.29482      0.99963     2.28998    0.00520     3.29482
      C    2    0.06472      0.99951     1.92528    0.01049     2.93528
      C    3   -0.14193      0.99948     2.13198    0.01047     3.14193
      C    4   -0.08071      0.99949     2.07161    0.00961     3.08071
      C    5   -0.00875      0.99951     1.99753    0.01171     3.00875
      C    6   -0.02859      0.99959     2.01311    0.01590     3.02859
      N    7   -0.06456      0.99972     2.54966    0.01519     3.56456
      N    8   -0.22867      0.99972     2.71328    0.01567     3.72867
      C    9   -0.02291      0.99955     2.00992    0.01344     3.02291
      C   10   -0.20447      0.99958     2.19247    0.01242     3.20447
      H   11    0.09470      0.00000     0.40426    0.00104     0.40530
      H   12    0.09418      0.00000     0.40500    0.00082     0.40582
      H   13    0.10018      0.00000     0.39789    0.00193     0.39982
      H   14    0.08784      0.00000     0.41119    0.00097     0.41216
      H   15    0.08705      0.00000     0.41154    0.00142     0.41295
      H   16    0.08629      0.00000     0.41248    0.00123     0.41371
      H   17    0.17183      0.00000     0.32548    0.00269     0.32817
      H   18    0.08998      0.00000     0.40709    0.00293     0.41002
      H   19    0.10202      0.00000     0.39618    0.00180     0.39798
      H   20    0.09663      0.00000     0.40137    0.00200     0.40337
 =======================================================================
   * Total *    0.00000      9.99577    25.86730    0.13693    36.00000

 Normal termination of Gaussian 16 at Tue Dec  8 13:28:18 2020.
