 Gaussian 16, Revision A.03,

 -----------------------------------------------------------
 # opt freq B3LYP/6-31G(d) empiricaldispersion=gd3bj scf=xqc
 -----------------------------------------------------------

 ------------------------------
 CID_84631924_JID_8568_neutraal
 ------------------------------
 Symbolic Z-matrix:
 Charge =  0 Multiplicity = 1

 SCF Done:  E(RB3LYP) =  -788.333106194     A.U. after   15 cycles
 SCF Done:  E(RB3LYP) =  -788.337746699     A.U. after   13 cycles
 SCF Done:  E(RB3LYP) =  -788.336207815     A.U. after   13 cycles
 SCF Done:  E(RB3LYP) =  -788.337582133     A.U. after   13 cycles
 SCF Done:  E(RB3LYP) =  -788.339123477     A.U. after   10 cycles
 SCF Done:  E(RB3LYP) =  -788.339782048     A.U. after   12 cycles
 SCF Done:  E(RB3LYP) =  -788.339838474     A.U. after   11 cycles
 SCF Done:  E(RB3LYP) =  -788.339857553     A.U. after   11 cycles
 SCF Done:  E(RB3LYP) =  -788.339889788     A.U. after   11 cycles
 SCF Done:  E(RB3LYP) =  -788.339900169     A.U. after   10 cycles
 SCF Done:  E(RB3LYP) =  -788.339936504     A.U. after    9 cycles
 SCF Done:  E(RB3LYP) =  -788.339935921     A.U. after    9 cycles
 SCF Done:  E(RB3LYP) =  -788.339936705     A.U. after    9 cycles
 SCF Done:  E(RB3LYP) =  -788.339936752     A.U. after    6 cycles
 SCF Done:  E(RB3LYP) =  -788.339936789     A.U. after    7 cycles
 Optimization completed.
    -- Stationary point found.
 Normal termination of Gaussian 16 at Fri Dec 11 21:36:50 2020.

 --------------------------------------------------------------------
 #N Geom=AllCheck Guess=TCheck SCRF=Check GenChk RB3LYP/6-31G(d) Freq
 --------------------------------------------------------------------

 Structure from the checkpoint file:  "JID_8568.chk"
 ------------------------------
 CID_84631924_JID_8568_neutraal
 ------------------------------
 Charge =  0 Multiplicity = 1

 SCF Done:  E(RB3LYP) =  -788.339936789     A.U. after    1 cycles

  Exact polarizability: 208.367  -0.538 185.821   7.628   7.105 103.253
 Approx polarizability: 293.115   4.932 315.257  15.438  22.033 157.442

                      1                      2                      3
                      A                      A                      A
 Frequencies --     32.6327                47.6924                66.5493
 Red. masses --      6.9667                 4.7345                 2.7077
 Frc consts  --      0.0044                 0.0063                 0.0071
 IR Inten    --      0.8619                 1.0268                 0.1943

                      4                      5                      6
                      A                      A                      A
 Frequencies --     76.9762               107.4234               121.7107
 Red. masses --      2.7591                 3.3213                 1.4863
 Frc consts  --      0.0096                 0.0226                 0.0130
 IR Inten    --      1.7260                 2.8419                 0.7743

                      7                      8                      9
                      A                      A                      A
 Frequencies --    154.0502               166.2679               184.8849
 Red. masses --      3.7896                 4.2938                 2.1753
 Frc consts  --      0.0530                 0.0699                 0.0438
 IR Inten    --      0.3719                 0.3896                 1.4694

                     10                     11                     12
                      A                      A                      A
 Frequencies --    228.1098               241.0119               249.2163
 Red. masses --      1.4634                 1.2448                 2.1633
 Frc consts  --      0.0449                 0.0426                 0.0792
 IR Inten    --      0.2741                 0.8935                 1.9241

                     13                     14                     15
                      A                      A                      A
 Frequencies --    261.2470               272.4993               278.3036
 Red. masses --      2.7681                 1.2187                 2.7348
 Frc consts  --      0.1113                 0.0533                 0.1248
 IR Inten    --      0.2241                 0.8142                 0.7102

                     16                     17                     18
                      A                      A                      A
 Frequencies --    281.7336               302.6329               324.4801
 Red. masses --      2.5987                 3.0416                 3.4839
 Frc consts  --      0.1215                 0.1641                 0.2161
 IR Inten    --      0.3954                 0.9499                 1.4408

                     19                     20                     21
                      A                      A                      A
 Frequencies --    353.1257               400.3942               438.8329
 Red. masses --      2.9115                 2.8234                 3.2595
 Frc consts  --      0.2139                 0.2667                 0.3698
 IR Inten    --      0.7137                 1.1107                 1.8007

                     22                     23                     24
                      A                      A                      A
 Frequencies --    467.3557               497.5196               516.9226
 Red. masses --      2.7598                 4.7041                 3.7609
 Frc consts  --      0.3552                 0.6860                 0.5921
 IR Inten    --      2.1471                 0.4857                 0.5538

                     25                     26                     27
                      A                      A                      A
 Frequencies --    527.4541               579.8631               581.9269
 Red. masses --      2.9969                 3.5551                 4.1483
 Frc consts  --      0.4912                 0.7043                 0.8277
 IR Inten    --      3.0058                21.4407                 0.5032

                     28                     29                     30
                      A                      A                      A
 Frequencies --    607.8772               618.2715               646.3937
 Red. masses --      3.7495                 3.7130                 1.7260
 Frc consts  --      0.8163                 0.8363                 0.4249
 IR Inten    --      6.6096                29.5245                51.5596

                     31                     32                     33
                      A                      A                      A
 Frequencies --    664.4588               695.0165               744.6396
 Red. masses --      3.7131                 3.4817                 3.4093
 Frc consts  --      0.9659                 0.9909                 1.1138
 IR Inten    --      6.3603                47.2172                26.1021

                     34                     35                     36
                      A                      A                      A
 Frequencies --    761.0292               781.0850               799.9015
 Red. masses --      1.5527                 4.4838                 3.0195
 Frc consts  --      0.5298                 1.6117                 1.1383
 IR Inten    --     26.5023                10.7734                14.3771

                     37                     38                     39
                      A                      A                      A
 Frequencies --    847.6161               854.9316               889.2248
 Red. masses --      1.4646                 2.7671                 1.3641
 Frc consts  --      0.6200                 1.1916                 0.6355
 IR Inten    --     19.6704                 3.0681                 0.2485

                     40                     41                     42
                      A                      A                      A
 Frequencies --    896.4583               913.4681               938.2177
 Red. masses --      3.6605                 2.8340                 2.1362
 Frc consts  --      1.7332                 1.3933                 1.1079
 IR Inten    --      1.6491                 5.3076                 9.6281

                     43                     44                     45
                      A                      A                      A
 Frequencies --    948.4076               956.6892              1005.8342
 Red. masses --      1.2538                 1.5377                 1.9313
 Frc consts  --      0.6644                 0.8292                 1.1512
 IR Inten    --      0.4296                 0.2701                 7.1293

                     46                     47                     48
                      A                      A                      A
 Frequencies --   1018.5629              1049.6540              1073.0945
 Red. masses --      1.8529                 1.3286                 1.4805
 Frc consts  --      1.1326                 0.8625                 1.0044
 IR Inten    --      1.1022                 8.3007                 2.4589

                     49                     50                     51
                      A                      A                      A
 Frequencies --   1079.0888              1106.0178              1119.0955
 Red. masses --      2.2152                 2.5842                 1.7684
 Frc consts  --      1.5198                 1.8625                 1.3048
 IR Inten    --     24.4940                13.9721                15.3048

                     52                     53                     54
                      A                      A                      A
 Frequencies --   1138.1691              1153.4938              1156.0273
 Red. masses --      1.9563                 2.0665                 1.4137
 Frc consts  --      1.4931                 1.6200                 1.1131
 IR Inten    --     46.5167                62.4258                12.9085

                     55                     56                     57
                      A                      A                      A
 Frequencies --   1190.1212              1204.4899              1233.0592
 Red. masses --      2.1699                 1.3621                 2.2666
 Frc consts  --      1.8108                 1.1643                 2.0304
 IR Inten    --     44.3902                 8.9485                40.4962

                     58                     59                     60
                      A                      A                      A
 Frequencies --   1242.4696              1260.1429              1289.8701
 Red. masses --      2.3901                 1.5079                 1.7868
 Frc consts  --      2.1739                 1.4108                 1.7515
 IR Inten    --     73.4040                51.9710                 9.9499

                     61                     62                     63
                      A                      A                      A
 Frequencies --   1317.2819              1345.3720              1364.1160
 Red. masses --      1.7886                 1.4168                 2.9257
 Frc consts  --      1.8286                 1.5109                 3.2077
 IR Inten    --     29.1686                 1.7553                20.0306

                     64                     65                     66
                      A                      A                      A
 Frequencies --   1379.5914              1391.7944              1400.9745
 Red. masses --      6.7292                 2.7170                 2.6093
 Frc consts  --      7.5460                 3.1010                 3.0174
 IR Inten    --     45.5056                46.6976                17.1542

                     67                     68                     69
                      A                      A                      A
 Frequencies --   1419.0563              1429.9345              1442.3125
 Red. masses --      4.5042                 1.2102                 1.3254
 Frc consts  --      5.3441                 1.4580                 1.6244
 IR Inten    --     11.5402                 4.3576                 4.0167

                     70                     71                     72
                      A                      A                      A
 Frequencies --   1452.4712              1463.5901              1504.4086
 Red. masses --      1.2482                 1.7673                 1.2520
 Frc consts  --      1.5515                 2.2305                 1.6695
 IR Inten    --      3.8749                38.3792                12.4694

                     73                     74                     75
                      A                      A                      A
 Frequencies --   1505.9840              1509.2343              1515.5853
 Red. masses --      1.3075                 1.0467                 1.0721
 Frc consts  --      1.7472                 1.4047                 1.4509
 IR Inten    --      1.5142                 1.5751                 3.2641

                     76                     77                     78
                      A                      A                      A
 Frequencies --   1522.4938              1523.5803              1529.0106
 Red. masses --      1.0583                 1.0986                 1.0624
 Frc consts  --      1.4453                 1.5025                 1.4634
 IR Inten    --     11.0001                19.6338                 7.1963

                     79                     80                     81
                      A                      A                      A
 Frequencies --   1531.2807              1539.7310              1541.7358
 Red. masses --      1.0771                 2.1862                 1.1366
 Frc consts  --      1.4880                 3.0537                 1.5918
 IR Inten    --     19.5635                 5.2489                 8.9687

                     82                     83                     84
                      A                      A                      A
 Frequencies --   1555.0121              1606.2873              1638.4709
 Red. masses --      1.1456                 5.2821                 6.2563
 Frc consts  --      1.6322                 8.0298                 9.8957
 IR Inten    --      4.8609                11.6484                 6.8380

                     85                     86                     87
                      A                      A                      A
 Frequencies --   1660.5453              1830.9769              3045.9762
 Red. masses --      5.9287                 9.1084                 1.0384
 Frc consts  --      9.6319                17.9911                 5.6764
 IR Inten    --      4.3720               229.4729                 9.7653

                     88                     89                     90
                      A                      A                      A
 Frequencies --   3048.6604              3060.8438              3063.7796
 Red. masses --      1.0391                 1.0398                 1.0403
 Frc consts  --      5.6900                 5.7395                 5.7534
 IR Inten    --     31.2973                90.0203                20.7616

                     91                     92                     93
                      A                      A                      A
 Frequencies --   3076.9758              3101.1847              3114.2252
 Red. masses --      1.0598                 1.0978                 1.1013
 Frc consts  --      5.9117                 6.2207                 6.2928
 IR Inten    --     17.0357                14.7305                25.7379

                     94                     95                     96
                      A                      A                      A
 Frequencies --   3127.3790              3128.9079              3132.3184
 Red. masses --      1.1002                 1.0995                 1.1016
 Frc consts  --      6.3397                 6.3419                 6.3678
 IR Inten    --     22.5467                29.9341                11.7992

                     97                     98                     99
                      A                      A                      A
 Frequencies --   3135.2159              3146.9113              3153.5353
 Red. masses --      1.0986                 1.0989                 1.1021
 Frc consts  --      6.3625                 6.4118                 6.4577
 IR Inten    --     35.9878                22.1892                23.5801

                    100                    101                    102
                      A                      A                      A
 Frequencies --   3158.0596              3176.6505              3194.8140
 Red. masses --      1.1037                 1.0868                 1.0907
 Frc consts  --      6.4856                 6.4613                 6.5591
 IR Inten    --     10.9961                11.4775                27.9561

                    103                    104                    105
                      A                      A                      A
 Frequencies --   3216.5200              3282.7540              3680.4990
 Red. masses --      1.0933                 1.0972                 1.0639
 Frc consts  --      6.6646                 6.9662                 8.4910
 IR Inten    --     25.8119                10.3341                49.9842

 - Thermochemistry -
 -------------------
 Temperature   298.150 Kelvin.  Pressure   1.00000 Atm.
 Atom     1 has atomic number  6 and mass  12.00000

 Molecular mass:   245.14158 amu.
 Principal axes and moments of inertia in atomic units:
                           1         2         3
     Eigenvalues --  2468.574826298.403667944.34271
           X            0.99945  -0.03279   0.00504
           Y            0.03280   0.99946  -0.00058
           Z           -0.00502   0.00074   0.99999
 This molecule is an asymmetric top.
 Rotational symmetry number  1.
 Warning -- assumption of classical behavior for rotation
           may cause significant error
 Rotational temperatures (Kelvin)      0.03509     0.01375     0.01090
 Rotational constants (GHZ):           0.73109     0.28654     0.22717
 Zero-point vibrational energy     829070.3 (Joules/Mol)
                                  198.15257 (Kcal/Mol)
 Warning -- explicit consideration of  29 degrees of freedom as
           vibrations may cause significant error
 Vibrational temperatures:     46.95    68.62    95.75   110.75   154.56
          (Kelvin)            175.11   221.64   239.22   266.01   328.20
                              346.76   358.57   375.88   392.07   400.42
                              405.35   435.42   466.85   508.07   576.08
                              631.38   672.42   715.82   743.74   758.89
                              834.29   837.26   874.60   889.55   930.02
                              956.01   999.97  1071.37  1094.95  1123.81
                             1150.88  1219.53  1230.06  1279.40  1289.80
                             1314.28  1349.89  1364.55  1376.46  1447.17
                             1465.48  1510.22  1543.94  1552.57  1591.31
                             1610.13  1637.57  1659.62  1663.27  1712.32
                             1732.99  1774.10  1787.64  1813.06  1855.84
                             1895.27  1935.69  1962.66  1984.92  2002.48
                             2015.69  2041.71  2057.36  2075.17  2089.78
                             2105.78  2164.51  2166.78  2171.45  2180.59
                             2190.53  2192.09  2199.91  2203.17  2215.33
                             2218.21  2237.32  2311.09  2357.39  2389.15
                             2634.37  4382.48  4386.34  4403.87  4408.10
                             4427.08  4461.91  4480.68  4499.60  4501.80
                             4506.71  4510.88  4527.70  4537.23  4543.74
                             4570.49  4596.62  4627.85  4723.15  5295.42

 Zero-point correction=                           0.315776 (Hartree/Particle)
 Thermal correction to Energy=                    0.333409
 Thermal correction to Enthalpy=                  0.334353
 Thermal correction to Gibbs Free Energy=         0.270580
 Sum of electronic and zero-point Energies=           -788.024161
 Sum of electronic and thermal Energies=              -788.006528
 Sum of electronic and thermal Enthalpies=            -788.005583
 Sum of electronic and thermal Free Energies=         -788.069357

                     E (Thermal)             CV                S
                      KCal/Mol        Cal/Mol-Kelvin    Cal/Mol-Kelvin
 Total                  209.217             67.989            134.223
 Electronic               0.000              0.000              0.000
 Translational            0.889              2.981             42.391
 Rotational               0.889              2.981             33.179
 Vibrational            207.440             62.027             58.653
 Vibration     1          0.594              1.983              5.663
 Vibration     2          0.595              1.978              4.911
 Vibration     3          0.598              1.970              4.253
 Vibration     4          0.599              1.965              3.967
 Vibration     5          0.606              1.943              3.315
 Vibration     6          0.609              1.931              3.073
 Vibration     7          0.620              1.898              2.622
 Vibration     8          0.624              1.884              2.477
 Vibration     9          0.631              1.860              2.279
 Vibration    10          0.651              1.798              1.894
 Vibration    11          0.658              1.778              1.795
 Vibration    12          0.662              1.764              1.736
 Vibration    13          0.669              1.744              1.653
 Vibration    14          0.675              1.724              1.580
 Vibration    15          0.679              1.714              1.544
 Vibration    16          0.681              1.707              1.523
 Vibration    17          0.694              1.669              1.402
 Vibration    18          0.709              1.626              1.287
 Vibration    19          0.729              1.569              1.152
 Vibration    20          0.766              1.469              0.961
 Vibration    21          0.799              1.386              0.830
 Vibration    22          0.825              1.322              0.745
 Vibration    23          0.853              1.256              0.664
 Vibration    24          0.872              1.213              0.617
 Vibration    25          0.882              1.189              0.593
 Vibration    26          0.937              1.075              0.486
 Vibration    27          0.939              1.070              0.482
 Vibration    28          0.967              1.015              0.436
 Vibration    29          0.978              0.993              0.419

 Optimization completed.
    -- Stationary point found.
 Normal termination of Gaussian 16 at Fri Dec 11 21:54:47 2020.

 ----------------------------------------------------------------------
 # B3LYP/6-311++G(d,p) empiricaldispersion=gd3bj scf=xqc pop=npa geom=c
 heck
 ----------------------------------------------------------------------

 --------------------------------------
 CID_84631924_JID_8568_Energie_neutraal
 --------------------------------------
 Structure from the checkpoint file:  "JID_8568.chk"
 Charge =  0 Multiplicity = 1

 SCF Done:  E(RB3LYP) =  -788.557910354     A.U. after   15 cycles
 Normal termination of Gaussian 16 at Fri Dec 11 22:02:53 2020.

 ----------------------------------------------------------------------
 # B3LYP/6-311++G(d,p) empiricaldispersion=gd3bj scf=xqc pop=npa geom=c
 heck
 ----------------------------------------------------------------------

 ------------------------------------
 CID_84631924_JID_8568_Energie_kation
 ------------------------------------
 Structure from the checkpoint file:  "JID_8568.chk"
 Charge =  1 Multiplicity = 2

 SCF Done:  E(UB3LYP) =  -788.299018389     A.U. after   23 cycles
 Normal termination of Gaussian 16 at Fri Dec 11 22:20:33 2020.
 Gaussian 16:  ES64L-G16RevA.03 25-Dec-2016

 ----------------------------------------------------------------------
 # B3LYP/6-311++G(d,p) empiricaldispersion=gd3bj scf=xqc pop=npa geom=c
 heck
 ----------------------------------------------------------------------

 -----------------------------------
 CID_84631924_JID_8568_Energie_anion
 -----------------------------------
 Structure from the checkpoint file:  "JID_8568.chk"
 Charge = -1 Multiplicity = 2

                         Standard orientation:
 ---------------------------------------------------------------------
 Center     Atomic      Atomic             Coordinates (Angstroms)
 Number     Number       Type             X           Y           Z
 ---------------------------------------------------------------------
      1          6           0       -4.226012    1.306873   -0.163472
      2          6           0       -3.220520    0.178849   -0.193137
      3          6           0       -1.838670    0.344690    0.034778
      4          6           0       -0.923800   -0.752928    0.019297
      5          6           0       -1.417829   -2.046968   -0.228966
      6          6           0       -2.772626   -2.219837   -0.459570
      7          6           0       -3.651540   -1.122557   -0.441160
      8          6           0        0.395903   -0.223107    0.290440
      9          6           0        0.229654    1.129232    0.454679
     10          7           0       -1.098236    1.487287    0.312011
     11          6           0       -1.544449    2.867742    0.324376
     12          6           0        1.686043   -1.011946    0.407985
     13          6           0        1.565474   -2.022876    1.572222
     14          6           0        1.976245   -1.776864   -0.900727
     15          6           0        2.894102   -0.094701    0.773170
     16          6           0        3.330321    0.916088   -0.262728
     17          8           0        3.065166    2.101006   -0.266226
     18          8           0        4.111218    0.362600   -1.223885
     19          1           0       -3.982582    2.106317   -0.871569
     20          1           0       -4.304777    1.763399    0.830545
     21          1           0       -5.218303    0.928630   -0.426065
     22          1           0       -0.753308   -2.903855   -0.243995
     23          1           0       -3.165770   -3.213272   -0.655996
     24          1           0       -4.710250   -1.289350   -0.623343
     25          1           0        0.968463    1.895269    0.636013
     26          1           0       -2.366173    3.014605    1.029324
     27          1           0       -0.705943    3.492619    0.638360
     28          1           0       -1.866367    3.198133   -0.669362
     29          1           0        0.711454   -2.688774    1.427041
     30          1           0        2.469918   -2.638749    1.648040
     31          1           0        1.419647   -1.500586    2.523836
     32          1           0        2.027744   -1.097325   -1.754674
     33          1           0        2.930352   -2.311877   -0.834357
     34          1           0        1.189159   -2.507191   -1.103284
     35          1           0        2.660244    0.460263    1.685355
     36          1           0        3.750425   -0.745640    0.978045
     37          1           0        4.328869    1.087384   -1.840216
 ---------------------------------------------------------------------

 SCF Done:  E(UB3LYP) =  -788.545696429     A.U. after   33 cycles
 SCF Done:  E(UB3LYP) =  -788.545696429     a.u. after    1 cycles

 The electronic state is 2-A.
 Alpha  occ. eigenvalues --  -19.07589 -19.02306 -14.26367 -10.21437 -10.11397
 Alpha  occ. eigenvalues --  -10.11157 -10.10903 -10.09912 -10.09304 -10.09146
 Alpha  occ. eigenvalues --  -10.07800 -10.07688 -10.07614 -10.07448 -10.07363
 Alpha  occ. eigenvalues --  -10.07193 -10.07018 -10.06549  -1.01767  -0.92718
 Alpha  occ. eigenvalues --   -0.89060  -0.75836  -0.74667  -0.70105  -0.67140
 Alpha  occ. eigenvalues --   -0.64224  -0.63011  -0.60967  -0.59839  -0.57946
 Alpha  occ. eigenvalues --   -0.52981  -0.51990  -0.49918  -0.48513  -0.44676
 Alpha  occ. eigenvalues --   -0.41977  -0.40138  -0.39954  -0.38821  -0.38012
 Alpha  occ. eigenvalues --   -0.37411  -0.37056  -0.36118  -0.34818  -0.33419
 Alpha  occ. eigenvalues --   -0.32968  -0.32616  -0.32471  -0.31329  -0.30794
 Alpha  occ. eigenvalues --   -0.30568  -0.29451  -0.29195  -0.28868  -0.28712
 Alpha  occ. eigenvalues --   -0.26985  -0.26114  -0.25239  -0.24683  -0.23532
 Alpha  occ. eigenvalues --   -0.23331  -0.22591  -0.19052  -0.17389  -0.13107
 Alpha  occ. eigenvalues --   -0.10753   0.04052
 Alpha virt. eigenvalues --    0.05529   0.06613   0.06875   0.07261   0.07635
 Alpha virt. eigenvalues --    0.08179   0.08540   0.08937   0.09393   0.09811
 Alpha virt. eigenvalues --    0.10187   0.10240   0.10555   0.11670   0.12474

  Beta  occ. eigenvalues --  -19.07540 -19.02287 -14.26365 -10.21414 -10.11355
  Beta  occ. eigenvalues --  -10.11158 -10.10901 -10.09906 -10.09283 -10.09144
  Beta  occ. eigenvalues --  -10.07800 -10.07685 -10.07579 -10.07446 -10.07358
  Beta  occ. eigenvalues --  -10.07176 -10.07018 -10.06533  -1.01693  -0.92658
  Beta  occ. eigenvalues --   -0.89052  -0.75827  -0.74654  -0.70084  -0.67119
  Beta  occ. eigenvalues --   -0.64165  -0.62999  -0.60924  -0.59805  -0.57900
  Beta  occ. eigenvalues --   -0.52915  -0.51959  -0.49874  -0.48480  -0.44643
  Beta  occ. eigenvalues --   -0.41941  -0.40095  -0.39921  -0.38791  -0.37994
  Beta  occ. eigenvalues --   -0.37376  -0.37006  -0.36094  -0.34790  -0.33376
  Beta  occ. eigenvalues --   -0.32931  -0.32581  -0.32438  -0.31297  -0.30769
  Beta  occ. eigenvalues --   -0.30541  -0.29428  -0.29170  -0.28844  -0.28689
  Beta  occ. eigenvalues --   -0.26962  -0.26092  -0.25214  -0.24658  -0.23497
  Beta  occ. eigenvalues --   -0.23318  -0.22553  -0.19006  -0.17379  -0.13101
  Beta  occ. eigenvalues --   -0.10743
  Beta virt. eigenvalues --    0.06062   0.06583   0.07033   0.07176   0.07807
  Beta virt. eigenvalues --    0.07916   0.08482   0.08826   0.09341   0.09696
  Beta virt. eigenvalues --    0.10043   0.10398   0.10451   0.10764   0.11884

 Mulliken charges and spin densities:
               1          2
     1  C    2.827781  -3.370347
     2  C   -1.625663   1.887679
     3  C    0.043336   0.315833
     4  C   -0.066014   0.424603
     5  C   -0.288439  -0.559666
     6  C   -0.393382  -0.237156
     7  C   -0.480083   0.096780
     8  C    0.132877  -0.490938
     9  C   -0.385372   0.832816
    10  N    0.027785   0.135089
    11  C    0.888816  -1.207958
    12  C    0.422436   0.219890
    13  C   -0.011323  -0.580079
    14  C   -0.254858  -0.532396
    15  C    0.555220  -0.762674
    16  C   -0.631642   0.250995
    17  O   -0.239977  -0.002781
    18  O   -0.161724   0.035211
    19  H   -0.159045   0.313113
    20  H   -0.098998   0.273464
    21  H   -0.262793   0.413194
    22  H    0.155796  -0.068641
    23  H    0.036311   0.112325
    24  H   -0.033673   0.139909
    25  H    0.452063  -0.172621
    26  H   -0.355973   0.525577
    27  H   -0.375632   0.513540
    28  H   -0.185510   0.379872
    29  H    0.014170   0.103255
    30  H   -0.021422   0.167280
    31  H    0.023396   0.130413
    32  H    0.094552   0.108502
    33  H   -0.008397   0.176053
    34  H   -0.021904   0.131231
    35  H   -0.136292   0.317204
    36  H   -0.120287   0.340041
    37  H   -0.356135   0.641385
 Sum of Mulliken charges =  -1.00000   1.00000

 Dipole moment (field-independent basis, Debye):
    X=             -0.5598    Y=             -4.8207    Z=              1.0938  Tot=              4.9748
 Quadrupole moment (field-independent basis, Debye-Ang):
   XX=           -198.7329   YY=           -158.0615   ZZ=           -143.6057
   XY=              9.2677   XZ=              8.4995   YZ=              0.8683

 Summary of Natural Population Analysis:

                                       Natural Population
                Natural  -----------------------------------------------
    Atom  No    Charge         Core      Valence    Rydberg      Total
 -----------------------------------------------------------------------
      C    1   -0.29230      0.99964     2.28709    0.00557     3.29230
      C    2   -0.02782      0.99949     2.01884    0.00950     3.02782
      C    3    0.08391      0.99944     1.90362    0.01303     2.91609
      C    4   -0.04364      0.99950     2.03249    0.01164     3.04364
      C    5   -0.10273      0.99953     2.09516    0.00804     3.10273
      C    6   -0.11315      0.99957     2.10380    0.00978     3.11315
      C    7   -0.10927      0.99953     2.10070    0.00904     3.10927
      C    8   -0.03481      0.99947     2.02557    0.00977     3.03481
      C    9    0.01201      0.99950     1.97873    0.00975     2.98799
      N   10   -0.20894      0.99963     2.69743    0.01188     3.70894
      C   11   -0.17143      0.99964     2.16388    0.00791     3.17143
      C   12   -0.04517      0.99957     2.03263    0.01297     3.04517
      C   13   -0.27802      0.99963     2.27229    0.00610     3.27802
      C   14   -0.28290      0.99963     2.27504    0.00824     3.28290
      C   15   -0.23961      0.99955     2.22830    0.01175     3.23961
      C   16    0.41207      0.99971     1.56181    0.02641     2.58793
      O   17   -0.30852      0.99987     3.30221    0.00645     4.30852
      O   18   -0.34403      0.99988     3.33722    0.00694     4.34403
      H   19    0.10543      0.00000     0.39314    0.00143     0.39457
      H   20    0.10469      0.00000     0.39398    0.00133     0.39531
      H   21    0.10210      0.00000     0.39685    0.00106     0.39790
      H   22    0.09781      0.00000     0.40065    0.00154     0.40219
      H   23    0.09682      0.00000     0.40241    0.00077     0.40318
      H   24    0.09648      0.00000     0.40265    0.00087     0.40352
      H   25    0.11258      0.00000     0.38573    0.00169     0.38742
      H   26    0.10073      0.00000     0.39756    0.00171     0.39927
      H   27    0.10285      0.00000     0.39599    0.00117     0.39715
      H   28    0.09757      0.00000     0.40106    0.00137     0.40243
      H   29    0.10210      0.00000     0.39674    0.00115     0.39790
      H   30    0.09654      0.00000     0.40249    0.00096     0.40346
      H   31    0.10188      0.00000     0.39719    0.00093     0.39812
      H   32    0.10672      0.00000     0.39214    0.00114     0.39328
      H   33    0.09970      0.00000     0.39940    0.00089     0.40030
      H   34    0.09893      0.00000     0.39999    0.00108     0.40107
      H   35    0.11367      0.00000     0.38513    0.00120     0.38633
      H   36    0.11413      0.00000     0.38442    0.00144     0.38587
      H   37    0.24366      0.00000     0.24512    0.01122     0.25634
 =======================================================================
   * Total *    0.00007     17.99276    47.78946    0.21771    65.99993

 Normal termination of Gaussian 16 at Fri Dec 11 22:46:10 2020.
