 Gaussian 16, Revision A.03,

 -----------------------------------------------------------
 # opt freq B3LYP/6-31G(d) empiricaldispersion=gd3bj scf=xqc
 -----------------------------------------------------------

 ------------------------------
 CID_135258651_JID_194_neutraal
 ------------------------------
 Symbolic Z-matrix:
 Charge =  0 Multiplicity = 1

 SCF Done:  E(RB3LYP) =  -421.591266703     A.U. after   15 cycles
 SCF Done:  E(RB3LYP) =  -421.597990677     A.U. after   13 cycles
 SCF Done:  E(RB3LYP) =  -421.598741132     A.U. after   12 cycles
 SCF Done:  E(RB3LYP) =  -421.598823297     A.U. after   11 cycles
 SCF Done:  E(RB3LYP) =  -421.598834308     A.U. after    9 cycles
 SCF Done:  E(RB3LYP) =  -421.598836833     A.U. after    8 cycles
 SCF Done:  E(RB3LYP) =  -421.598838349     A.U. after    8 cycles
 SCF Done:  E(RB3LYP) =  -421.598839581     A.U. after    8 cycles
 SCF Done:  E(RB3LYP) =  -421.598839962     A.U. after    8 cycles
 SCF Done:  E(RB3LYP) =  -421.598840053     A.U. after    7 cycles
 Optimization completed.
    -- Stationary point found.

 1\1\GINC-NODE200\FOpt\RB3LYP\6-31G(d)\C8H12N2\VSC10255\08-Dec-2020\0\\
 # opt freq B3LYP/6-31G(d) empiricaldispersion=gd3bj scf=xqc\\CID_13525
 8651_JID_194_neutraal\\0,1\C,0.9383924235,-0.0998483613,0.0896426869\C
 ,0.6355512698,0.3068050088,-1.3275671727\C,0.3265655317,-0.6085684247,
 -2.2927314542\N,0.0475652906,-0.270223351,-3.5853089244\C,0.0536656827
 ,1.0676936899,-4.0431338361\N,-0.2274649175,1.2560846694,-5.2900763818
 \C,-0.2259762746,2.6211322392,-5.7764102471\C,0.3818472499,2.042705235
 1,-3.0192810267\C,0.6561269568,1.6771427338,-1.7367435421\C,-0.2755781

 Normal termination of Gaussian 16 at Tue Dec  8 10:18:53 2020.

 --------------------------------------------------------------------
 #N Geom=AllCheck Guess=TCheck SCRF=Check GenChk RB3LYP/6-31G(d) Freq
 --------------------------------------------------------------------

 Structure from the checkpoint file:  "JID_194.chk"
 ------------------------------
 CID_135258651_JID_194_neutraal
 ------------------------------
 Charge =  0 Multiplicity = 1

 SCF Done:  E(RB3LYP) =  -421.598840053     A.U. after    1 cycles

  Exact polarizability: 147.497   1.284 104.523  -0.001  -0.001  52.187
 Approx polarizability: 223.798  -2.715 161.789  -0.004  -0.002  76.815

                      1                      2                      3
                      A                      A                      A
 Frequencies --     84.9833               131.9450               157.0184
 Red. masses --      2.9563                 1.0500                 1.1213
 Frc consts  --      0.0126                 0.0108                 0.0163
 IR Inten    --      0.1866                 0.1406                 0.9888

                      4                      5                      6
                      A                      A                      A
 Frequencies --    165.6197               171.0467               217.7268
 Red. masses --      1.2050                 2.1699                 2.9106
 Frc consts  --      0.0195                 0.0374                 0.0813
 IR Inten    --      2.8876                 4.0573                 2.2287

                      7                      8                      9
                      A                      A                      A
 Frequencies --    239.4416               293.8053               297.3902
 Red. masses --      2.7834                 2.5649                 3.6713
 Frc consts  --      0.0940                 0.1304                 0.1913
 IR Inten    --      0.2863                 1.0256                 4.3471

                     10                     11                     12
                      A                      A                      A
 Frequencies --    376.7297               414.0144               475.9736
 Red. masses --      3.3650                 3.6387                 4.7762
 Frc consts  --      0.2814                 0.3675                 0.6375
 IR Inten    --      0.1324                 1.8974                10.1570

                     13                     14                     15
                      A                      A                      A
 Frequencies --    519.3313               533.2752               610.6620
 Red. masses --      2.4965                 4.0612                 4.3950
 Frc consts  --      0.3967                 0.6805                 0.9656
 IR Inten    --      4.0316                 8.4096                 4.4945

                     16                     17                     18
                      A                      A                      A
 Frequencies --    720.9837               721.2740               792.8277
 Red. masses --      5.3376                 3.4953                 4.2007
 Frc consts  --      1.6347                 1.0713                 1.5557
 IR Inten    --      5.0641                 1.6888                 9.0448

                     19                     20                     21
                      A                      A                      A
 Frequencies --    821.4658               884.4226               944.7514
 Red. masses --      1.7925                 1.3155                 3.1021
 Frc consts  --      0.7127                 0.6063                 1.6313
 IR Inten    --     31.3456                 3.5170                11.8708

                     22                     23                     24
                      A                      A                      A
 Frequencies --    985.8566              1044.8358              1075.2306
 Red. masses --      1.2764                 1.5564                 3.5226
 Frc consts  --      0.7309                 1.0011                 2.3995
 IR Inten    --      0.0082                 0.3753                 4.7948

                     25                     26                     27
                      A                      A                      A
 Frequencies --   1081.1771              1091.3447              1126.1973
 Red. masses --      1.4336                 2.2943                 1.3218
 Frc consts  --      0.9874                 1.6100                 0.9877
 IR Inten    --      2.4566                17.4998                 0.1807

                     28                     29                     30
                      A                      A                      A
 Frequencies --   1161.8066              1172.3473              1175.7309
 Red. masses --      1.3094                 1.7032                 1.8469
 Frc consts  --      1.0414                 1.3792                 1.5042
 IR Inten    --      0.0411                16.2994                11.3129

                     31                     32                     33
                      A                      A                      A
 Frequencies --   1204.5173              1257.8629              1318.8070
 Red. masses --      1.3474                 2.5472                 2.3324
 Frc consts  --      1.1518                 2.3746                 2.3901
 IR Inten    --     21.2053                14.9261                 9.1668

                     34                     35                     36
                      A                      A                      A
 Frequencies --   1385.2713              1432.2229              1451.0403
 Red. masses --      1.8605                 2.5702                 1.3259
 Frc consts  --      2.1036                 3.1063                 1.6448
 IR Inten    --     27.0375                45.4873                21.3314

                     37                     38                     39
                      A                      A                      A
 Frequencies --   1464.9607              1477.1150              1488.6862
 Red. masses --      1.3829                 1.2687                 1.0431
 Frc consts  --      1.7486                 1.6309                 1.3620
 IR Inten    --    107.0780                 3.3833                 6.2686

                     40                     41                     42
                      A                      A                      A
 Frequencies --   1491.0495              1511.0821              1523.5123
 Red. masses --      1.6973                 1.0437                 1.0925
 Frc consts  --      2.2233                 1.4041                 1.4941
 IR Inten    --      1.1501                 5.3453                 2.5094

                     43                     44                     45
                      A                      A                      A
 Frequencies --   1533.3763              1535.9636              1541.8664
 Red. masses --      1.0793                 1.0453                 1.2033
 Frc consts  --      1.4952                 1.4529                 1.6855
 IR Inten    --      2.3755                 2.6373                11.6245

                     46                     47                     48
                      A                      A                      A
 Frequencies --   1596.5930              1667.1716              1733.6876
 Red. masses --      4.8693                 5.7309                 6.3663
 Frc consts  --      7.3131                 9.3849                11.2741
 IR Inten    --     77.6789               283.1981               270.4576

                     49                     50                     51
                      A                      A                      A
 Frequencies --   2968.0384              3007.5225              3033.2421
 Red. masses --      1.0418                 1.1019                 1.0376
 Frc consts  --      5.4071                 5.8725                 5.6248
 IR Inten    --    126.4403                66.8000                64.1880

                     52                     53                     54
                      A                      A                      A
 Frequencies --   3073.4450              3079.8536              3101.2192
 Red. masses --      1.0310                 1.1015                 1.0923
 Frc consts  --      5.7382                 6.1557                 6.1897
 IR Inten    --     36.5293                27.1382                57.9061

                     55                     56                     57
                      A                      A                      A
 Frequencies --   3116.8788              3139.8808              3164.0586
 Red. masses --      1.0998                 1.1044                 1.1066
 Frc consts  --      6.2949                 6.4151                 6.5271
 IR Inten    --     18.7470                11.5242                10.3132

                     58                     59                     60
                      A                      A                      A
 Frequencies --   3174.1494              3211.6803              3236.7603
 Red. masses --      1.0896                 1.0915                 1.0916
 Frc consts  --      6.4680                 6.6334                 6.7383
 IR Inten    --     20.0177                12.8979                 4.4743

 - Thermochemistry -
 -------------------
 Temperature   298.150 Kelvin.  Pressure   1.00000 Atm.
 Atom     1 has atomic number  6 and mass  12.00000

 Molecular mass:   136.10005 amu.
 Principal axes and moments of inertia in atomic units:
                           1         2         3
     Eigenvalues --   721.377221848.580742536.27205
           X            0.99994   0.01109   0.00000
           Y           -0.01109   0.99994  -0.00000
           Z           -0.00000   0.00000   1.00000
 This molecule is an asymmetric top.
 Rotational symmetry number  1.
 Warning -- assumption of classical behavior for rotation
           may cause significant error
 Rotational temperatures (Kelvin)      0.12007     0.04685     0.03415
 Rotational constants (GHZ):           2.50180     0.97628     0.71157
 Zero-point vibrational energy     498907.0 (Joules/Mol)
                                  119.24163 (Kcal/Mol)
 Warning -- explicit consideration of  15 degrees of freedom as
           vibrations may cause significant error
 Vibrational temperatures:    122.27   189.84   225.91   238.29   246.10
          (Kelvin)            313.26   344.50   422.72   427.88   542.03
                              595.67   684.82   747.20   767.26   878.61
                             1037.33  1037.75  1140.70  1181.91  1272.49
                             1359.29  1418.43  1503.29  1547.02  1555.57
                             1570.20  1620.35  1671.58  1686.75  1691.61
                             1733.03  1809.78  1897.47  1993.10  2060.65
                             2087.72  2107.75  2125.24  2141.89  2145.29
                             2174.11  2191.99  2206.19  2209.91  2218.40
                             2297.14  2398.69  2494.39  4270.35  4327.15
                             4364.16  4422.00  4431.22  4461.96  4484.49
                             4517.59  4552.37  4566.89  4620.89  4656.98

 Zero-point correction=                           0.190024 (Hartree/Particle)
 Thermal correction to Energy=                    0.200278
 Thermal correction to Enthalpy=                  0.201222
 Thermal correction to Gibbs Free Energy=         0.154907
 Sum of electronic and zero-point Energies=           -421.408816
 Sum of electronic and thermal Energies=              -421.398562
 Sum of electronic and thermal Enthalpies=            -421.397618
 Sum of electronic and thermal Free Energies=         -421.443933

                     E (Thermal)             CV                S
                      KCal/Mol        Cal/Mol-Kelvin    Cal/Mol-Kelvin
 Total                  125.676             38.072             97.479
 Electronic               0.000              0.000              0.000
 Translational            0.889              2.981             40.637
 Rotational               0.889              2.981             29.604
 Vibrational            123.899             32.111             27.238
 Vibration     1          0.601              1.960              3.772
 Vibration     2          0.612              1.921              2.917
 Vibration     3          0.621              1.895              2.585
 Vibration     4          0.624              1.885              2.485
 Vibration     5          0.626              1.878              2.424
 Vibration     6          0.646              1.814              1.978
 Vibration     7          0.657              1.780              1.807
 Vibration     8          0.689              1.685              1.452
 Vibration     9          0.691              1.679              1.432
 Vibration    10          0.747              1.520              1.052
 Vibration    11          0.778              1.440              0.913
 Vibration    12          0.833              1.303              0.721
 Vibration    13          0.874              1.207              0.612
 Vibration    14          0.888              1.176              0.580
 Vibration    15          0.970              1.009              0.432

 Optimization completed.
    -- Stationary point found.

 1\1\GINC-NODE200\Freq\RB3LYP\6-31G(d)\C8H12N2\VSC10255\08-Dec-2020\0\\
 #N Geom=AllCheck Guess=TCheck SCRF=Check GenChk RB3LYP/6-31G(d) Freq\\
 CID_135258651_JID_194_neutraal\\0,1\C,0.9383924235,-0.0998483613,0.089
 6426869\C,0.6355512698,0.3068050088,-1.3275671727\C,0.3265655317,-0.60
 85684247,-2.2927314542\N,0.0475652906,-0.270223351,-3.5853089244\C,0.0
 536656827,1.0676936899,-4.0431338361\N,-0.2274649175,1.2560846694,-5.2
 900763818\C,-0.2259762746,2.6211322392,-5.7764102471\C,0.3818472499,2.
 0427052351,-3.0192810267\C,0.6561269568,1.6771427338,-1.7367435421\C,-

 Normal termination of Gaussian 16 at Tue Dec  8 10:22:28 2020.

 ----------------------------------------------------------------------
 # B3LYP/6-311++G(d,p) empiricaldispersion=gd3bj scf=xqc pop=npa geom=c
 heck
 ----------------------------------------------------------------------

 --------------------------------------
 CID_135258651_JID_194_Energie_neutraal
 --------------------------------------
 Structure from the checkpoint file:  "JID_194.chk"
 Charge =  0 Multiplicity = 1

 SCF Done:  E(RB3LYP) =  -421.711860599     A.U. after   16 cycles
 Normal termination of Gaussian 16 at Tue Dec  8 10:24:05 2020.

 ----------------------------------------------------------------------
 # B3LYP/6-311++G(d,p) empiricaldispersion=gd3bj scf=xqc pop=npa geom=c
 heck
 ----------------------------------------------------------------------

 ------------------------------------
 CID_135258651_JID_194_Energie_kation
 ------------------------------------
 Structure from the checkpoint file:  "JID_194.chk"
 Charge =  1 Multiplicity = 2

 SCF Done:  E(UB3LYP) =  -421.457014258     A.U. after   19 cycles
 Normal termination of Gaussian 16 at Tue Dec  8 10:26:46 2020.
 Gaussian 16:  ES64L-G16RevA.03 25-Dec-2016

 -----------------------------------
 CID_135258651_JID_194_Energie_anion
 -----------------------------------
 Structure from the checkpoint file:  "JID_194.chk"
 Charge = -1 Multiplicity = 2

                         Standard orientation:
 ---------------------------------------------------------------------
 Center     Atomic      Atomic             Coordinates (Angstroms)
 Number     Number       Type             X           Y           Z
 ---------------------------------------------------------------------
      1          6           0        3.417313   -0.328492   -0.000078
      2          6           0        1.913655   -0.260859   -0.000028
      3          6           0        1.242807    0.928631   -0.000021
      4          7           0       -0.118973    1.021527    0.000038
      5          6           0       -0.962139   -0.113698    0.000047
      6          7           0       -2.234977    0.108281    0.000015
      7          6           0       -3.114034   -1.043733   -0.000122
      8          6           0       -0.251665   -1.379341    0.000103
      9          6           0        1.108382   -1.442895    0.000062
     10          6           0       -0.776548    2.322552    0.000029
     11          1           0        3.860265    0.672898   -0.000242
     12          1           0        3.799010   -0.858708   -0.882329
     13          1           0        3.799084   -0.858453    0.882295
     14          1           0        1.767172    1.878610   -0.000052
     15          1           0       -2.982375   -1.687129   -0.886641
     16          1           0       -2.983583   -1.686260    0.887206
     17          1           0       -4.152718   -0.697981   -0.000994
     18          1           0       -0.845532   -2.284964    0.000232
     19          1           0        1.601486   -2.413077    0.000123
     20          1           0       -1.418268    2.414193   -0.880222
     21          1           0       -1.418274    2.414206    0.880273
     22          1           0       -0.015237    3.105006    0.000025
 ---------------------------------------------------------------------

 SCF Done:  E(UB3LYP) =  -421.693146086     A.U. after   33 cycles
 SCF Done:  E(UB3LYP) =  -421.693146086     a.u. after    1 cycles

 The electronic state is 2-A.
 Alpha  occ. eigenvalues --  -14.17969 -14.09734 -10.06033 -10.05400 -10.03417
 Alpha  occ. eigenvalues --  -10.03292 -10.02893 -10.00563  -9.98680  -9.97828
 Alpha  occ. eigenvalues --   -0.81450  -0.72083  -0.65702  -0.59588  -0.56427
 Alpha  occ. eigenvalues --   -0.54770  -0.49796  -0.45512  -0.42417  -0.35183
 Alpha  occ. eigenvalues --   -0.32992  -0.30886  -0.30831  -0.28236  -0.27999
 Alpha  occ. eigenvalues --   -0.27542  -0.26891  -0.26316  -0.24791  -0.23284
 Alpha  occ. eigenvalues --   -0.21418  -0.20892  -0.18372  -0.12915  -0.12032
 Alpha  occ. eigenvalues --   -0.08023  -0.02643   0.07817
 Alpha virt. eigenvalues --    0.09003   0.09892   0.10158   0.11797   0.12078
 Alpha virt. eigenvalues --    0.12440   0.13405   0.13720   0.14453   0.14546
 Alpha virt. eigenvalues --    0.15036   0.17107   0.17769   0.17947   0.18932

  Beta  occ. eigenvalues --  -14.17587 -14.09670 -10.06030 -10.05419 -10.03407
  Beta  occ. eigenvalues --  -10.03286 -10.02530 -10.00700  -9.98261  -9.97580
  Beta  occ. eigenvalues --   -0.80884  -0.71854  -0.65338  -0.59276  -0.56086
  Beta  occ. eigenvalues --   -0.54554  -0.49586  -0.44799  -0.42099  -0.34951
  Beta  occ. eigenvalues --   -0.32812  -0.30547  -0.30246  -0.28110  -0.27984
  Beta  occ. eigenvalues --   -0.27398  -0.26753  -0.26200  -0.24671  -0.23181
  Beta  occ. eigenvalues --   -0.21257  -0.19904  -0.18142  -0.11978  -0.09700
  Beta  occ. eigenvalues --   -0.07895  -0.01487
  Beta virt. eigenvalues --    0.08948   0.09808   0.10073   0.11707   0.11981
  Beta virt. eigenvalues --    0.12261   0.12980   0.13680   0.14298   0.14386
  Beta virt. eigenvalues --    0.14855   0.14970   0.16993   0.17810   0.18181

 Mulliken charges and spin densities:
               1          2
     1  C   -0.812272   0.041813
     2  C    0.469683  -0.140600
     3  C   -0.773852   0.490932
     4  N    0.242821   0.032454
     5  C   -0.109804  -0.039253
     6  N   -0.296233   0.035895
     7  C   -0.346174  -0.056935
     8  C   -0.407970   0.277970
     9  C   -0.000930   0.299697
    10  C   -0.184516  -0.016366
    11  H    0.114240  -0.001513
    12  H    0.117567  -0.004209
    13  H    0.117567  -0.004207
    14  H    0.114820  -0.031859
    15  H    0.047476   0.045785
    16  H    0.047569   0.045741
    17  H    0.108142  -0.001212
    18  H    0.110781  -0.019568
    19  H    0.104194  -0.027816
    20  H    0.126482   0.036871
    21  H    0.126397   0.036969
    22  H    0.084011  -0.000588
 Sum of Mulliken charges =  -1.00000   1.00000

 Dipole moment (field-independent basis, Debye):
    X=              1.7874    Y=              1.0446    Z=             -0.0006  Tot=              2.0702
 Quadrupole moment (field-independent basis, Debye-Ang):
   XX=            -88.8730   YY=            -74.5934   ZZ=            -75.3518
   XY=              0.6788   XZ=              0.0009   YZ=             -0.0017

 Summary of Natural Population Analysis:

                                       Natural Population
                Natural  -----------------------------------------------
    Atom  No    Charge         Core      Valence    Rydberg      Total
 -----------------------------------------------------------------------
      C    1   -0.27885      0.99965     2.27450    0.00470     3.27885
      C    2   -0.10570      0.99951     2.09634    0.00984     3.10570
      C    3    0.09868      0.99950     1.88974    0.01208     2.90132
      N    4   -0.16557      0.99962     2.65820    0.00774     3.66557
      C    5    0.21775      0.99954     1.76547    0.01724     2.78225
      N    6   -0.32465      0.99965     2.81179    0.01320     3.82465
      C    7   -0.18282      0.99966     2.17510    0.00806     3.18282
      C    8   -0.11682      0.99953     2.10612    0.01117     3.11682
      C    9   -0.00463      0.99953     1.99687    0.00822     3.00463
      C   10   -0.17415      0.99966     2.16618    0.00830     3.17415
      H   11    0.09317      0.00000     0.40599    0.00084     0.40683
      H   12    0.08962      0.00000     0.40888    0.00151     0.41038
      H   13    0.08962      0.00000     0.40888    0.00151     0.41038
      H   14    0.08069      0.00000     0.41845    0.00086     0.41931
      H   15    0.07559      0.00000     0.42119    0.00322     0.42441
      H   16    0.07559      0.00000     0.42119    0.00322     0.42441
      H   17    0.08071      0.00000     0.41823    0.00106     0.41929
      H   18    0.09152      0.00000     0.40707    0.00141     0.40848
      H   19    0.07908      0.00000     0.41945    0.00147     0.42092
      H   20    0.09779      0.00000     0.40019    0.00202     0.40221
      H   21    0.09779      0.00000     0.40018    0.00202     0.40221
      H   22    0.08557      0.00000     0.41374    0.00069     0.41443
 =======================================================================
   * Total *    0.00000      9.99586    26.88374    0.12040    37.00000

 Normal termination of Gaussian 16 at Tue Dec  8 10:31:32 2020.
