 Gaussian 16, Revision A.03,

 -----------------------------------------------------------
 # opt freq B3LYP/6-31G(d) empiricaldispersion=gd3bj scf=xqc
 -----------------------------------------------------------

 -------------------------------
 CID_150511290_JID_4816_neutraal
 -------------------------------
 Symbolic Z-matrix:
 Charge =  0 Multiplicity = 1

 SCF Done:  E(RB3LYP) =  -680.270455993     A.U. after   15 cycles
 SCF Done:  E(RB3LYP) =  -680.272826763     A.U. after   15 cycles
 SCF Done:  E(RB3LYP) =  -680.274357182     A.U. after   14 cycles
 SCF Done:  E(RB3LYP) =  -680.274755253     A.U. after   12 cycles
 SCF Done:  E(RB3LYP) =  -680.274950259     A.U. after   13 cycles
 SCF Done:  E(RB3LYP) =  -680.275137895     A.U. after   12 cycles
 SCF Done:  E(RB3LYP) =  -680.275280323     A.U. after   13 cycles
 SCF Done:  E(RB3LYP) =  -680.275353221     A.U. after   12 cycles
 SCF Done:  E(RB3LYP) =  -680.275415421     A.U. after   12 cycles
 SCF Done:  E(RB3LYP) =  -680.275468718     A.U. after   13 cycles
 SCF Done:  E(RB3LYP) =  -680.275666728     A.U. after   10 cycles
 SCF Done:  E(RB3LYP) =  -680.275669521     A.U. after   10 cycles
 SCF Done:  E(RB3LYP) =  -680.275670574     A.U. after   10 cycles
 SCF Done:  E(RB3LYP) =  -680.275670830     A.U. after    8 cycles
 SCF Done:  E(RB3LYP) =  -680.275670908     A.U. after    7 cycles
 Optimization completed.
    -- Stationary point found.
 Normal termination of Gaussian 16 at Thu Dec 10 10:43:09 2020.

 --------------------------------------------------------------------
 #N Geom=AllCheck Guess=TCheck SCRF=Check GenChk RB3LYP/6-31G(d) Freq
 --------------------------------------------------------------------

 Structure from the checkpoint file:  "JID_4816.chk"
 -------------------------------
 CID_150511290_JID_4816_neutraal
 -------------------------------
 Charge =  0 Multiplicity = 1

 SCF Done:  E(RB3LYP) =  -680.275670908     A.U. after    1 cycles

  Exact polarizability: 133.189   3.859 124.841  21.552   6.644  78.635
 Approx polarizability: 220.118  20.296 206.251  65.079  27.198 144.093

                      1                      2                      3
                      A                      A                      A
 Frequencies --     32.0814                53.5920                72.0609
 Red. masses --      7.9099                 5.5938                 9.0265
 Frc consts  --      0.0048                 0.0095                 0.0276
 IR Inten    --      0.7426                 1.3627                 0.6187

                      4                      5                      6
                      A                      A                      A
 Frequencies --     88.6879               121.8915               195.2966
 Red. masses --      3.2742                 6.5593                 2.6118
 Frc consts  --      0.0152                 0.0574                 0.0587
 IR Inten    --      1.6527                 1.9336                 0.5757

                      7                      8                      9
                      A                      A                      A
 Frequencies --    199.0311               218.3839               241.7502
 Red. masses --      7.4163                 2.2265                 3.0891
 Frc consts  --      0.1731                 0.0626                 0.1064
 IR Inten    --      1.9890                 1.9825                 3.6433

                     10                     11                     12
                      A                      A                      A
 Frequencies --    281.6551               326.8444               330.5372
 Red. masses --      1.7362                 3.0463                 1.2476
 Frc consts  --      0.0811                 0.1917                 0.0803
 IR Inten    --      1.4619                 8.0328               104.4712

                     13                     14                     15
                      A                      A                      A
 Frequencies --    378.2274               404.1378               452.6213
 Red. masses --      3.7584                 4.0342                 4.8252
 Frc consts  --      0.3168                 0.3882                 0.5824
 IR Inten    --      8.0687                 9.3488                12.1010

                     16                     17                     18
                      A                      A                      A
 Frequencies --    463.5813               533.9554               552.2134
 Red. masses --      3.7779                 4.2230                 6.5335
 Frc consts  --      0.4784                 0.7094                 1.1738
 IR Inten    --      6.6312                 8.1751                 2.5103

                     19                     20                     21
                      A                      A                      A
 Frequencies --    567.4415               583.5989               636.1556
 Red. masses --      3.3968                12.7470                 3.6933
 Frc consts  --      0.6444                 2.5579                 0.8806
 IR Inten    --     25.8267                20.4993                 3.9958

                     22                     23                     24
                      A                      A                      A
 Frequencies --    662.3864               729.4891               735.8824
 Red. masses --      4.0056                 2.8190                 5.8055
 Frc consts  --      1.0355                 0.8839                 1.8523
 IR Inten    --     14.0078                 2.3660                24.2485

                     25                     26                     27
                      A                      A                      A
 Frequencies --    765.0337               804.1386               829.7821
 Red. masses --      3.5634                 1.7884                 1.7933
 Frc consts  --      1.2288                 0.6813                 0.7275
 IR Inten    --     59.1237                17.9459                33.1914

                     28                     29                     30
                      A                      A                      A
 Frequencies --    831.6174               846.9496               943.1656
 Red. masses --      1.7468                 7.9587                 1.2907
 Frc consts  --      0.7118                 3.3636                 0.6765
 IR Inten    --    128.4963                70.3964                 1.7474

                     31                     32                     33
                      A                      A                      A
 Frequencies --    980.7421              1062.0599              1077.1343
 Red. masses --      3.7198                 2.8693                 3.0446
 Frc consts  --      2.1081                 1.9069                 2.0812
 IR Inten    --     23.2879                31.9780                28.1927

                     34                     35                     36
                      A                      A                      A
 Frequencies --   1128.6902              1155.9242              1187.2794
 Red. masses --      2.1885                 1.7249                 1.2687
 Frc consts  --      1.6427                 1.3579                 1.0537
 IR Inten    --     27.8750                43.9905                 1.2728

                     37                     38                     39
                      A                      A                      A
 Frequencies --   1206.6381              1213.3642              1239.3688
 Red. masses --      2.0113                 1.3995                 2.0703
 Frc consts  --      1.7254                 1.2139                 1.8736
 IR Inten    --     82.1923               179.2015                42.1365

                     40                     41                     42
                      A                      A                      A
 Frequencies --   1252.9060              1276.2117              1321.2201
 Red. masses --      1.9070                 1.4024                 3.0699
 Frc consts  --      1.7638                 1.3457                 3.1573
 IR Inten    --    121.3280                13.8184               136.3016

                     43                     44                     45
                      A                      A                      A
 Frequencies --   1335.0632              1346.7355              1391.8270
 Red. masses --      1.4399                 5.4770                 3.5720
 Frc consts  --      1.5121                 5.8527                 4.0769
 IR Inten    --     42.5574                59.0657                36.1415

                     46                     47                     48
                      A                      A                      A
 Frequencies --   1423.3638              1478.1659              1511.5305
 Red. masses --      1.3610                 1.6604                 1.2399
 Frc consts  --      1.6245                 2.1375                 1.6690
 IR Inten    --      9.2908                35.8224                25.8719

                     49                     50                     51
                      A                      A                      A
 Frequencies --   1516.0801              1521.8499              1527.0964
 Red. masses --      1.3735                 1.0768                 1.3206
 Frc consts  --      1.8601                 1.4693                 1.8145
 IR Inten    --     34.4695                 8.5667                33.5116

                     52                     53                     54
                      A                      A                      A
 Frequencies --   1536.7553              1568.9848              1666.9137
 Red. masses --      1.1737                 2.7936                 5.5811
 Frc consts  --      1.6331                 4.0518                 9.1368
 IR Inten    --     12.3325               139.7630                47.6275

                     55                     56                     57
                      A                      A                      A
 Frequencies --   1674.5726              2247.6911              3032.7907
 Red. masses --      6.4703                13.5903                 1.0352
 Frc consts  --     10.6901                40.4531                 5.6101
 IR Inten    --     78.5710               345.0688                48.1261

                     58                     59                     60
                      A                      A                      A
 Frequencies --   3085.1441              3099.2148              3160.0040
 Red. masses --      1.0636                 1.1054                 1.1047
 Frc consts  --      5.9647                 6.2557                 6.4994
 IR Inten    --     34.8517                30.2234                25.1644

                     61                     62                     63
                      A                      A                      A
 Frequencies --   3164.1367              3200.1995              3204.3201
 Red. masses --      1.1009                 1.0890                 1.0896
 Frc consts  --      6.4941                 6.5711                 6.5916
 IR Inten    --     20.6011                11.4582                 7.1888

                     64                     65                     66
                      A                      A                      A
 Frequencies --   3228.3140              3534.4401              3755.9697
 Red. masses --      1.0935                 1.0732                 1.0659
 Frc consts  --      6.7148                 7.8988                 8.8599
 IR Inten    --      5.3349                11.2566                40.0364

 - Thermochemistry -
 -------------------
 Temperature   298.150 Kelvin.  Pressure   1.00000 Atm.
 Atom     1 has atomic number  6 and mass  12.00000

 Molecular mass:   194.08038 amu.
 Principal axes and moments of inertia in atomic units:
                           1         2         3
     Eigenvalues --  1788.928053259.856713842.02256
           X            0.99967   0.02065   0.01530
           Y           -0.02026   0.99947  -0.02530
           Z           -0.01582   0.02498   0.99956
 This molecule is an asymmetric top.
 Rotational symmetry number  1.
 Warning -- assumption of classical behavior for rotation
           may cause significant error
 Rotational temperatures (Kelvin)      0.04842     0.02657     0.02254
 Rotational constants (GHZ):           1.00884     0.55363     0.46974
 Zero-point vibrational energy     491634.6 (Joules/Mol)
                                  117.50350 (Kcal/Mol)
 Warning -- explicit consideration of  20 degrees of freedom as
           vibrations may cause significant error
 Vibrational temperatures:     46.16    77.11   103.68   127.60   175.37
          (Kelvin)            280.99   286.36   314.21   347.82   405.24
                              470.26   475.57   544.18   581.46   651.22
                              666.99   768.24   794.51   816.42   839.67
                              915.29   953.03  1049.57  1058.77  1100.71
                             1156.98  1193.87  1196.51  1218.57  1357.00
                             1411.07  1528.07  1549.76  1623.93  1663.12
                             1708.23  1736.08  1745.76  1783.18  1802.65
                             1836.18  1900.94  1920.86  1937.65  2002.53
                             2047.90  2126.75  2174.76  2181.30  2189.60
                             2197.15  2211.05  2257.42  2398.32  2409.34
                             3233.93  4363.51  4438.83  4459.08  4546.54
                             4552.49  4604.37  4610.30  4644.82  5085.27
                             5404.00

 Zero-point correction=                           0.187254 (Hartree/Particle)
 Thermal correction to Energy=                    0.200485
 Thermal correction to Enthalpy=                  0.201430
 Thermal correction to Gibbs Free Energy=         0.146630
 Sum of electronic and zero-point Energies=           -680.088417
 Sum of electronic and thermal Energies=              -680.075185
 Sum of electronic and thermal Enthalpies=            -680.074241
 Sum of electronic and thermal Free Energies=         -680.129041

                     E (Thermal)             CV                S
                      KCal/Mol        Cal/Mol-Kelvin    Cal/Mol-Kelvin
 Total                  125.806             48.915            115.336
 Electronic               0.000              0.000              0.000
 Translational            0.889              2.981             41.695
 Rotational               0.889              2.981             31.483
 Vibrational            124.029             42.954             42.159
 Vibration     1          0.594              1.983              5.696
 Vibration     2          0.596              1.976              4.680
 Vibration     3          0.598              1.967              4.096
 Vibration     4          0.602              1.957              3.689
 Vibration     5          0.609              1.931              3.070
 Vibration     6          0.636              1.846              2.177
 Vibration     7          0.637              1.841              2.142
 Vibration     8          0.646              1.813              1.972
 Vibration     9          0.658              1.776              1.790
 Vibration    10          0.681              1.708              1.524
 Vibration    11          0.711              1.622              1.276
 Vibration    12          0.713              1.615              1.257
 Vibration    13          0.749              1.517              1.046
 Vibration    14          0.769              1.461              0.948
 Vibration    15          0.811              1.355              0.788
 Vibration    16          0.821              1.331              0.756
 Vibration    17          0.889              1.175              0.578
 Vibration    18          0.908              1.135              0.540
 Vibration    19          0.923              1.102              0.509
 Vibration    20          0.940              1.067              0.479

                           ! Non-Optimized Parameters !
 Normal termination of Gaussian 16 at Thu Dec 10 10:49:53 2020.

 ----------------------------------------------------------------------
 # B3LYP/6-311++G(d,p) empiricaldispersion=gd3bj scf=xqc pop=npa geom=c
 heck
 ----------------------------------------------------------------------

 ---------------------------------------
 CID_150511290_JID_4816_Energie_neutraal
 ---------------------------------------
 Structure from the checkpoint file:  "JID_4816.chk"
 Charge =  0 Multiplicity = 1

 SCF Done:  E(RB3LYP) =  -680.475126121     A.U. after   16 cycles
 Normal termination of Gaussian 16 at Thu Dec 10 10:52:58 2020.

 ----------------------------------------------------------------------
 # B3LYP/6-311++G(d,p) empiricaldispersion=gd3bj scf=xqc pop=npa geom=c
 heck
 ----------------------------------------------------------------------

 -------------------------------------
 CID_150511290_JID_4816_Energie_kation
 -------------------------------------
 Structure from the checkpoint file:  "JID_4816.chk"
 Charge =  1 Multiplicity = 2

 SCF Done:  E(UB3LYP) =  -680.197940408     A.U. after   24 cycles
 Normal termination of Gaussian 16 at Thu Dec 10 10:59:08 2020.
 Gaussian 16:  ES64L-G16RevA.03 25-Dec-2016

 ----------------------------------------------------------------------
 # B3LYP/6-311++G(d,p) empiricaldispersion=gd3bj scf=xqc pop=npa geom=c
 heck
 ----------------------------------------------------------------------

 ------------------------------------
 CID_150511290_JID_4816_Energie_anion
 ------------------------------------
 Structure from the checkpoint file:  "JID_4816.chk"
 Charge = -1 Multiplicity = 2

                         Standard orientation:
 ---------------------------------------------------------------------
 Center     Atomic      Atomic             Coordinates (Angstroms)
 Number     Number       Type             X           Y           Z
 ---------------------------------------------------------------------
      1          6           0       -0.241879    2.820381   -0.701017
      2          8           0       -0.534372    1.464577   -1.002925
      3          6           0        0.369453    0.511330   -0.627344
      4          6           0       -0.076282   -0.818244   -0.752855
      5          6           0        0.784745   -1.847562   -0.375303
      6          6           0        2.051678   -1.588362    0.142419
      7          6           0        2.478589   -0.265791    0.258235
      8          6           0        1.644151    0.788898   -0.133295
      9          8           0        3.732806   -0.046637    0.758187
     10          7           0       -1.385831   -1.109645   -1.238489
     11          6           0       -2.367764   -1.456632   -0.239905
     12          7           0       -2.892582   -0.324593    0.592592
     13          7           0       -2.097740    0.219738    1.363052
     14          7           0       -1.478310    0.818931    2.115120
     15          1           0       -0.072202    2.952168    0.374228
     16          1           0       -1.121067    3.390378   -1.004961
     17          1           0        0.632180    3.177390   -1.260991
     18          1           0        0.442502   -2.871436   -0.493828
     19          1           0        2.716530   -2.389723    0.444063
     20          1           0        1.988209    1.812736   -0.028930
     21          1           0        3.892261    0.908394    0.803611
     22          1           0       -1.730626   -0.342339   -1.809103
     23          1           0       -3.260636   -1.846162   -0.729728
     24          1           0       -1.949517   -2.230043    0.412020
 ---------------------------------------------------------------------

 SCF Done:  E(UB3LYP) =  -680.467657099     A.U. after   33 cycles
 SCF Done:  E(UB3LYP) =  -680.467657098     a.u. after    1 cycles

 The electronic state is 2-A.
 Alpha  occ. eigenvalues --  -19.05584 -19.04815 -14.34877 -14.24952 -14.23486
 Alpha  occ. eigenvalues --  -14.21498 -10.13831 -10.13500 -10.13293 -10.11820
 Alpha  occ. eigenvalues --  -10.09764 -10.07523 -10.06981 -10.06572  -1.01338
 Alpha  occ. eigenvalues --   -0.97216  -0.95882  -0.86367  -0.81904  -0.74313
 Alpha  occ. eigenvalues --   -0.65864  -0.64679  -0.60560  -0.59075  -0.51697
 Alpha  occ. eigenvalues --   -0.49807  -0.46016  -0.44327  -0.42375  -0.41302
 Alpha  occ. eigenvalues --   -0.40005  -0.38689  -0.37877  -0.36540  -0.34857
 Alpha  occ. eigenvalues --   -0.34231  -0.32836  -0.32664  -0.31701  -0.30870
 Alpha  occ. eigenvalues --   -0.29055  -0.28682  -0.26436  -0.25713  -0.23898
 Alpha  occ. eigenvalues --   -0.21384  -0.20226  -0.16608  -0.14305  -0.14041
 Alpha  occ. eigenvalues --   -0.10067   0.04376
 Alpha virt. eigenvalues --    0.06014   0.07697   0.07954   0.08740   0.08815
 Alpha virt. eigenvalues --    0.09862   0.10269   0.10764   0.11414   0.11502
 Alpha virt. eigenvalues --    0.12311   0.12890   0.14005   0.14396   0.15343

  Beta  occ. eigenvalues --  -19.05574 -19.04764 -14.34704 -14.24713 -14.23522
  Beta  occ. eigenvalues --  -14.21499 -10.13767 -10.13496 -10.13262 -10.11778
  Beta  occ. eigenvalues --  -10.09761 -10.07499 -10.06959 -10.06576  -1.00995
  Beta  occ. eigenvalues --   -0.97192  -0.95775  -0.86227  -0.81843  -0.74275
  Beta  occ. eigenvalues --   -0.65821  -0.64607  -0.60473  -0.58980  -0.51617
  Beta  occ. eigenvalues --   -0.49763  -0.45954  -0.44243  -0.42250  -0.41216
  Beta  occ. eigenvalues --   -0.39780  -0.38269  -0.37789  -0.36484  -0.34646
  Beta  occ. eigenvalues --   -0.34161  -0.32771  -0.32327  -0.31462  -0.30776
  Beta  occ. eigenvalues --   -0.28997  -0.28565  -0.26386  -0.25672  -0.23849
  Beta  occ. eigenvalues --   -0.21325  -0.19972  -0.16413  -0.14240  -0.13987
  Beta  occ. eigenvalues --   -0.09986
  Beta virt. eigenvalues --    0.06972   0.07726   0.08091   0.08782   0.09128
  Beta virt. eigenvalues --    0.09477   0.10007   0.10629   0.11074   0.11698
  Beta virt. eigenvalues --    0.11964   0.12644   0.13022   0.14340   0.14558

 Mulliken charges and spin densities:
               1          2
     1  C    0.970343  -1.304208
     2  O   -0.166390   0.012191
     3  C   -0.858272   1.056615
     4  C   -0.592861   0.251933
     5  C   -0.496239   0.134662
     6  C    0.791199  -0.774948
     7  C    1.279143  -1.935851
     8  C    0.111187   0.293462
     9  O   -0.293126   0.057301
    10  N   -0.134743   0.092311
    11  C    0.014034  -0.436876
    12  N   -0.522923   0.085677
    13  N    0.503039   0.049632
    14  N   -0.150456   0.056236
    15  H   -0.046302   0.219974
    16  H   -0.369042   0.532176
    17  H   -0.425370   0.583552
    18  H    0.086556   0.066646
    19  H    0.166145   0.001203
    20  H   -0.655043   0.844434
    21  H   -0.258855   0.536723
    22  H    0.234943   0.044605
    23  H   -0.287488   0.485697
    24  H    0.100521   0.046852
 Sum of Mulliken charges =  -1.00000   1.00000

 Dipole moment (field-independent basis, Debye):
    X=             -2.2688    Y=             -5.4898    Z=             -0.8874  Tot=              6.0061
 Quadrupole moment (field-independent basis, Debye-Ang):
   XX=           -143.6109   YY=           -122.1216   ZZ=           -108.9630
   XY=            -11.4252   XZ=             -0.8679   YZ=             -2.1930

 Summary of Natural Population Analysis:

                                       Natural Population
                Natural  -----------------------------------------------
    Atom  No    Charge         Core      Valence    Rydberg      Total
 -----------------------------------------------------------------------
      C    1   -0.10080      0.99960     2.09189    0.00931     3.10080
      O    2   -0.27811      0.99986     3.26775    0.01050     4.27811
      C    3    0.16363      0.99935     1.82352    0.01350     2.83637
      C    4    0.03581      0.99942     1.95244    0.01234     2.96419
      C    5   -0.09124      0.99953     2.08337    0.00835     3.09124
      C    6   -0.14235      0.99952     2.13368    0.00915     3.14235
      C    7    0.16945      0.99940     1.81740    0.01374     2.83055
      C    8   -0.17384      0.99948     2.16461    0.00975     3.17384
      O    9   -0.34141      0.99988     3.33458    0.00695     4.34141
      N   10   -0.33212      0.99971     2.82091    0.01150     3.83212
      C   11    0.00473      0.99960     1.98017    0.01550     2.99527
      N   12   -0.21176      0.99971     2.69701    0.01504     3.71176
      N   13    0.12785      0.99970     2.35667    0.01578     3.37215
      N   14   -0.02525      0.99982     2.51312    0.01232     3.52525
      H   15    0.09155      0.00000     0.40690    0.00155     0.40845
      H   16    0.09334      0.00000     0.40542    0.00125     0.40666
      H   17    0.08676      0.00000     0.41091    0.00233     0.41324
      H   18    0.10098      0.00000     0.39799    0.00103     0.39902
      H   19    0.10360      0.00000     0.39558    0.00082     0.39640
      H   20    0.11088      0.00000     0.38642    0.00270     0.38912
      H   21    0.23967      0.00000     0.25259    0.00774     0.26033
      H   22    0.18676      0.00000     0.31010    0.00315     0.31324
      H   23    0.09474      0.00000     0.40361    0.00165     0.40526
      H   24    0.08715      0.00000     0.41175    0.00110     0.41285
 =======================================================================
   * Total *   -0.00000     13.99457    36.81840    0.18703    51.00000

 Normal termination of Gaussian 16 at Thu Dec 10 11:07:02 2020.
