 Gaussian 16, Revision A.03,

 -----------------------------------------------------------
 # opt freq B3LYP/6-31G(d) empiricaldispersion=gd3bj scf=xqc
 -----------------------------------------------------------

 -------------------------------
 CID_105502323_JID_6754_neutraal
 -------------------------------
 Symbolic Z-matrix:
 Charge =  0 Multiplicity = 1

 SCF Done:  E(RB3LYP) =  -1087.01574253     A.U. after   15 cycles
 SCF Done:  E(RB3LYP) =  -1087.01866547     A.U. after   12 cycles
 SCF Done:  E(RB3LYP) =  -1087.01851086     A.U. after   12 cycles
 SCF Done:  E(RB3LYP) =  -1087.01908380     A.U. after   12 cycles
 SCF Done:  E(RB3LYP) =  -1087.01920936     A.U. after   12 cycles
 SCF Done:  E(RB3LYP) =  -1087.01929753     A.U. after   11 cycles
 SCF Done:  E(RB3LYP) =  -1087.01934114     A.U. after   12 cycles
 SCF Done:  E(RB3LYP) =  -1087.01936365     A.U. after   10 cycles
 SCF Done:  E(RB3LYP) =  -1087.01937283     A.U. after   10 cycles
 SCF Done:  E(RB3LYP) =  -1087.01937381     A.U. after    8 cycles
 SCF Done:  E(RB3LYP) =  -1087.01937548     A.U. after    8 cycles
 SCF Done:  E(RB3LYP) =  -1087.01937564     A.U. after    8 cycles
 SCF Done:  E(RB3LYP) =  -1087.01937565     A.U. after    8 cycles
 SCF Done:  E(RB3LYP) =  -1087.01937567     A.U. after    7 cycles
 Optimization completed.
    -- Stationary point found.
 Normal termination of Gaussian 16 at Thu Dec 10 23:37:28 2020.

 --------------------------------------------------------------------
 #N Geom=AllCheck Guess=TCheck SCRF=Check GenChk RB3LYP/6-31G(d) Freq
 --------------------------------------------------------------------

 Structure from the checkpoint file:  "JID_6754.chk"
 -------------------------------
 CID_105502323_JID_6754_neutraal
 -------------------------------
 Charge =  0 Multiplicity = 1

 SCF Done:  E(RB3LYP) =  -1087.01937567     A.U. after    1 cycles

  Exact polarizability: 180.027   8.258 135.582   3.080   3.867 114.835
 Approx polarizability: 227.995  13.466 226.235   2.912  19.072 183.144

                      1                      2                      3
                      A                      A                      A
 Frequencies --     26.5769                35.0534                45.5405
 Red. masses --      7.4935                 6.3489                 4.7659
 Frc consts  --      0.0031                 0.0046                 0.0058
 IR Inten    --      0.9653                 0.6359                 0.2870

                      4                      5                      6
                      A                      A                      A
 Frequencies --     63.4430                76.5435               106.4732
 Red. masses --      4.8737                 4.2914                 5.3682
 Frc consts  --      0.0116                 0.0148                 0.0359
 IR Inten    --      1.0561                 3.7989                 1.1454

                      7                      8                      9
                      A                      A                      A
 Frequencies --    146.6102               186.6190               217.0756
 Red. masses --      1.0850                 3.5125                 3.2890
 Frc consts  --      0.0137                 0.0721                 0.0913
 IR Inten    --      0.5751                 1.1895                 0.3061

                     10                     11                     12
                      A                      A                      A
 Frequencies --    234.2709               240.0823               260.5520
 Red. masses --      2.1057                 5.0044                 3.2641
 Frc consts  --      0.0681                 0.1699                 0.1306
 IR Inten    --      0.4470                 0.0884                 0.7270

                     13                     14                     15
                      A                      A                      A
 Frequencies --    293.8398               313.6899               372.5978
 Red. masses --      2.2600                 5.1790                 4.5773
 Frc consts  --      0.1150                 0.3003                 0.3744
 IR Inten    --      1.6910                 0.7036                 3.3010

                     16                     17                     18
                      A                      A                      A
 Frequencies --    404.5685               422.9852               435.5378
 Red. masses --      2.7233                 2.2829                 3.6596
 Frc consts  --      0.2626                 0.2406                 0.4090
 IR Inten    --      1.7968                 3.9759                 3.2023

                     19                     20                     21
                      A                      A                      A
 Frequencies --    455.9655               514.5366               553.3134
 Red. masses --      2.8698                 2.7111                 2.7862
 Frc consts  --      0.3515                 0.4229                 0.5026
 IR Inten    --      5.3793                 1.1466                27.1979

                     22                     23                     24
                      A                      A                      A
 Frequencies --    613.8255               656.4161               665.0144
 Red. masses --      2.8069                 4.5048                 6.4568
 Frc consts  --      0.6231                 1.1436                 1.6824
 IR Inten    --     36.7859                 4.1999                 4.5145

                     25                     26                     27
                      A                      A                      A
 Frequencies --    666.9919               691.3925               694.0276
 Red. masses --      3.0271                 3.0211                 4.1092
 Frc consts  --      0.7935                 0.8509                 1.1662
 IR Inten    --     19.5712                31.5997                 5.0115

                     28                     29                     30
                      A                      A                      A
 Frequencies --    711.0275               788.1152               808.9367
 Red. masses --      2.6071                 2.7813                 1.5193
 Frc consts  --      0.7766                 1.0178                 0.5858
 IR Inten    --     66.3231                30.1051                 0.1365

                     31                     32                     33
                      A                      A                      A
 Frequencies --    830.1722               860.3076               876.9166
 Red. masses --      3.0958                 1.4161                 3.0092
 Frc consts  --      1.2571                 0.6175                 1.3634
 IR Inten    --      3.5039                 7.4271                 5.1398

                     34                     35                     36
                      A                      A                      A
 Frequencies --    902.1316               934.8793               949.8075
 Red. masses --      4.6784                 1.3833                 1.9228
 Frc consts  --      2.2433                 0.7123                 1.0220
 IR Inten    --      3.4097                 3.7138                 6.4420

                     37                     38                     39
                      A                      A                      A
 Frequencies --    968.5562               986.1753              1005.8820
 Red. masses --      2.4655                 1.9591                 2.2069
 Frc consts  --      1.3627                 1.1225                 1.3156
 IR Inten    --     47.1035                22.9252                 3.3296

                     40                     41                     42
                      A                      A                      A
 Frequencies --   1028.9730              1071.5061              1077.6636
 Red. masses --      2.1777                 1.4778                 1.8949
 Frc consts  --      1.3585                 0.9997                 1.2966
 IR Inten    --      4.0434                 2.1647                 0.4120

                     43                     44                     45
                      A                      A                      A
 Frequencies --   1100.8492              1121.0301              1145.2584
 Red. masses --      1.5765                 1.7548                 2.1872
 Frc consts  --      1.1256                 1.2993                 1.6902
 IR Inten    --      1.8706                79.9320                35.7056

                     46                     47                     48
                      A                      A                      A
 Frequencies --   1152.2062              1158.4428              1225.9563
 Red. masses --      1.4689                 2.3131                 2.0267
 Frc consts  --      1.1490                 1.8289                 1.7947
 IR Inten    --      3.3717                23.6770               106.5181

                     49                     50                     51
                      A                      A                      A
 Frequencies --   1237.0704              1243.3088              1270.6134
 Red. masses --      1.4026                 1.4583                 1.4732
 Frc consts  --      1.2647                 1.3282                 1.4013
 IR Inten    --      1.1153                 4.8054                46.9717

                     52                     53                     54
                      A                      A                      A
 Frequencies --   1275.6696              1292.6005              1319.3175
 Red. masses --      1.7661                 1.6123                 1.2575
 Frc consts  --      1.6933                 1.5872                 1.2897
 IR Inten    --      1.2232                 8.7047                20.8691

                     55                     56                     57
                      A                      A                      A
 Frequencies --   1326.9909              1350.3382              1356.2618
 Red. masses --      1.4359                 1.3233                 1.2723
 Frc consts  --      1.4897                 1.4216                 1.3789
 IR Inten    --      2.5597                 3.3065                27.5269

                     58                     59                     60
                      A                      A                      A
 Frequencies --   1374.3615              1393.5289              1409.1536
 Red. masses --      1.5561                 2.6765                 1.3843
 Frc consts  --      1.7318                 3.0623                 1.6196
 IR Inten    --     13.7970                49.8460                 2.1325

                     61                     62                     63
                      A                      A                      A
 Frequencies --   1415.5774              1428.3279              1447.2616
 Red. masses --      2.3114                 5.0213                 1.8191
 Frc consts  --      2.7289                 6.0356                 2.2449
 IR Inten    --     48.8550                52.1920                15.2947

                     64                     65                     66
                      A                      A                      A
 Frequencies --   1457.9962              1495.9571              1501.5064
 Red. masses --      1.3909                 1.0868                 1.1319
 Frc consts  --      1.7421                 1.4330                 1.5035
 IR Inten    --      8.8178                 1.7357                 8.8831

                     67                     68                     69
                      A                      A                      A
 Frequencies --   1502.1760              1506.2061              1507.5138
 Red. masses --      1.0912                 1.0849                 1.0836
 Frc consts  --      1.4507                 1.4501                 1.4509
 IR Inten    --      9.5088                 4.5983                 2.0361

                     70                     71                     72
                      A                      A                      A
 Frequencies --   1518.5739              1524.7613              1538.2203
 Red. masses --      1.3049                 1.1126                 2.7346
 Frc consts  --      1.7729                 1.5241                 3.8123
 IR Inten    --     11.3323                13.3254                 2.1420

                     73                     74                     75
                      A                      A                      A
 Frequencies --   1616.2854              1841.5486              3053.9263
 Red. masses --      5.5218                 9.4080                 1.0652
 Frc consts  --      8.4990                18.7981                 5.8531
 IR Inten    --      9.4903               234.3297                29.8735

                     76                     77                     78
                      A                      A                      A
 Frequencies --   3055.8378              3058.5481              3059.6664
 Red. masses --      1.0643                 1.0603                 1.0603
 Frc consts  --      5.8556                 5.8442                 5.8485
 IR Inten    --      3.3543                35.8343                29.1532

                     79                     80                     81
                      A                      A                      A
 Frequencies --   3062.5324              3077.8555              3083.1879
 Red. masses --      1.0495                 1.0604                 1.0855
 Frc consts  --      5.7995                 5.9186                 6.0794
 IR Inten    --      3.8880                16.1934                 4.8040

                     82                     83                     84
                      A                      A                      A
 Frequencies --   3108.7779              3118.4508              3119.9469
 Red. masses --      1.0999                 1.0973                 1.0983
 Frc consts  --      6.2629                 6.2874                 6.2989
 IR Inten    --     21.5328                 7.1420                 5.8011

                     85                     86                     87
                      A                      A                      A
 Frequencies --   3124.7839              3131.1035              3132.2847
 Red. masses --      1.1010                 1.0985                 1.1042
 Frc consts  --      6.3341                 6.3455                 6.3830
 IR Inten    --     19.8642                22.5214                10.0795

                     88                     89                     90
                      A                      A                      A
 Frequencies --   3156.3008              3249.9741              3680.6590
 Red. masses --      1.0996                 1.0962                 1.0639
 Frc consts  --      6.4544                 6.8221                 8.4915
 IR Inten    --     11.6273                 8.4029                44.0963

 - Thermochemistry -
 -------------------
 Temperature   298.150 Kelvin.  Pressure   1.00000 Atm.
 Atom     1 has atomic number  6 and mass  12.00000

 Molecular mass:   240.09325 amu.
 Principal axes and moments of inertia in atomic units:
                           1         2         3
     Eigenvalues --  1560.917838379.001088925.42311
           X            0.99999  -0.00156  -0.00369
           Y            0.00147   0.99965  -0.02646
           Z            0.00373   0.02646   0.99964
 This molecule is an asymmetric top.
 Rotational symmetry number  1.
 Warning -- assumption of classical behavior for rotation
           may cause significant error
 Rotational temperatures (Kelvin)      0.05549     0.01034     0.00970
 Rotational constants (GHZ):           1.15621     0.21539     0.20220
 Zero-point vibrational energy     702945.4 (Joules/Mol)
                                  168.00799 (Kcal/Mol)
 Warning -- explicit consideration of  22 degrees of freedom as
           vibrations may cause significant error
 Vibrational temperatures:     38.24    50.43    65.52    91.28   110.13
          (Kelvin)            153.19   210.94   268.50   312.32   337.06
                              345.42   374.88   422.77   451.33   536.09
                              582.08   608.58   626.64   656.03   740.30
                              796.09   883.16   944.44   956.81   959.65
                              994.76   998.55  1023.01  1133.92  1163.88
                             1194.43  1237.79  1261.69  1297.97  1345.08
                             1366.56  1393.54  1418.89  1447.24  1480.46
                             1541.66  1550.52  1583.88  1612.91  1647.77
                             1657.77  1666.74  1763.88  1779.87  1788.84
                             1828.13  1835.40  1859.76  1898.20  1909.24
                             1942.84  1951.36  1977.40  2004.98  2027.46
                             2036.70  2055.05  2082.29  2097.73  2152.35
                             2160.33  2161.30  2167.09  2168.98  2184.89
                             2193.79  2213.16  2325.47  2649.58  4393.92
                             4396.67  4400.57  4402.18  4406.30  4428.35
                             4436.02  4472.84  4486.76  4488.91  4495.87
                             4504.96  4506.66  4541.21  4675.99  5295.65

 Zero-point correction=                           0.267738 (Hartree/Particle)
 Thermal correction to Energy=                    0.283315
 Thermal correction to Enthalpy=                  0.284259
 Thermal correction to Gibbs Free Energy=         0.222760
 Sum of electronic and zero-point Energies=          -1086.751638
 Sum of electronic and thermal Energies=             -1086.736061
 Sum of electronic and thermal Enthalpies=           -1086.735117
 Sum of electronic and thermal Free Energies=        -1086.796616

                     E (Thermal)             CV                S
                      KCal/Mol        Cal/Mol-Kelvin    Cal/Mol-Kelvin
 Total                  177.783             58.380            129.436
 Electronic               0.000              0.000              0.000
 Translational            0.889              2.981             42.329
 Rotational               0.889              2.981             33.123
 Vibrational            176.005             52.418             53.984
 Vibration     1          0.593              1.984              6.070
 Vibration     2          0.594              1.982              5.521
 Vibration     3          0.595              1.979              5.002
 Vibration     4          0.597              1.972              4.347
 Vibration     5          0.599              1.965              3.978
 Vibration     6          0.605              1.944              3.332
 Vibration     7          0.617              1.906              2.716
 Vibration     8          0.632              1.858              2.261
 Vibration     9          0.646              1.815              1.983
 Vibration    10          0.654              1.788              1.846
 Vibration    11          0.657              1.779              1.802
 Vibration    12          0.669              1.745              1.658
 Vibration    13          0.689              1.685              1.452
 Vibration    14          0.702              1.648              1.343
 Vibration    15          0.744              1.528              1.069
 Vibration    16          0.770              1.460              0.946
 Vibration    17          0.785              1.420              0.882
 Vibration    18          0.796              1.393              0.841
 Vibration    19          0.814              1.348              0.778
 Vibration    20          0.870              1.218              0.623
 Vibration    21          0.909              1.132              0.537
 Vibration    22          0.973              1.003              0.426

 Optimization completed.
    -- Stationary point found.
 Normal termination of Gaussian 16 at Thu Dec 10 23:47:59 2020.

 ----------------------------------------------------------------------
 # B3LYP/6-311++G(d,p) empiricaldispersion=gd3bj scf=xqc pop=npa geom=c
 heck
 ----------------------------------------------------------------------

 ---------------------------------------
 CID_105502323_JID_6754_Energie_neutraal
 ---------------------------------------
 Structure from the checkpoint file:  "JID_6754.chk"
 Charge =  0 Multiplicity = 1

 SCF Done:  E(RB3LYP) =  -1087.24336441     A.U. after   15 cycles
 Normal termination of Gaussian 16 at Thu Dec 10 23:52:38 2020.

 ----------------------------------------------------------------------
 # B3LYP/6-311++G(d,p) empiricaldispersion=gd3bj scf=xqc pop=npa geom=c
 heck
 ----------------------------------------------------------------------

 -------------------------------------
 CID_105502323_JID_6754_Energie_kation
 -------------------------------------
 Structure from the checkpoint file:  "JID_6754.chk"
 Charge =  1 Multiplicity = 2

 SCF Done:  E(UB3LYP) =  -1086.94772796     A.U. after   33 cycles
 SCF Done:  E(UB3LYP) =  -1086.94772796     a.u. after    1 cycles
 Normal termination of Gaussian 16 at Fri Dec 11 00:06:20 2020.
 Gaussian 16:  ES64L-G16RevA.03 25-Dec-2016

 ----------------------------------------------------------------------
 # B3LYP/6-311++G(d,p) empiricaldispersion=gd3bj scf=xqc pop=npa geom=c
 heck
 ----------------------------------------------------------------------

 ------------------------------------
 CID_105502323_JID_6754_Energie_anion
 ------------------------------------
 Structure from the checkpoint file:  "JID_6754.chk"
 Charge = -1 Multiplicity = 2

                         Standard orientation:
 ---------------------------------------------------------------------
 Center     Atomic      Atomic             Coordinates (Angstroms)
 Number     Number       Type             X           Y           Z
 ---------------------------------------------------------------------
      1          6           0        0.711427   -1.257911   -1.077635
      2          6           0        0.932321    0.075890   -0.437595
      3          6           0        2.112882    0.806476   -0.337417
      4          6           0        1.764784    1.965507    0.387853
      5          7           0        0.475664    1.977846    0.711045
      6          7           0       -0.020440    0.814794    0.210187
      7          6           0       -1.459363    0.593447    0.355598
      8          6           0       -1.780844   -0.750253    1.024513
      9          6           0       -3.270790   -0.870546    1.353284
     10         16           0       -4.329191   -0.809992   -0.143136
     11          6           0       -3.715271    0.789002   -0.797587
     12          6           0       -2.195943    0.809474   -0.976119
     13          6           0        3.469602    0.416092   -0.858237
     14          6           0        4.040043   -0.721683   -0.033101
     15          8           0        3.830010   -1.899919   -0.225180
     16          8           0        4.789743   -0.271521    1.000624
     17          1           0        1.563004   -1.501042   -1.716396
     18          1           0       -0.198013   -1.286667   -1.684999
     19          1           0        0.645835   -2.059656   -0.333349
     20          1           0        2.404881    2.787588    0.682327
     21          1           0       -1.762176    1.392351    1.039774
     22          1           0       -1.493404   -1.583456    0.377573
     23          1           0       -1.195057   -0.828509    1.949066
     24          1           0       -3.484210   -1.829380    1.834005
     25          1           0       -3.580533   -0.077128    2.044288
     26          1           0       -4.034678    1.596251   -0.127292
     27          1           0       -4.220830    0.936604   -1.756101
     28          1           0       -1.888973    1.781301   -1.381785
     29          1           0       -1.906804    0.041162   -1.700754
     30          1           0        3.413449    0.068835   -1.894871
     31          1           0        4.144358    1.275020   -0.816584
     32          1           0        5.062521   -1.063321    1.501767
 ---------------------------------------------------------------------

 SCF Done:  E(UB3LYP) =  -1087.23141077     A.U. after   33 cycles
 SCF Done:  E(UB3LYP) =  -1087.23141077     a.u. after    1 cycles

 The electronic state is 2-A.
 Alpha  occ. eigenvalues --  -88.75318 -19.07503 -19.02120 -14.29262 -14.23316
 Alpha  occ. eigenvalues --  -10.21376 -10.13335 -10.12076 -10.11708 -10.11662
 Alpha  occ. eigenvalues --  -10.10036 -10.09422 -10.09246 -10.09241 -10.08458
 Alpha  occ. eigenvalues --  -10.08219  -7.83942  -5.80321  -5.79991  -5.79305
 Alpha  occ. eigenvalues --   -1.01572  -0.95449  -0.92673  -0.77892  -0.73253
 Alpha  occ. eigenvalues --   -0.72794  -0.68051  -0.67657  -0.64034  -0.61070
 Alpha  occ. eigenvalues --   -0.55227  -0.54693  -0.52676  -0.49605  -0.48835
 Alpha  occ. eigenvalues --   -0.45688  -0.42080  -0.39988  -0.39215  -0.38306
 Alpha  occ. eigenvalues --   -0.38067  -0.37204  -0.36248  -0.35984  -0.34463
 Alpha  occ. eigenvalues --   -0.33753  -0.32572  -0.31886  -0.31345  -0.30852
 Alpha  occ. eigenvalues --   -0.30667  -0.29863  -0.29696  -0.28384  -0.27869
 Alpha  occ. eigenvalues --   -0.25488  -0.23902  -0.23248  -0.22362  -0.20370
 Alpha  occ. eigenvalues --   -0.19174  -0.15824  -0.14450  -0.14268   0.04093
 Alpha virt. eigenvalues --    0.05701   0.06166   0.07084   0.07367   0.08699
 Alpha virt. eigenvalues --    0.08855   0.09030   0.09361   0.09631   0.09822
 Alpha virt. eigenvalues --    0.10280   0.11053   0.11590   0.11737   0.12241

  Beta  occ. eigenvalues --  -88.75315 -19.07448 -19.02104 -14.29258 -14.23313
  Beta  occ. eigenvalues --  -10.21369 -10.13331 -10.12071 -10.11688 -10.11639
  Beta  occ. eigenvalues --  -10.10003 -10.09419 -10.09229 -10.09225 -10.08436
  Beta  occ. eigenvalues --  -10.08220  -7.83938  -5.80319  -5.79986  -5.79301
  Beta  occ. eigenvalues --   -1.01499  -0.95440  -0.92614  -0.77873  -0.73235
  Beta  occ. eigenvalues --   -0.72771  -0.68015  -0.67616  -0.64002  -0.61034
  Beta  occ. eigenvalues --   -0.55193  -0.54636  -0.52606  -0.49555  -0.48788
  Beta  occ. eigenvalues --   -0.45657  -0.42046  -0.39943  -0.39184  -0.38279
  Beta  occ. eigenvalues --   -0.38025  -0.37178  -0.36222  -0.35951  -0.34430
  Beta  occ. eigenvalues --   -0.33719  -0.32546  -0.31844  -0.31316  -0.30810
  Beta  occ. eigenvalues --   -0.30630  -0.29829  -0.29666  -0.28360  -0.27838
  Beta  occ. eigenvalues --   -0.25463  -0.23870  -0.23197  -0.22334  -0.20348
  Beta  occ. eigenvalues --   -0.19136  -0.15812  -0.14431  -0.14249
  Beta virt. eigenvalues --    0.06125   0.06761   0.06822   0.07504   0.08053
  Beta virt. eigenvalues --    0.08939   0.09025   0.09260   0.09638   0.09879
  Beta virt. eigenvalues --    0.10174   0.10449   0.11229   0.11657   0.11983

 Mulliken charges and spin densities:
               1          2
     1  C    1.589804  -2.472103
     2  C    0.444918  -0.884396
     3  C   -1.807815   2.938941
     4  C   -0.537476   0.174803
     5  N    0.138029  -0.148089
     6  N    0.361105   0.196633
     7  C   -0.794489  -0.386121
     8  C   -0.153745   0.373775
     9  C    0.351205  -0.980576
    10  S    0.223752  -0.141361
    11  C   -0.109468  -0.477804
    12  C    0.224860   0.016971
    13  C    0.694812  -1.386722
    14  C    0.067388  -0.088694
    15  O   -0.287686   0.043262
    16  O   -0.182108   0.046608
    17  H    0.245553  -0.057730
    18  H   -0.125119   0.249407
    19  H   -0.161923   0.380197
    20  H   -0.109295   0.259081
    21  H    0.200989  -0.009663
    22  H    0.229171  -0.169215
    23  H   -0.255824   0.472346
    24  H   -0.192213   0.422552
    25  H    0.057014   0.120457
    26  H    0.055829   0.127910
    27  H   -0.330230   0.559810
    28  H   -0.114926   0.311710
    29  H    0.088109   0.013634
    30  H   -0.439505   0.635620
    31  H    0.063738   0.122932
    32  H   -0.434459   0.735826
 Sum of Mulliken charges =  -1.00000   1.00000

 Dipole moment (field-independent basis, Debye):
    X=             -3.6968    Y=              1.7970    Z=             -0.9652  Tot=              4.2222
 Quadrupole moment (field-independent basis, Debye-Ang):
   XX=           -205.1645   YY=           -142.2919   ZZ=           -141.8514
   XY=              7.2547   XZ=            -10.5617   YZ=              3.9368

 Summary of Natural Population Analysis:

                                       Natural Population
                Natural  -----------------------------------------------
    Atom  No    Charge         Core      Valence    Rydberg      Total
 -----------------------------------------------------------------------
      C    1   -0.30454      0.99963     2.30002    0.00489     3.30454
      C    2    0.09599      0.99946     1.89323    0.01132     2.90401
      C    3   -0.07464      0.99944     2.06383    0.01137     3.07464
      C    4   -0.00491      0.99956     1.99179    0.01355     3.00491
      N    5   -0.15500      0.99974     2.64468    0.01058     3.65500
      N    6   -0.11198      0.99960     2.59767    0.01470     3.61198
      C    7   -0.00337      0.99956     1.99042    0.01340     3.00337
      C    8   -0.20224      0.99959     2.19271    0.00994     3.20224
      C    9   -0.24896      0.99959     2.23840    0.01096     3.24896
      S   10    0.08673      4.99964     2.89612    0.01752     7.91327
      C   11   -0.25003      0.99959     2.23934    0.01109     3.25003
      C   12   -0.19978      0.99959     2.19034    0.00985     3.19978
      C   13   -0.24124      0.99955     2.23191    0.00978     3.24124
      C   14    0.41121      0.99972     1.56306    0.02600     2.58879
      O   15   -0.30858      0.99987     3.30182    0.00690     4.30858
      O   16   -0.34260      0.99988     3.33598    0.00674     4.34260
      H   17    0.11628      0.00000     0.38261    0.00111     0.38372
      H   18    0.10398      0.00000     0.39448    0.00154     0.39602
      H   19    0.11198      0.00000     0.38671    0.00131     0.38802
      H   20    0.09786      0.00000     0.40120    0.00094     0.40214
      H   21    0.10845      0.00000     0.38901    0.00254     0.39155
      H   22    0.10377      0.00000     0.39423    0.00201     0.39623
      H   23    0.10844      0.00000     0.39018    0.00139     0.39156
      H   24    0.11078      0.00000     0.38798    0.00124     0.38922
      H   25    0.09860      0.00000     0.39999    0.00141     0.40140
      H   26    0.09861      0.00000     0.39999    0.00140     0.40139
      H   27    0.11122      0.00000     0.38731    0.00147     0.38878
      H   28    0.10837      0.00000     0.39031    0.00132     0.39163
      H   29    0.10111      0.00000     0.39705    0.00184     0.39889
      H   30    0.11467      0.00000     0.38382    0.00151     0.38533
      H   31    0.11512      0.00000     0.38343    0.00145     0.38488
      H   32    0.24470      0.00000     0.23837    0.01694     0.25530
 =======================================================================
   * Total *    0.00000     19.99401    43.77798    0.22801    64.00000

 Normal termination of Gaussian 16 at Fri Dec 11 00:20:06 2020.
