 Gaussian 16, Revision A.03,

 -----------------------------------------------------------
 # opt freq B3LYP/6-31G(d) empiricaldispersion=gd3bj scf=xqc
 -----------------------------------------------------------

 --------------------------------
 CID_115981537_JID_10180_neutraal
 --------------------------------
 Symbolic Z-matrix:
 Charge =  0 Multiplicity = 1

 SCF Done:  E(RB3LYP) =  -898.919740719     A.U. after   15 cycles
 SCF Done:  E(RB3LYP) =  -898.927551277     A.U. after   14 cycles
 SCF Done:  E(RB3LYP) =  -898.928661550     A.U. after   14 cycles
 SCF Done:  E(RB3LYP) =  -898.920947040     A.U. after   15 cycles
 SCF Done:  E(RB3LYP) =  -898.929255396     A.U. after   13 cycles
 SCF Done:  E(RB3LYP) =  -898.929344304     A.U. after   12 cycles
 SCF Done:  E(RB3LYP) =  -898.929370088     A.U. after   10 cycles
 SCF Done:  E(RB3LYP) =  -898.929380442     A.U. after   11 cycles
 SCF Done:  E(RB3LYP) =  -898.929386329     A.U. after   10 cycles
 SCF Done:  E(RB3LYP) =  -898.929394944     A.U. after   11 cycles
 SCF Done:  E(RB3LYP) =  -898.931893757     A.U. after   10 cycles
 SCF Done:  E(RB3LYP) =  -898.931897066     A.U. after    9 cycles
 SCF Done:  E(RB3LYP) =  -898.931899415     A.U. after   10 cycles
 SCF Done:  E(RB3LYP) =  -898.931899887     A.U. after    9 cycles
 SCF Done:  E(RB3LYP) =  -898.931900011     A.U. after    8 cycles
 SCF Done:  E(RB3LYP) =  -898.931900058     A.U. after    7 cycles
 Optimization completed.
    -- Stationary point found.
 Normal termination of Gaussian 16 at Sat Dec 12 16:08:21 2020.

 --------------------------------------------------------------------
 #N Geom=AllCheck Guess=TCheck SCRF=Check GenChk RB3LYP/6-31G(d) Freq
 --------------------------------------------------------------------

 Structure from the checkpoint file:  "JID_10180.chk"
 --------------------------------
 CID_115981537_JID_10180_neutraal
 --------------------------------
 Charge =  0 Multiplicity = 1

 SCF Done:  E(RB3LYP) =  -898.931900058     A.U. after    1 cycles

  Exact polarizability: 233.974   8.555 189.837 -10.882  11.071 127.065
 Approx polarizability: 342.185  21.618 310.939 -26.168  30.920 189.016

                      1                      2                      3
                      A                      A                      A
 Frequencies --     20.3590                35.1556                41.4436
 Red. masses --      4.1759                 5.3323                 1.0262
 Frc consts  --      0.0010                 0.0039                 0.0010
 IR Inten    --      1.3536                 0.4830                 0.1856

                      4                      5                      6
                      A                      A                      A
 Frequencies --     52.1842                57.4544                83.1055
 Red. masses --      8.6144                 2.9736                 2.5674
 Frc consts  --      0.0138                 0.0058                 0.0104
 IR Inten    --      0.0963                 0.0428                 0.3283

                      7                      8                      9
                      A                      A                      A
 Frequencies --     96.2819               118.5212               159.0080
 Red. masses --      4.7514                 2.8479                 4.5372
 Frc consts  --      0.0260                 0.0236                 0.0676
 IR Inten    --      0.6427                 0.8930                 1.1976

                     10                     11                     12
                      A                      A                      A
 Frequencies --    178.8844               206.3364               207.9383
 Red. masses --      2.8094                 3.8419                 3.6157
 Frc consts  --      0.0530                 0.0964                 0.0921
 IR Inten    --      1.7454                 1.6899                 0.6660

                     13                     14                     15
                      A                      A                      A
 Frequencies --    234.2479               251.4217               270.7080
 Red. masses --      3.0089                 2.5331                 1.2901
 Frc consts  --      0.0973                 0.0943                 0.0557
 IR Inten    --      1.7026                 1.7757                 2.5793

                     16                     17                     18
                      A                      A                      A
 Frequencies --    290.3893               300.5710               329.0268
 Red. masses --      3.8705                 3.0656                 2.5427
 Frc consts  --      0.1923                 0.1632                 0.1622
 IR Inten    --      2.5460                 2.0687                 4.6598

                     19                     20                     21
                      A                      A                      A
 Frequencies --    348.4430               407.6654               434.0200
 Red. masses --      4.5148                 3.8324                 3.2314
 Frc consts  --      0.3230                 0.3753                 0.3586
 IR Inten    --      0.8958                 0.4983                 0.9162

                     22                     23                     24
                      A                      A                      A
 Frequencies --    447.4162               503.2542               511.3269
 Red. masses --      3.7135                 4.5104                 2.8425
 Frc consts  --      0.4380                 0.6730                 0.4379
 IR Inten    --      2.2092                 3.3982                 5.8833

                     25                     26                     27
                      A                      A                      A
 Frequencies --    544.2446               581.0169               589.3644
 Red. masses --      4.4467                 4.2704                 3.9463
 Frc consts  --      0.7760                 0.8494                 0.8076
 IR Inten    --      4.2216                 1.1146                 2.6935

                     28                     29                     30
                      A                      A                      A
 Frequencies --    608.7182               680.4961               685.6364
 Red. masses --      4.3235                 2.6322                 2.3379
 Frc consts  --      0.9439                 0.7182                 0.6475
 IR Inten    --      0.4066                 4.0243                 2.3415

                     31                     32                     33
                      A                      A                      A
 Frequencies --    721.3731               757.5391               763.1474
 Red. masses --      3.8429                 5.0572                 2.5433
 Frc consts  --      1.1782                 1.7099                 0.8727
 IR Inten    --      7.7317                22.0829                 9.5388

                     34                     35                     36
                      A                      A                      A
 Frequencies --    802.8490               810.4148               829.3308
 Red. masses --      2.7091                 3.2744                 3.0244
 Frc consts  --      1.0288                 1.2670                 1.2256
 IR Inten    --      6.9518                21.2578                28.4272

                     37                     38                     39
                      A                      A                      A
 Frequencies --    856.2057               862.0538               869.2403
 Red. masses --      1.3337                 1.9002                 1.6481
 Frc consts  --      0.5761                 0.8320                 0.7337
 IR Inten    --      2.5764               106.8926                 9.6630

                     40                     41                     42
                      A                      A                      A
 Frequencies --    877.9314               889.4892               899.8891
 Red. masses --      1.9459                 2.8887                 1.5002
 Frc consts  --      0.8837                 1.3466                 0.7158
 IR Inten    --     11.9074                 5.5554                 8.7511

                     43                     44                     45
                      A                      A                      A
 Frequencies --    917.8811               948.9553               956.3877
 Red. masses --      2.8701                 2.5370                 3.0400
 Frc consts  --      1.4247                 1.3461                 1.6383
 IR Inten    --     15.9186                 5.3812                 3.5556

                     46                     47                     48
                      A                      A                      A
 Frequencies --    961.4012               989.4488              1009.1750
 Red. masses --      2.4471                 1.8854                 3.7268
 Frc consts  --      1.3327                 1.0875                 2.2363
 IR Inten    --      7.0860                22.3381                 3.2708

                     49                     50                     51
                      A                      A                      A
 Frequencies --   1028.0922              1035.0608              1036.9811
 Red. masses --      1.9085                 1.7621                 2.1509
 Frc consts  --      1.1885                 1.1123                 1.3628
 IR Inten    --     10.1858                 0.1335                 1.0613

                     52                     53                     54
                      A                      A                      A
 Frequencies --   1052.5134              1061.6307              1075.5310
 Red. masses --      1.7081                 2.1039                 1.5128
 Frc consts  --      1.1149                 1.3971                 1.0311
 IR Inten    --      5.2673                 5.9892                10.0249

                     55                     56                     57
                      A                      A                      A
 Frequencies --   1097.7535              1100.7340              1122.6234
 Red. masses --      2.1108                 1.8094                 2.3626
 Frc consts  --      1.4987                 1.2917                 1.7543
 IR Inten    --     15.5152                 5.7747                 7.1509

                     58                     59                     60
                      A                      A                      A
 Frequencies --   1129.9728              1132.9605              1175.5103
 Red. masses --      2.4521                 1.5991                 2.0037
 Frc consts  --      1.8447                 1.2093                 1.6313
 IR Inten    --     17.3455                27.9065                13.2650

                     61                     62                     63
                      A                      A                      A
 Frequencies --   1184.5419              1212.6142              1226.7523
 Red. masses --      1.4196                 1.4111                 1.9402
 Frc consts  --      1.1736                 1.2225                 1.7204
 IR Inten    --      9.0566                23.7269                 9.8982

                     64                     65                     66
                      A                      A                      A
 Frequencies --   1235.1171              1247.6326              1295.1165
 Red. masses --      2.0157                 1.3893                 1.4061
 Frc consts  --      1.8118                 1.2742                 1.3896
 IR Inten    --      1.5820                39.9568                 6.2831

                     67                     68                     69
                      A                      A                      A
 Frequencies --   1309.0617              1316.5083              1324.7607
 Red. masses --      1.3402                 1.2853                 1.3294
 Frc consts  --      1.3531                 1.3125                 1.3746
 IR Inten    --      2.3742                11.9069                 1.3325

                     70                     71                     72
                      A                      A                      A
 Frequencies --   1332.8085              1337.1490              1345.5579
 Red. masses --      1.3502                 1.3341                 1.3480
 Frc consts  --      1.4131                 1.4054                 1.4379
 IR Inten    --      2.4928                 3.5383                 1.1635

                     73                     74                     75
                      A                      A                      A
 Frequencies --   1358.7140              1369.9646              1388.5589
 Red. masses --      1.7819                 1.5157                 1.5028
 Frc consts  --      1.9381                 1.6760                 1.7072
 IR Inten    --     14.1373                 5.0766                 2.1807

                     76                     77                     78
                      A                      A                      A
 Frequencies --   1390.4371              1399.0973              1409.0414
 Red. masses --      2.1436                12.3576                 2.0556
 Frc consts  --      2.4417                14.2521                 2.4046
 IR Inten    --     14.0626               345.2548                29.1020

                     79                     80                     81
                      A                      A                      A
 Frequencies --   1413.3292              1428.1110              1443.2441
 Red. masses --      1.4412                 1.9667                 1.2728
 Frc consts  --      1.6961                 2.3633                 1.5621
 IR Inten    --      0.5343               106.7918                 4.0278

                     82                     83                     84
                      A                      A                      A
 Frequencies --   1447.2637              1484.9345              1489.3211
 Red. masses --      1.2646                 2.6005                 1.1532
 Frc consts  --      1.5606                 3.3785                 1.5071
 IR Inten    --      3.5640                47.6151                 4.2793

                     85                     86                     87
                      A                      A                      A
 Frequencies --   1510.8821              1518.7312              1519.5530
 Red. masses --      1.0971                 1.0538                 1.0867
 Frc consts  --      1.4755                 1.4321                 1.4785
 IR Inten    --      3.4145                 5.9534                 3.4920

                     88                     89                     90
                      A                      A                      A
 Frequencies --   1523.0433              1531.2147              1531.5378
 Red. masses --      1.5050                 1.0810                 1.0796
 Frc consts  --      2.0569                 1.4933                 1.4920
 IR Inten    --      0.6085                 4.4237                 9.8123

                     91                     92                     93
                      A                      A                      A
 Frequencies --   1535.9640              1541.0900              1555.7732
 Red. masses --      1.1128                 1.9561                 1.1576
 Frc consts  --      1.5468                 2.7371                 1.6508
 IR Inten    --     14.3172               151.5061                 2.8508

                     94                     95                     96
                      A                      A                      A
 Frequencies --   1628.0023              1635.7318              1684.1202
 Red. masses --      7.5056                 7.0276                 7.6946
 Frc consts  --     11.7205                11.0785                12.8583
 IR Inten    --    231.0748               239.3733                66.1352

                     97                     98                     99
                      A                      A                      A
 Frequencies --   2991.0852              3031.2171              3044.4561
 Red. masses --      1.0699                 1.0602                 1.0664
 Frc consts  --      5.6397                 5.7396                 5.8235
 IR Inten    --     45.0323                32.3427                41.7418

                    100                    101                    102
                      A                      A                      A
 Frequencies --   3047.3992              3051.4944              3052.9620
 Red. masses --      1.0399                 1.0931                 1.0672
 Frc consts  --      5.6899                 5.9968                 5.8606
 IR Inten    --     27.4945                30.9720                55.3083

                    103                    104                    105
                      A                      A                      A
 Frequencies --   3056.0911              3061.2378              3082.5190
 Red. masses --      1.0390                 1.0960                 1.0887
 Frc consts  --      5.7176                 6.0515                 6.0947
 IR Inten    --     15.0315                 6.1664                14.3983

                    106                    107                    108
                      A                      A                      A
 Frequencies --   3092.1222              3105.3996              3105.9843
 Red. masses --      1.0864                 1.0968                 1.0874
 Frc consts  --      6.1202                 6.2317                 6.1808
 IR Inten    --     38.9987                16.0746                53.7749

                    109                    110                    111
                      A                      A                      A
 Frequencies --   3109.5802              3115.2296              3118.3715
 Red. masses --      1.1003                 1.1010                 1.1023
 Frc consts  --      6.2685                 6.2953                 6.3157
 IR Inten    --     25.4720                31.3906                46.3698

                    112                    113                    114
                      A                      A                      A
 Frequencies --   3133.8700              3135.8339              3216.3391
 Red. masses --      1.1025                 1.1014                 1.0888
 Frc consts  --      6.3796                 6.3813                 6.6365
 IR Inten    --     14.5271                31.2245                10.1420

                    115                    116                    117
                      A                      A                      A
 Frequencies --   3254.0261              3279.8957              3472.8864
 Red. masses --      1.0912                 1.0894                 1.0742
 Frc consts  --      6.8078                 6.9050                 7.6337
 IR Inten    --      2.2283                 3.3803                 1.2657

 - Thermochemistry -
 -------------------
 Temperature   298.150 Kelvin.  Pressure   1.00000 Atm.
 Atom     1 has atomic number  6 and mass  12.00000

 Molecular mass:   275.16338 amu.
 Principal axes and moments of inertia in atomic units:
                           1         2         3
     Eigenvalues --  3433.954448497.118479579.60083
           X            0.99969   0.02414   0.00653
           Y           -0.02395   0.99934  -0.02742
           Z           -0.00719   0.02726   0.99960
 This molecule is an asymmetric top.
 Rotational symmetry number  1.
 Warning -- assumption of classical behavior for rotation
           may cause significant error
 Rotational temperatures (Kelvin)      0.02522     0.01019     0.00904
 Rotational constants (GHZ):           0.52556     0.21239     0.18839
 Zero-point vibrational energy     925371.3 (Joules/Mol)
                                  221.16905 (Kcal/Mol)
 Warning -- explicit consideration of  28 degrees of freedom as
           vibrations may cause significant error
 Vibrational temperatures:     29.29    50.58    59.63    75.08    82.66
          (Kelvin)            119.57   138.53   170.53   228.78   257.37
                              296.87   299.18   337.03   361.74   389.49
                              417.81   432.45   473.40   501.33   586.54
                              624.46   643.73   724.07   735.69   783.05
                              835.95   847.96   875.81   979.08   986.48
                             1037.89  1089.93  1098.00  1155.12  1166.01
                             1193.22  1231.89  1240.30  1250.64  1263.15
                             1279.78  1294.74  1320.63  1365.34  1376.03
                             1383.24  1423.60  1451.98  1479.20  1489.22
                             1491.98  1514.33  1527.45  1547.45  1579.42
                             1583.71  1615.20  1625.78  1630.08  1691.30
                             1704.29  1744.68  1765.02  1777.06  1795.06
                             1863.38  1883.45  1894.16  1906.04  1917.61
                             1923.86  1935.96  1954.89  1971.07  1997.83
                             2000.53  2012.99  2027.30  2033.47  2054.73
                             2076.51  2082.29  2136.49  2142.80  2173.82
                             2185.12  2186.30  2191.32  2203.08  2203.54
                             2209.91  2217.28  2238.41  2342.33  2353.45
                             2423.07  4303.50  4361.25  4380.29  4384.53
                             4390.42  4392.53  4397.03  4404.44  4435.06
                             4448.87  4467.98  4468.82  4473.99  4482.12
                             4486.64  4508.94  4511.77  4627.59  4681.82
                             4719.04  4996.71

 Zero-point correction=                           0.352455 (Hartree/Particle)
 Thermal correction to Energy=                    0.371064
 Thermal correction to Enthalpy=                  0.372008
 Thermal correction to Gibbs Free Energy=         0.303510
 Sum of electronic and zero-point Energies=           -898.579445
 Sum of electronic and thermal Energies=              -898.560836
 Sum of electronic and thermal Enthalpies=            -898.559892
 Sum of electronic and thermal Free Energies=         -898.628390

                     E (Thermal)             CV                S
                      KCal/Mol        Cal/Mol-Kelvin    Cal/Mol-Kelvin
 Total                  232.846             70.880            144.166
 Electronic               0.000              0.000              0.000
 Translational            0.889              2.981             42.735
 Rotational               0.889              2.981             33.991
 Vibrational            231.069             64.918             67.440
 Vibration     1          0.593              1.986              6.599
 Vibration     2          0.594              1.982              5.515
 Vibration     3          0.594              1.981              5.189
 Vibration     4          0.596              1.977              4.733
 Vibration     5          0.596              1.975              4.543
 Vibration     6          0.600              1.961              3.816
 Vibration     7          0.603              1.952              3.528
 Vibration     8          0.609              1.934              3.124
 Vibration     9          0.621              1.893              2.562
 Vibration    10          0.629              1.868              2.340
 Vibration    11          0.641              1.831              2.076
 Vibration    12          0.641              1.829              2.062
 Vibration    13          0.654              1.788              1.846
 Vibration    14          0.663              1.760              1.721
 Vibration    15          0.674              1.727              1.592
 Vibration    16          0.686              1.692              1.472
 Vibration    17          0.693              1.673              1.414
 Vibration    18          0.712              1.618              1.265
 Vibration    19          0.726              1.578              1.173
 Vibration    20          0.772              1.454              0.935
 Vibration    21          0.795              1.396              0.846
 Vibration    22          0.807              1.367              0.804
 Vibration    23          0.859              1.243              0.650
 Vibration    24          0.866              1.225              0.630
 Vibration    25          0.899              1.152              0.556
 Vibration    26          0.938              1.072              0.483
 Vibration    27          0.947              1.054              0.468
 Vibration    28          0.968              1.013              0.435

                           ! Non-Optimized Parameters !
 Normal termination of Gaussian 16 at Sat Dec 12 16:32:13 2020.

 ----------------------------------------------------------------------
 # B3LYP/6-311++G(d,p) empiricaldispersion=gd3bj scf=xqc pop=npa geom=c
 heck
 ----------------------------------------------------------------------

 ----------------------------------------
 CID_115981537_JID_10180_Energie_neutraal
 ----------------------------------------
 Structure from the checkpoint file:  "JID_10180.chk"
 Charge =  0 Multiplicity = 1

 SCF Done:  E(RB3LYP) =  -899.177472170     A.U. after   16 cycles
 Normal termination of Gaussian 16 at Sat Dec 12 16:44:16 2020.

 ----------------------------------------------------------------------
 # B3LYP/6-311++G(d,p) empiricaldispersion=gd3bj scf=xqc pop=npa geom=c
 heck
 ----------------------------------------------------------------------

 --------------------------------------
 CID_115981537_JID_10180_Energie_kation
 --------------------------------------
 Structure from the checkpoint file:  "JID_10180.chk"
 Charge =  1 Multiplicity = 2

 SCF Done:  E(UB3LYP) =  -898.908024580     A.U. after   25 cycles
 Normal termination of Gaussian 16 at Sat Dec 12 17:10:59 2020.
 Gaussian 16:  ES64L-G16RevA.03 25-Dec-2016

 ----------------------------------------------------------------------
 # B3LYP/6-311++G(d,p) empiricaldispersion=gd3bj scf=xqc pop=npa geom=c
 heck
 ----------------------------------------------------------------------

 -------------------------------------
 CID_115981537_JID_10180_Energie_anion
 -------------------------------------
 Structure from the checkpoint file:  "JID_10180.chk"
 Charge = -1 Multiplicity = 2

                         Standard orientation:
 ---------------------------------------------------------------------
 Center     Atomic      Atomic             Coordinates (Angstroms)
 Number     Number       Type             X           Y           Z
 ---------------------------------------------------------------------
      1          6           0        0.211376    1.923070   -2.442422
      2          6           0        1.601435    1.721588   -1.836333
      3          6           0        1.620697    1.146948   -0.406270
      4          6           0        3.053688    0.871312    0.074641
      5          6           0        3.213023    0.828489    1.627366
      6          7           0        3.346848   -0.577227    2.040305
      7          6           0        3.998812   -1.215455    0.892545
      8          6           0        3.355017   -0.594457   -0.366387
      9          6           0        1.968579   -1.205710   -0.681414
     10          7           0        1.006371   -0.180639   -0.298863
     11          6           0       -0.345553   -0.431488   -0.193165
     12          6           0       -1.241715    0.564028    0.245550
     13          6           0       -2.584550    0.250680    0.375641
     14          6           0       -3.111426   -1.008801    0.102003
     15          6           0       -2.234195   -2.003177   -0.333142
     16          6           0       -0.875968   -1.707376   -0.486443
     17          6           0       -2.741311   -3.394320   -0.627366
     18          7           0       -3.498533    1.316831    0.819670
     19          8           0       -3.025409    2.436433    1.021563
     20          8           0       -4.686778    1.030300    0.963481
     21          1           0       -0.327204    0.975715   -2.537537
     22          1           0        0.290359    2.364674   -3.441828
     23          1           0       -0.402391    2.592574   -1.829612
     24          1           0        2.193431    1.063195   -2.486916
     25          1           0        2.134388    2.681663   -1.809115
     26          1           0        1.112500    1.843260    0.268229
     27          1           0        3.751206    1.588503   -0.367128
     28          1           0        2.376850    1.298909    2.152895
     29          1           0        4.126466    1.362953    1.914971
     30          1           0        2.410453   -0.970358    2.133977
     31          1           0        5.069669   -0.974254    0.920236
     32          1           0        3.901341   -2.304558    0.942499
     33          1           0        4.011452   -0.650792   -1.238766
     34          1           0        1.787830   -2.116741   -0.097481
     35          1           0        1.879826   -1.480697   -1.744333
     36          1           0       -0.919781    1.567540    0.477905
     37          1           0       -4.171645   -1.189713    0.218901
     38          1           0       -0.219242   -2.485957   -0.857721
     39          1           0       -2.195934   -3.851123   -1.459834
     40          1           0       -2.616748   -4.049646    0.244244
     41          1           0       -3.805583   -3.383758   -0.880555
 ---------------------------------------------------------------------

 SCF Done:  E(UB3LYP) =  -899.207145101     A.U. after   28 cycles

 The electronic state is 2-A.
 Alpha  occ. eigenvalues --  -18.93100 -18.93031 -14.30553 -14.21850 -14.21717
 Alpha  occ. eigenvalues --  -10.11664 -10.11299 -10.11104 -10.11054 -10.09727
 Alpha  occ. eigenvalues --  -10.09320 -10.08544 -10.07934 -10.06063 -10.05646
 Alpha  occ. eigenvalues --  -10.05099 -10.04868 -10.02778 -10.01981 -10.01926
 Alpha  occ. eigenvalues --   -1.01099  -0.86274  -0.83952  -0.83285  -0.73113
 Alpha  occ. eigenvalues --   -0.69974  -0.68895  -0.65388  -0.64980  -0.61951
 Alpha  occ. eigenvalues --   -0.60209  -0.56891  -0.55036  -0.52817  -0.51526
 Alpha  occ. eigenvalues --   -0.49908  -0.47979  -0.45700  -0.42357  -0.41952
 Alpha  occ. eigenvalues --   -0.41140  -0.39518  -0.36916  -0.36280  -0.35214
 Alpha  occ. eigenvalues --   -0.34984  -0.33665  -0.33619  -0.33402  -0.32862
 Alpha  occ. eigenvalues --   -0.31714  -0.30854  -0.30662  -0.29959  -0.29311
 Alpha  occ. eigenvalues --   -0.28676  -0.28171  -0.27152  -0.26745  -0.26623
 Alpha  occ. eigenvalues --   -0.25498  -0.24931  -0.24065  -0.23552  -0.23315
 Alpha  occ. eigenvalues --   -0.22803  -0.21546  -0.17095  -0.15288  -0.12571
 Alpha  occ. eigenvalues --   -0.11647  -0.11048  -0.08897  -0.07637   0.03558
 Alpha virt. eigenvalues --    0.05423   0.07167   0.07305   0.08051   0.08740
 Alpha virt. eigenvalues --    0.09378   0.09669   0.10128   0.10811   0.11344
 Alpha virt. eigenvalues --    0.11700   0.12021   0.12384   0.13082   0.13414

  Beta  occ. eigenvalues --  -18.92630 -18.92498 -14.29892 -14.21849 -14.21720
  Beta  occ. eigenvalues --  -10.11664 -10.11300 -10.11101 -10.11053 -10.09727
  Beta  occ. eigenvalues --  -10.09320 -10.08601 -10.07935 -10.06060 -10.05645
  Beta  occ. eigenvalues --  -10.04989 -10.04899 -10.02570 -10.01893 -10.01737
  Beta  occ. eigenvalues --   -0.99994  -0.86277  -0.83287  -0.82998  -0.72947
  Beta  occ. eigenvalues --   -0.69903  -0.68878  -0.65382  -0.64687  -0.61666
  Beta  occ. eigenvalues --   -0.60194  -0.56732  -0.54889  -0.52207  -0.51222
  Beta  occ. eigenvalues --   -0.49863  -0.47899  -0.45649  -0.42161  -0.41949
  Beta  occ. eigenvalues --   -0.41133  -0.39037  -0.36843  -0.36137  -0.35164
  Beta  occ. eigenvalues --   -0.34951  -0.33476  -0.33218  -0.32700  -0.31647
  Beta  occ. eigenvalues --   -0.30933  -0.30659  -0.30137  -0.29527  -0.29160
  Beta  occ. eigenvalues --   -0.28647  -0.28120  -0.27142  -0.26712  -0.26591
  Beta  occ. eigenvalues --   -0.25429  -0.24898  -0.24057  -0.23497  -0.22956
  Beta  occ. eigenvalues --   -0.22612  -0.21404  -0.16812  -0.15172  -0.10560
  Beta  occ. eigenvalues --   -0.10496  -0.09038  -0.08394  -0.06874
  Beta virt. eigenvalues --    0.05408   0.07135   0.07276   0.08021   0.08694
  Beta virt. eigenvalues --    0.09328   0.09558   0.10031   0.10476   0.10836
  Beta virt. eigenvalues --    0.11542   0.11702   0.12013   0.12355   0.13082

 Mulliken charges and spin densities:
               1          2
     1  C   -0.709283  -0.013809
     2  C   -0.205668  -0.006568
     3  C   -0.464564   0.017262
     4  C    0.221401  -0.003627
     5  C   -0.545780  -0.011916
     6  N   -0.110448   0.001188
     7  C   -0.684002  -0.002537
     8  C    0.135219  -0.002394
     9  C   -0.423541   0.006235
    10  N    0.453448   0.010437
    11  C   -0.318672  -0.064788
    12  C   -0.356285   0.125786
    13  C   -0.058426   0.041952
    14  C   -0.668520   0.085879
    15  C    0.567623   0.001919
    16  C   -0.043895   0.191256
    17  C   -0.498761   0.007423
    18  N   -0.260812   0.213427
    19  O   -0.210307   0.187702
    20  O   -0.174414   0.204573
    21  H    0.179329  -0.004506
    22  H    0.121464   0.007986
    23  H    0.145592   0.018753
    24  H    0.135563   0.000325
    25  H    0.114160  -0.001714
    26  H    0.150410  -0.006856
    27  H    0.235435  -0.000735
    28  H    0.174268   0.010388
    29  H    0.139782   0.000454
    30  H    0.262948   0.000005
    31  H    0.142245   0.000845
    32  H    0.133449   0.001251
    33  H    0.208213  -0.001004
    34  H    0.170210   0.000475
    35  H    0.141998  -0.001936
    36  H    0.209392   0.004818
    37  H    0.191259  -0.007165
    38  H    0.096538  -0.016007
    39  H    0.117531   0.004004
    40  H    0.141905   0.001520
    41  H    0.144000  -0.000298
 Sum of Mulliken charges =  -1.00000   1.00000

 Dipole moment (field-independent basis, Debye):
    X=             14.2567    Y=             -4.3831    Z=             -4.5946  Tot=             15.6069
 Quadrupole moment (field-independent basis, Debye-Ang):
   XX=           -194.8479   YY=           -143.4950   ZZ=           -139.4308
   XY=             22.5554   XZ=              6.7097   YZ=             -5.4335

 Summary of Natural Population Analysis:

                                       Natural Population
                Natural  -----------------------------------------------
    Atom  No    Charge         Core      Valence    Rydberg      Total
 -----------------------------------------------------------------------
      C    1   -0.28910      0.99967     2.28450    0.00493     3.28910
      C    2   -0.19224      0.99962     2.18588    0.00674     3.19224
      C    3    0.00410      0.99957     1.98468    0.01165     2.99590
      C    4   -0.11427      0.99958     2.10490    0.00979     3.11427
      C    5   -0.09118      0.99964     2.07985    0.01169     3.09118
      N    6   -0.33615      0.99977     2.82476    0.01162     3.83615
      C    7   -0.08869      0.99963     2.07781    0.01124     3.08869
      C    8   -0.12019      0.99960     2.11189    0.00871     3.12019
      C    9   -0.08325      0.99963     2.07361    0.01001     3.08325
      N   10   -0.26876      0.99964     2.75532    0.01380     3.76876
      C   11    0.08216      0.99951     1.90832    0.01001     2.91784
      C   12   -0.09233      0.99949     2.08447    0.00838     3.09233
      C   13    0.07254      0.99940     1.91286    0.01520     2.92746
      C   14   -0.10276      0.99947     2.09376    0.00952     3.10276
      C   15   -0.02512      0.99953     2.01741    0.00818     3.02512
      C   16   -0.10137      0.99949     2.09416    0.00772     3.10137
      C   17   -0.28749      0.99964     2.28312    0.00472     3.28749
      N   18    0.31022      0.99972     2.16379    0.02626     3.18978
      O   19   -0.20240      0.99990     3.19473    0.00778     4.20240
      O   20   -0.18952      0.99990     3.18190    0.00772     4.18952
      H   21    0.10796      0.00000     0.39113    0.00091     0.39204
      H   22    0.09190      0.00000     0.40715    0.00096     0.40810
      H   23    0.10562      0.00000     0.39326    0.00113     0.39438
      H   24    0.08967      0.00000     0.40917    0.00116     0.41033
      H   25    0.09036      0.00000     0.40826    0.00138     0.40964
      H   26    0.10279      0.00000     0.39595    0.00126     0.39721
      H   27    0.09988      0.00000     0.39917    0.00095     0.40012
      H   28    0.10130      0.00000     0.39771    0.00099     0.39870
      H   29    0.08669      0.00000     0.41203    0.00128     0.41331
      H   30    0.17618      0.00000     0.32186    0.00196     0.32382
      H   31    0.08653      0.00000     0.41215    0.00133     0.41347
      H   32    0.09467      0.00000     0.40425    0.00108     0.40533
      H   33    0.09994      0.00000     0.39900    0.00106     0.40006
      H   34    0.09446      0.00000     0.40369    0.00185     0.40554
      H   35    0.08658      0.00000     0.41161    0.00181     0.41342
      H   36    0.11195      0.00000     0.38637    0.00168     0.38805
      H   37    0.11174      0.00000     0.38711    0.00116     0.38826
      H   38    0.08821      0.00000     0.41042    0.00137     0.41179
      H   39    0.09411      0.00000     0.40483    0.00106     0.40589
      H   40    0.09650      0.00000     0.40239    0.00110     0.40350
      H   41    0.09877      0.00000     0.40029    0.00094     0.40123
 =======================================================================
   * Total *    0.00000     19.99239    53.77552    0.23209    74.00000

 Normal termination of Gaussian 16 at Sat Dec 12 17:41:06 2020.
