 Gaussian 16, Revision A.03,

 -----------------------------------------------------------
 # opt freq B3LYP/6-31G(d) empiricaldispersion=gd3bj scf=xqc
 -----------------------------------------------------------

 ------------------------------
 CID_71338468_JID_5738_neutraal
 ------------------------------
 Symbolic Z-matrix:
 Charge =  0 Multiplicity = 1

 SCF Done:  E(RB3LYP) =  -709.642513014     A.U. after   14 cycles
 SCF Done:  E(RB3LYP) =  -709.647434000     A.U. after   12 cycles
 SCF Done:  E(RB3LYP) =  -709.648288426     A.U. after   12 cycles
 SCF Done:  E(RB3LYP) =  -709.649033125     A.U. after   11 cycles
 SCF Done:  E(RB3LYP) =  -709.650026646     A.U. after   12 cycles
 SCF Done:  E(RB3LYP) =  -709.507079106     A.U. after   16 cycles
 SCF Done:  E(RB3LYP) =  -709.641694270     A.U. after   13 cycles
 SCF Done:  E(RB3LYP) =  -709.650253148     A.U. after   11 cycles
 SCF Done:  E(RB3LYP) =  -709.647079939     A.U. after   14 cycles
 SCF Done:  E(RB3LYP) =  -709.650213755     A.U. after   12 cycles
 SCF Done:  E(RB3LYP) =  -709.658414483     A.U. after    9 cycles
 SCF Done:  E(RB3LYP) =  -709.658415145     A.U. after    8 cycles
 SCF Done:  E(RB3LYP) =  -709.658415450     A.U. after    8 cycles
 SCF Done:  E(RB3LYP) =  -709.658415535     A.U. after    7 cycles
 SCF Done:  E(RB3LYP) =  -709.658415562     A.U. after    6 cycles
 SCF Done:  E(RB3LYP) =  -709.658415582     A.U. after    7 cycles
 Optimization completed.
    -- Stationary point found.
 Normal termination of Gaussian 16 at Thu Dec 10 17:19:56 2020.

 --------------------------------------------------------------------
 #N Geom=AllCheck Guess=TCheck SCRF=Check GenChk RB3LYP/6-31G(d) Freq
 --------------------------------------------------------------------

 Structure from the checkpoint file:  "JID_5738.chk"
 ------------------------------
 CID_71338468_JID_5738_neutraal
 ------------------------------
 Charge =  0 Multiplicity = 1

 SCF Done:  E(RB3LYP) =  -709.658415582     A.U. after    1 cycles

  Exact polarizability: 170.157   3.925 122.410   8.767  -0.156 111.625
 Approx polarizability: 198.822   1.060 178.948  15.043  -5.267 168.211

                      1                      2                      3
                      A                      A                      A
 Frequencies --     22.3413                23.7040                43.4057
 Red. masses --      4.6849                 3.5757                 3.3127
 Frc consts  --      0.0014                 0.0012                 0.0037
 IR Inten    --      0.5617                 0.5049                 0.9796

                      4                      5                      6
                      A                      A                      A
 Frequencies --     51.4951                62.4609               100.9083
 Red. masses --      5.2775                 3.5432                 3.0619
 Frc consts  --      0.0082                 0.0081                 0.0184
 IR Inten    --      0.3101                 1.5122                 0.5195

                      7                      8                      9
                      A                      A                      A
 Frequencies --    136.8995               146.7891               156.2097
 Red. masses --      4.3254                 5.7343                 3.1455
 Frc consts  --      0.0478                 0.0728                 0.0452
 IR Inten    --      0.3845                 1.6211                 3.5659

                     10                     11                     12
                      A                      A                      A
 Frequencies --    189.0489               211.1652               235.5381
 Red. masses --      3.3221                 1.6357                 1.7233
 Frc consts  --      0.0700                 0.0430                 0.0563
 IR Inten    --      0.9588                 3.1325                 0.3539

                     13                     14                     15
                      A                      A                      A
 Frequencies --    251.9582               254.2380               257.7224
 Red. masses --      1.6287                 2.0057                 2.2367
 Frc consts  --      0.0609                 0.0764                 0.0875
 IR Inten    --      3.0214                 6.3268                10.2530

                     16                     17                     18
                      A                      A                      A
 Frequencies --    279.1918               294.9787               332.8233
 Red. masses --      1.4690                 2.8068                 2.5640
 Frc consts  --      0.0675                 0.1439                 0.1673
 IR Inten    --      4.6065                 2.8006                 6.0795

                     19                     20                     21
                      A                      A                      A
 Frequencies --    358.5289               400.1523               434.7219
 Red. masses --      2.3995                 2.1544                 1.9015
 Frc consts  --      0.1817                 0.2033                 0.2117
 IR Inten    --      5.3619                 0.4895                 0.1891

                     22                     23                     24
                      A                      A                      A
 Frequencies --    446.3419               505.1157               535.8666
 Red. masses --      2.4971                 1.6024                 3.1093
 Frc consts  --      0.2931                 0.2409                 0.5261
 IR Inten    --      2.3809                34.0920                 5.3444

                     25                     26                     27
                      A                      A                      A
 Frequencies --    550.8593               575.2896               623.1082
 Red. masses --      2.6372                 2.7348                 1.0938
 Frc consts  --      0.4715                 0.5333                 0.2502
 IR Inten    --     11.2545                 6.4407               148.0428

                     28                     29                     30
                      A                      A                      A
 Frequencies --    641.0922               658.1160               750.6201
 Red. masses --      1.5267                 3.3354                 2.0802
 Frc consts  --      0.3697                 0.8511                 0.6905
 IR Inten    --    110.6291                12.6856                 1.3584

                     31                     32                     33
                      A                      A                      A
 Frequencies --    789.2955               813.5198               834.8137
 Red. masses --      2.9913                 1.9794                 1.7270
 Frc consts  --      1.0980                 0.7718                 0.7091
 IR Inten    --      3.9731                21.0236                 3.5484

                     34                     35                     36
                      A                      A                      A
 Frequencies --    842.2907               874.7117               907.1547
 Red. masses --      1.9032                 2.9029                 2.1589
 Frc consts  --      0.7955                 1.3086                 1.0468
 IR Inten    --      6.8770                 8.5324                 9.4472

                     37                     38                     39
                      A                      A                      A
 Frequencies --    929.2613               988.2234              1015.0323
 Red. masses --      1.7488                 1.7500                 1.7952
 Frc consts  --      0.8897                 1.0070                 1.0897
 IR Inten    --     26.9563                 5.1045                 6.0497

                     40                     41                     42
                      A                      A                      A
 Frequencies --   1035.1237              1056.7754              1091.1220
 Red. masses --      1.8511                 1.9178                 2.2007
 Frc consts  --      1.1686                 1.2619                 1.5437
 IR Inten    --     11.5461                 5.9344                36.4586

                     43                     44                     45
                      A                      A                      A
 Frequencies --   1091.4139              1097.4753              1101.4345
 Red. masses --      2.0182                 2.6516                 2.1363
 Frc consts  --      1.4164                 1.8817                 1.5270
 IR Inten    --     42.4921                10.3296                33.2593

                     46                     47                     48
                      A                      A                      A
 Frequencies --   1111.9984              1135.7287              1136.6686
 Red. masses --      1.9713                 1.5971                 1.5258
 Frc consts  --      1.4362                 1.2137                 1.1615
 IR Inten    --      0.6278                11.2907                14.9453

                     49                     50                     51
                      A                      A                      A
 Frequencies --   1150.0849              1167.3357              1189.6337
 Red. masses --      2.2516                 3.0702                 1.4247
 Frc consts  --      1.7547                 2.4650                 1.1879
 IR Inten    --     12.0768                34.5687                 6.1941

                     52                     53                     54
                      A                      A                      A
 Frequencies --   1217.7998              1236.5926              1238.6328
 Red. masses --      1.9108                 1.1358                 1.2175
 Frc consts  --      1.6697                 1.0233                 1.1006
 IR Inten    --     13.1202                10.7042                23.1182

                     55                     56                     57
                      A                      A                      A
 Frequencies --   1256.0695              1261.8440              1319.8105
 Red. masses --      1.2850                 1.2482                 1.3899
 Frc consts  --      1.1945                 1.1710                 1.4264
 IR Inten    --     22.7673                 6.1574                45.0964

                     58                     59                     60
                      A                      A                      A
 Frequencies --   1326.4892              1342.4242              1343.8354
 Red. masses --      1.6106                 1.3294                 2.2737
 Frc consts  --      1.6697                 1.4116                 2.4192
 IR Inten    --     83.8445                16.9042                13.5479

                     61                     62                     63
                      A                      A                      A
 Frequencies --   1379.6380              1392.2111              1399.5673
 Red. masses --      1.4543                 1.3398                 1.3055
 Frc consts  --      1.6310                 1.5300                 1.5067
 IR Inten    --      2.1098                 5.6033                 7.6668

                     64                     65                     66
                      A                      A                      A
 Frequencies --   1413.2968              1419.0277              1426.5459
 Red. masses --      1.3259                 1.3851                 1.3167
 Frc consts  --      1.5604                 1.6433                 1.5787
 IR Inten    --      9.8725                20.0044                32.2456

                     67                     68                     69
                      A                      A                      A
 Frequencies --   1431.3249              1443.8647              1454.9481
 Red. masses --      1.2925                 1.9313                 1.1801
 Frc consts  --      1.5602                 2.3722                 1.4719
 IR Inten    --     12.6518                83.1893                35.1776

                     70                     71                     72
                      A                      A                      A
 Frequencies --   1471.5802              1480.2933              1490.3259
 Red. masses --      1.1493                 1.1770                 1.1148
 Frc consts  --      1.4664                 1.5195                 1.4589
 IR Inten    --      0.8284                13.2201                 0.8222

                     73                     74                     75
                      A                      A                      A
 Frequencies --   1496.6757              1502.8954              1503.8877
 Red. masses --      1.6967                 1.0879                 1.0521
 Frc consts  --      2.2393                 1.4477                 1.4019
 IR Inten    --     83.1594                 4.9692                10.0278

                     76                     77                     78
                      A                      A                      A
 Frequencies --   1509.2487              1514.5073              1524.7577
 Red. masses --      1.1075                 1.1770                 1.1156
 Frc consts  --      1.4863                 1.5906                 1.5281
 IR Inten    --     19.7736                 0.1421                 7.9398

                     79                     80                     81
                      A                      A                      A
 Frequencies --   1530.6129              1537.0630              1541.0321
 Red. masses --      1.1030                 1.0669                 1.1890
 Frc consts  --      1.5225                 1.4851                 1.6636
 IR Inten    --     16.2532                24.4479                 7.0919

                     82                     83                     84
                      A                      A                      A
 Frequencies --   1546.5112              1549.3558              1560.3320
 Red. masses --      1.0709                 1.0837                 1.0656
 Frc consts  --      1.5091                 1.5328                 1.5285
 IR Inten    --      5.5279                14.2239                 5.9449

                     85                     86                     87
                      A                      A                      A
 Frequencies --   1753.4521              2930.9666              2942.6422
 Red. masses --      7.1546                 1.0619                 1.0637
 Frc consts  --     12.9605                 5.3746                 5.4269
 IR Inten    --    497.4438                53.1811               178.3123

                     88                     89                     90
                      A                      A                      A
 Frequencies --   2989.3336              3007.8844              3015.2156
 Red. masses --      1.0701                 1.0680                 1.0735
 Frc consts  --      5.6341                 5.6932                 5.7501
 IR Inten    --      3.2739                87.6862                26.4143

                     91                     92                     93
                      A                      A                      A
 Frequencies --   3024.4332              3037.0720              3038.8684
 Red. masses --      1.0682                 1.0693                 1.0626
 Frc consts  --      5.7567                 5.8111                 5.7815
 IR Inten    --     30.2169                76.1694                38.2305

                     94                     95                     96
                      A                      A                      A
 Frequencies --   3046.0325              3059.9791              3060.7368
 Red. masses --      1.0664                 1.0854                 1.0733
 Frc consts  --      5.8294                 5.9881                 5.9238
 IR Inten    --     22.1503                43.5931                40.0123

                     97                     98                     99
                      A                      A                      A
 Frequencies --   3065.5728              3077.7656              3078.9537
 Red. masses --      1.0682                 1.0945                 1.0948
 Frc consts  --      5.9147                 6.1087                 6.1148
 IR Inten    --     60.2983                60.7021                 1.8247

                    100                    101                    102
                      A                      A                      A
 Frequencies --   3089.0384              3091.4340              3095.9337
 Red. masses --      1.1012                 1.1036                 1.0962
 Frc consts  --      6.1908                 6.2141                 6.1903
 IR Inten    --      8.4148                76.0158                45.5056

                    103                    104                    105
                      A                      A                      A
 Frequencies --   3112.2602              3130.4554              3134.9630
 Red. masses --      1.1037                 1.0985                 1.0890
 Frc consts  --      6.2990                 6.3426                 6.3058
 IR Inten    --     29.5015                21.9426                26.4618

                    106                    107                    108
                      A                      A                      A
 Frequencies --   3494.8594              3581.0602              3642.7398
 Red. masses --      1.0724                 1.0757                 1.0669
 Frc consts  --      7.7177                 8.1273                 8.3415
 IR Inten    --      1.6159                21.5704               382.2154

 - Thermochemistry -
 -------------------
 Temperature   298.150 Kelvin.  Pressure   1.00000 Atm.
 Atom     1 has atomic number  6 and mass  12.00000

 Molecular mass:   217.17903 amu.
 Principal axes and moments of inertia in atomic units:
                           1         2         3
     Eigenvalues --  1360.837398420.772168622.51783
           X            0.99999   0.00405   0.00241
           Y           -0.00422   0.99710   0.07599
           Z           -0.00209  -0.07600   0.99711
 This molecule is an asymmetric top.
 Rotational symmetry number  1.
 Warning -- assumption of classical behavior for rotation
           may cause significant error
 Rotational temperatures (Kelvin)      0.06365     0.01029     0.01005
 Rotational constants (GHZ):           1.32620     0.21432     0.20931
 Zero-point vibrational energy     905898.7 (Joules/Mol)
                                  216.51500 (Kcal/Mol)
 Warning -- explicit consideration of  26 degrees of freedom as
           vibrations may cause significant error
 Vibrational temperatures:     32.14    34.10    62.45    74.09    89.87
          (Kelvin)            145.18   196.97   211.20   224.75   272.00
                              303.82   338.89   362.51   365.79   370.80
                              401.69   424.41   478.86   515.84   575.73
                              625.47   642.19   726.75   770.99   792.56
                              827.71   896.51   922.39   946.88  1079.97
                             1135.62  1170.47  1201.11  1211.87  1258.52
                             1305.19  1337.00  1421.83  1460.41  1489.31
                             1520.46  1569.88  1570.30  1579.02  1584.72
                             1599.92  1634.06  1635.41  1654.72  1679.54
                             1711.62  1752.14  1779.18  1782.12  1807.20
                             1815.51  1898.91  1908.52  1931.45  1933.48
                             1984.99  2003.08  2013.67  2033.42  2041.66
                             2052.48  2059.36  2077.40  2093.35  2117.28
                             2129.81  2144.25  2153.38  2162.33  2163.76
                             2171.47  2179.04  2193.79  2202.21  2211.49
                             2217.20  2225.08  2229.18  2244.97  2522.83
                             4217.01  4233.81  4300.98  4327.67  4338.22
                             4351.48  4369.67  4372.25  4382.56  4402.63
                             4403.72  4410.68  4428.22  4429.93  4444.44
                             4447.88  4454.36  4477.85  4504.03  4510.51
                             5028.32  5152.35  5241.09

 Zero-point correction=                           0.345039 (Hartree/Particle)
 Thermal correction to Energy=                    0.362704
 Thermal correction to Enthalpy=                  0.363649
 Thermal correction to Gibbs Free Energy=         0.297587
 Sum of electronic and zero-point Energies=           -709.313377
 Sum of electronic and thermal Energies=              -709.295711
 Sum of electronic and thermal Enthalpies=            -709.294767
 Sum of electronic and thermal Free Energies=         -709.360828

                     E (Thermal)             CV                S
                      KCal/Mol        Cal/Mol-Kelvin    Cal/Mol-Kelvin
 Total                  227.600             64.641            139.038
 Electronic               0.000              0.000              0.000
 Translational            0.889              2.981             42.030
 Rotational               0.889              2.981             32.957
 Vibrational            225.823             58.680             64.050
 Vibration     1          0.593              1.985              6.414
 Vibration     2          0.593              1.985              6.297
 Vibration     3          0.595              1.980              5.097
 Vibration     4          0.596              1.977              4.759
 Vibration     5          0.597              1.972              4.378
 Vibration     6          0.604              1.948              3.437
 Vibration     7          0.614              1.916              2.847
 Vibration     8          0.617              1.906              2.713
 Vibration     9          0.620              1.896              2.595
 Vibration    10          0.633              1.855              2.237
 Vibration    11          0.643              1.824              2.034
 Vibration    12          0.655              1.786              1.836
 Vibration    13          0.664              1.759              1.717
 Vibration    14          0.665              1.756              1.701
 Vibration    15          0.667              1.750              1.677
 Vibration    16          0.680              1.712              1.539
 Vibration    17          0.689              1.683              1.445
 Vibration    18          0.715              1.610              1.246
 Vibration    19          0.733              1.558              1.128
 Vibration    20          0.766              1.470              0.962
 Vibration    21          0.795              1.395              0.843
 Vibration    22          0.806              1.369              0.807
 Vibration    23          0.860              1.239              0.645
 Vibration    24          0.891              1.171              0.574
 Vibration    25          0.906              1.138              0.542
 Vibration    26          0.932              1.085              0.494

 Optimization completed.
    -- Stationary point found.
 Normal termination of Gaussian 16 at Thu Dec 10 17:31:59 2020.

 ----------------------------------------------------------------------
 # B3LYP/6-311++G(d,p) empiricaldispersion=gd3bj scf=xqc pop=npa geom=c
 heck
 ----------------------------------------------------------------------

 --------------------------------------
 CID_71338468_JID_5738_Energie_neutraal
 --------------------------------------
 Structure from the checkpoint file:  "JID_5738.chk"
 Charge =  0 Multiplicity = 1

 SCF Done:  E(RB3LYP) =  -709.880484404     A.U. after   13 cycles
 Normal termination of Gaussian 16 at Thu Dec 10 17:39:13 2020.

 ----------------------------------------------------------------------
 # B3LYP/6-311++G(d,p) empiricaldispersion=gd3bj scf=xqc pop=npa geom=c
 heck
 ----------------------------------------------------------------------

 ------------------------------------
 CID_71338468_JID_5738_Energie_kation
 ------------------------------------
 Structure from the checkpoint file:  "JID_5738.chk"
 Charge =  1 Multiplicity = 2

 SCF Done:  E(UB3LYP) =  -709.602711829     A.U. after   29 cycles
 Normal termination of Gaussian 16 at Thu Dec 10 17:56:33 2020.
 Gaussian 16:  ES64L-G16RevA.03 25-Dec-2016

 ----------------------------------------------------------------------
 # B3LYP/6-311++G(d,p) empiricaldispersion=gd3bj scf=xqc pop=npa geom=c
 heck
 ----------------------------------------------------------------------

 -----------------------------------
 CID_71338468_JID_5738_Energie_anion
 -----------------------------------
 Structure from the checkpoint file:  "JID_5738.chk"
 Charge = -1 Multiplicity = 2

                         Standard orientation:
 ---------------------------------------------------------------------
 Center     Atomic      Atomic             Coordinates (Angstroms)
 Number     Number       Type             X           Y           Z
 ---------------------------------------------------------------------
      1          6           0       -2.742332    1.327489    1.205408
      2          7           0       -3.893153    0.518457    0.853353
      3          6           0       -4.805744    1.183438   -0.053307
      4          6           0       -3.657833   -0.888885    0.566055
      5          6           0       -3.157788   -1.282573   -0.840707
      6          6           0       -1.787384   -0.733496   -1.243753
      7          7           0       -0.763275   -1.130597   -0.285482
      8          6           0        0.448367   -0.552800   -0.066628
      9          8           0        1.250227   -1.071983    0.715481
     10          6           0        0.739770    0.746794   -0.810998
     11          6           0        2.128016    1.289538   -0.491882
     12          7           0        3.156891    0.461782   -1.120311
     13          6           0        4.495270    0.648668   -0.554860
     14          6           0        4.628319    0.198129    0.911524
     15          8           0        4.144119   -1.121099    1.096408
     16          1           0       -3.079092    2.219632    1.748160
     17          1           0       -2.147495    1.682604    0.342312
     18          1           0       -2.076274    0.760320    1.861698
     19          1           0       -4.377650    1.399402   -1.052031
     20          1           0       -5.700548    0.567164   -0.196770
     21          1           0       -5.119804    2.139895    0.380594
     22          1           0       -2.959059   -1.264166    1.322019
     23          1           0       -4.605775   -1.421250    0.727316
     24          1           0       -3.134380   -2.381049   -0.894048
     25          1           0       -3.882960   -0.961641   -1.597756
     26          1           0       -1.533663   -1.089217   -2.253403
     27          1           0       -1.823696    0.356426   -1.289407
     28          1           0       -0.872083   -2.026502    0.176310
     29          1           0        0.647528    0.575383   -1.891386
     30          1           0       -0.026760    1.484162   -0.541507
     31          1           0        2.216494    2.309872   -0.886252
     32          1           0        2.218276    1.360532    0.603929
     33          1           0        2.919363   -0.516018   -0.960756
     34          1           0        5.190390    0.061280   -1.166269
     35          1           0        4.782420    1.704633   -0.654287
     36          1           0        5.687156    0.195387    1.195932
     37          1           0        4.118961    0.905922    1.584475
     38          1           0        3.168685   -1.083425    1.087991
 ---------------------------------------------------------------------

 SCF Done:  E(UB3LYP) =  -709.873376650     A.U. after   30 cycles

 The electronic state is 2-A.
 Alpha  occ. eigenvalues --  -19.02336 -19.01099 -14.25148 -14.20992 -14.20590
 Alpha  occ. eigenvalues --  -10.19380 -10.12827 -10.11702 -10.10868 -10.10819
 Alpha  occ. eigenvalues --  -10.09795 -10.09508 -10.09049 -10.08598 -10.07636
 Alpha  occ. eigenvalues --   -0.96004  -0.92767  -0.84179  -0.82385  -0.82070
 Alpha  occ. eigenvalues --   -0.69350  -0.68149  -0.63274  -0.61396  -0.60868
 Alpha  occ. eigenvalues --   -0.56557  -0.53909  -0.51850  -0.48604  -0.47629
 Alpha  occ. eigenvalues --   -0.42984  -0.41786  -0.40419  -0.39916  -0.39367
 Alpha  occ. eigenvalues --   -0.38666  -0.38061  -0.36491  -0.35866  -0.34460
 Alpha  occ. eigenvalues --   -0.34091  -0.32921  -0.31637  -0.31478  -0.30594
 Alpha  occ. eigenvalues --   -0.29551  -0.28781  -0.28112  -0.27721  -0.27291
 Alpha  occ. eigenvalues --   -0.26905  -0.26803  -0.25348  -0.25074  -0.23855
 Alpha  occ. eigenvalues --   -0.19317  -0.18544  -0.17386  -0.14181  -0.11122
 Alpha  occ. eigenvalues --    0.03936
 Alpha virt. eigenvalues --    0.06134   0.06769   0.07291   0.07570   0.08361
 Alpha virt. eigenvalues --    0.08536   0.09149   0.09597   0.09881   0.10157
 Alpha virt. eigenvalues --    0.10282   0.10546   0.11895   0.12054   0.12678

  Beta  occ. eigenvalues --  -19.02335 -19.01093 -14.25138 -14.20989 -14.20590
  Beta  occ. eigenvalues --  -10.19373 -10.12825 -10.11672 -10.10858 -10.10817
  Beta  occ. eigenvalues --  -10.09777 -10.09485 -10.09015 -10.08550 -10.07599
  Beta  occ. eigenvalues --   -0.95988  -0.92765  -0.84154  -0.82370  -0.82061
  Beta  occ. eigenvalues --   -0.69316  -0.68105  -0.63258  -0.61342  -0.60802
  Beta  occ. eigenvalues --   -0.56524  -0.53826  -0.51838  -0.48560  -0.47550
  Beta  occ. eigenvalues --   -0.42973  -0.41758  -0.40389  -0.39869  -0.39342
  Beta  occ. eigenvalues --   -0.38627  -0.38026  -0.36447  -0.35846  -0.34434
  Beta  occ. eigenvalues --   -0.34067  -0.32895  -0.31590  -0.31457  -0.30579
  Beta  occ. eigenvalues --   -0.29506  -0.28747  -0.28076  -0.27676  -0.27254
  Beta  occ. eigenvalues --   -0.26878  -0.26764  -0.25308  -0.25015  -0.23851
  Beta  occ. eigenvalues --   -0.19314  -0.18530  -0.17364  -0.14172  -0.11099
  Beta virt. eigenvalues --    0.06105   0.06629   0.07410   0.07873   0.08079
  Beta virt. eigenvalues --    0.08592   0.08779   0.09224   0.10015   0.10295
  Beta virt. eigenvalues --    0.10350   0.10680   0.10984   0.12102   0.12298

 Mulliken charges and spin densities:
               1          2
     1  C    0.190401  -0.629433
     2  N   -0.127438   0.225638
     3  C    0.991877  -1.382198
     4  C   -0.114397  -0.343766
     5  C    0.361945  -0.746726
     6  C    0.766068  -0.834593
     7  N   -0.287125   0.107602
     8  C   -0.128052   0.112699
     9  O   -0.383021   0.012609
    10  C    0.711240  -0.522261
    11  C   -0.934714  -0.052607
    12  N   -0.059135   0.021847
    13  C   -0.273819   0.096451
    14  C   -0.183317  -0.150542
    15  O   -0.348181   0.003721
    16  H   -0.155671   0.305302
    17  H   -0.238218   0.344348
    18  H    0.043267   0.101285
    19  H   -0.307971   0.435912
    20  H   -0.384811   0.530902
    21  H   -0.107586   0.240129
    22  H    0.009170   0.120373
    23  H   -0.206601   0.392830
    24  H   -0.481901   0.650587
    25  H   -0.219159   0.399112
    26  H   -0.503277   0.713920
    27  H    0.004531   0.125089
    28  H    0.217971   0.093856
    29  H    0.034036   0.195889
    30  H    0.119783  -0.008616
    31  H   -0.184574   0.373061
    32  H    0.183814  -0.054211
    33  H    0.239628  -0.008793
    34  H    0.143585   0.027395
    35  H    0.080895   0.009042
    36  H    0.141863   0.000467
    37  H    0.067851   0.064494
    38  H    0.321043   0.029187
 Sum of Mulliken charges =  -1.00000   1.00000

 Dipole moment (field-independent basis, Debye):
    X=              7.6360    Y=              1.1194    Z=              2.3382  Tot=              8.0641
 Quadrupole moment (field-independent basis, Debye-Ang):
   XX=           -194.0333   YY=           -138.4526   ZZ=           -136.6928
   XY=              8.5775   XZ=             -8.8030   YZ=              0.8156

 Summary of Natural Population Analysis:

                                       Natural Population
                Natural  -----------------------------------------------
    Atom  No    Charge         Core      Valence    Rydberg      Total
 -----------------------------------------------------------------------
      C    1   -0.17186      0.99964     2.16403    0.00820     3.17186
      N    2   -0.28268      0.99974     2.76913    0.01381     3.78268
      C    3   -0.17742      0.99964     2.16878    0.00900     3.17742
      C    4   -0.08043      0.99960     2.06785    0.01298     3.08043
      C    5   -0.20483      0.99962     2.19546    0.00975     3.20483
      C    6   -0.09133      0.99960     2.08073    0.01099     3.09133
      N    7   -0.31045      0.99966     2.80092    0.00987     3.81045
      C    8    0.35405      0.99967     1.62550    0.02078     2.64595
      O    9   -0.35273      0.99986     3.34676    0.00612     4.35273
      C   10   -0.24290      0.99958     2.23540    0.00792     3.24290
      C   11   -0.09158      0.99963     2.07808    0.01387     3.09158
      N   12   -0.34254      0.99975     2.83100    0.01178     3.84254
      C   13   -0.09926      0.99964     2.08918    0.01045     3.09926
      C   14   -0.02119      0.99961     2.00948    0.01210     3.02119
      O   15   -0.38490      0.99990     3.37730    0.00770     4.38490
      H   16    0.09341      0.00000     0.40549    0.00110     0.40659
      H   17    0.07633      0.00000     0.42195    0.00172     0.42367
      H   18    0.09592      0.00000     0.40288    0.00120     0.40408
      H   19    0.08229      0.00000     0.41575    0.00197     0.41771
      H   20    0.09690      0.00000     0.40175    0.00135     0.40310
      H   21    0.09478      0.00000     0.40396    0.00126     0.40522
      H   22    0.09265      0.00000     0.40589    0.00146     0.40735
      H   23    0.09698      0.00000     0.40170    0.00133     0.40302
      H   24    0.09911      0.00000     0.39871    0.00218     0.40089
      H   25    0.10777      0.00000     0.39001    0.00222     0.39223
      H   26    0.09730      0.00000     0.40060    0.00210     0.40270
      H   27    0.10058      0.00000     0.39658    0.00284     0.39942
      H   28    0.19372      0.00000     0.30388    0.00240     0.30628
      H   29    0.11448      0.00000     0.38377    0.00175     0.38552
      H   30    0.11760      0.00000     0.38063    0.00177     0.38240
      H   31    0.09356      0.00000     0.40527    0.00117     0.40644
      H   32    0.08479      0.00000     0.41340    0.00181     0.41521
      H   33    0.17602      0.00000     0.32021    0.00377     0.32398
      H   34    0.09260      0.00000     0.40628    0.00112     0.40740
      H   35    0.08902      0.00000     0.40977    0.00121     0.41098
      H   36    0.08192      0.00000     0.41678    0.00130     0.41808
      H   37    0.07463      0.00000     0.42406    0.00131     0.42537
      H   38    0.24770      0.00000     0.24896    0.00334     0.25230
 =======================================================================
   * Total *   -0.00000     14.99514    44.79790    0.20696    60.00000

 Normal termination of Gaussian 16 at Thu Dec 10 18:11:26 2020.
