 Gaussian 16, Revision A.03,

 -----------------------------------------------------------
 # opt freq B3LYP/6-31G(d) empiricaldispersion=gd3bj scf=xqc
 -----------------------------------------------------------

 -------------------------------
 CID_130575326_JID_4852_neutraal
 -------------------------------
 Symbolic Z-matrix:
 Charge =  0 Multiplicity = 1

 SCF Done:  E(RB3LYP) =  -565.231569693     A.U. after   12 cycles
 SCF Done:  E(RB3LYP) =  -565.237255303     A.U. after   10 cycles
 SCF Done:  E(RB3LYP) =  -565.237664739     A.U. after   10 cycles
 SCF Done:  E(RB3LYP) =  -565.237734961     A.U. after   10 cycles
 SCF Done:  E(RB3LYP) =  -565.237751790     A.U. after    8 cycles
 SCF Done:  E(RB3LYP) =  -565.237756788     A.U. after    8 cycles
 SCF Done:  E(RB3LYP) =  -565.237757708     A.U. after    7 cycles
 SCF Done:  E(RB3LYP) =  -565.237758188     A.U. after    6 cycles
 SCF Done:  E(RB3LYP) =  -565.237758314     A.U. after    6 cycles
 Optimization completed.
    -- Stationary point found.
 Normal termination of Gaussian 16 at Thu Dec 10 10:41:56 2020.

 --------------------------------------------------------------------
 #N Geom=AllCheck Guess=TCheck SCRF=Check GenChk RB3LYP/6-31G(d) Freq
 --------------------------------------------------------------------

 Structure from the checkpoint file:  "JID_4852.chk"
 -------------------------------
 CID_130575326_JID_4852_neutraal
 -------------------------------
 Charge =  0 Multiplicity = 1

 SCF Done:  E(RB3LYP) =  -565.237758314     A.U. after    1 cycles

  Exact polarizability: 164.457  -0.358 129.740  -0.209   0.261 121.911
 Approx polarizability: 193.757  -0.072 186.106  -1.744  -2.959 189.643

                      1                      2                      3
                      A                      A                      A
 Frequencies --     36.0670                58.5572                76.4162
 Red. masses --      2.6796                 2.8668                 3.2172
 Frc consts  --      0.0021                 0.0058                 0.0111
 IR Inten    --      0.0108                 0.2662                 0.1259

                      4                      5                      6
                      A                      A                      A
 Frequencies --    114.9726               120.1329               157.7808
 Red. masses --      2.4044                 2.6922                 2.1508
 Frc consts  --      0.0187                 0.0229                 0.0315
 IR Inten    --      0.5455                 0.2931                 0.7516

                      7                      8                      9
                      A                      A                      A
 Frequencies --    196.1280               202.9807               232.8353
 Red. masses --      2.9416                 2.4449                 1.1344
 Frc consts  --      0.0667                 0.0593                 0.0362
 IR Inten    --      0.1318                 2.6319                 0.0244

                     10                     11                     12
                      A                      A                      A
 Frequencies --    241.3076               252.4152               266.0505
 Red. masses --      2.1887                 1.1567                 2.3946
 Frc consts  --      0.0751                 0.0434                 0.0999
 IR Inten    --      0.0430                 0.0460                 0.1046

                     13                     14                     15
                      A                      A                      A
 Frequencies --    306.6022               335.1510               358.6882
 Red. masses --      2.6242                 2.3245                 2.5519
 Frc consts  --      0.1453                 0.1538                 0.1934
 IR Inten    --      0.1437                 0.5071                 0.1586

                     16                     17                     18
                      A                      A                      A
 Frequencies --    400.6026               409.0710               423.6782
 Red. masses --      2.1682                 1.9980                 2.0266
 Frc consts  --      0.2050                 0.1970                 0.2143
 IR Inten    --      0.2734                 0.7418                 0.0224

                     19                     20                     21
                      A                      A                      A
 Frequencies --    456.1965               517.9427               534.0984
 Red. masses --      1.9547                 1.9966                 2.2889
 Frc consts  --      0.2397                 0.3156                 0.3847
 IR Inten    --      0.0377                 2.2390                 5.5611

                     22                     23                     24
                      A                      A                      A
 Frequencies --    555.0028               645.0177               722.6310
 Red. masses --      3.2050                 2.4178                 2.3059
 Frc consts  --      0.5817                 0.5927                 0.7094
 IR Inten    --     10.3091                 2.0013                32.7343

                     25                     26                     27
                      A                      A                      A
 Frequencies --    767.1562               792.9055               819.6091
 Red. masses --      1.3134                 2.3070                 2.3747
 Frc consts  --      0.4554                 0.8546                 0.9399
 IR Inten    --      2.9710                12.7090                10.9459

                     28                     29                     30
                      A                      A                      A
 Frequencies --    833.5973               863.6057               889.3141
 Red. masses --      2.6838                 1.9114                 1.6113
 Frc consts  --      1.0988                 0.8399                 0.7508
 IR Inten    --      0.3052                 3.4958                 0.4784

                     31                     32                     33
                      A                      A                      A
 Frequencies --    919.3286               927.6605               941.2283
 Red. masses --      2.0730                 1.8041                 1.2585
 Frc consts  --      1.0323                 0.9147                 0.6569
 IR Inten    --     10.6872                 0.1550                 2.2488

                     34                     35                     36
                      A                      A                      A
 Frequencies --    948.0549               954.9461               975.1790
 Red. masses --      1.5484                 2.0178                 1.6958
 Frc consts  --      0.8200                 1.0841                 0.9501
 IR Inten    --      1.4294                 2.7816                 2.7281

                     37                     38                     39
                      A                      A                      A
 Frequencies --    981.2972               990.3139              1007.3872
 Red. masses --      1.6627                 2.0382                 1.7621
 Frc consts  --      0.9434                 1.1777                 1.0536
 IR Inten    --      1.2131                 0.0816                 5.8725

                     40                     41                     42
                      A                      A                      A
 Frequencies --   1025.0157              1038.3945              1058.5454
 Red. masses --      2.6123                 2.4558                 2.0674
 Frc consts  --      1.6171                 1.5601                 1.3649
 IR Inten    --      3.1987                 7.0172                 0.6256

                     43                     44                     45
                      A                      A                      A
 Frequencies --   1076.8995              1093.4107              1102.3454
 Red. masses --      2.0000                 1.7581                 1.7269
 Frc consts  --      1.3666                 1.2384                 1.2364
 IR Inten    --      0.8930                 0.6051                 0.5151

                     46                     47                     48
                      A                      A                      A
 Frequencies --   1127.4697              1150.4670              1156.9564
 Red. masses --      2.0617                 1.5152                 1.9808
 Frc consts  --      1.5442                 1.1816                 1.5621
 IR Inten    --      2.2526                 9.2996                 6.1457

                     49                     50                     51
                      A                      A                      A
 Frequencies --   1159.2637              1193.7212              1204.7419
 Red. masses --      1.9785                 1.6653                 1.7372
 Frc consts  --      1.5666                 1.3981                 1.4856
 IR Inten    --      6.9562                 3.9235                 9.7630

                     52                     53                     54
                      A                      A                      A
 Frequencies --   1213.9208              1237.5057              1249.5025
 Red. masses --      1.8074                 1.3468                 1.5548
 Frc consts  --      1.5692                 1.2152                 1.4302
 IR Inten    --      0.7880                 0.3972                 1.4853

                     55                     56                     57
                      A                      A                      A
 Frequencies --   1254.1981              1275.1418              1281.2173
 Red. masses --      1.2609                 1.3695                 1.3121
 Frc consts  --      1.1685                 1.3120                 1.2690
 IR Inten    --      9.3315                 1.8639                 0.7854

                     58                     59                     60
                      A                      A                      A
 Frequencies --   1306.7663              1324.0045              1340.7608
 Red. masses --      1.3507                 1.1785                 1.2732
 Frc consts  --      1.3590                 1.2172                 1.3485
 IR Inten    --     12.3512                 2.2414                 2.1308

                     61                     62                     63
                      A                      A                      A
 Frequencies --   1342.9359              1369.8684              1382.6723
 Red. masses --      1.3672                 1.3718                 1.4238
 Frc consts  --      1.4527                 1.5167                 1.6038
 IR Inten    --      3.1493                 1.2617                 2.0814

                     64                     65                     66
                      A                      A                      A
 Frequencies --   1383.8282              1388.9857              1393.1123
 Red. masses --      1.4029                 1.4500                 1.4041
 Frc consts  --      1.5829                 1.6482                 1.6055
 IR Inten    --     12.7746                 2.9080                 0.7814

                     67                     68                     69
                      A                      A                      A
 Frequencies --   1395.2284              1405.5458              1411.1049
 Red. masses --      1.4729                 1.3942                 1.4461
 Frc consts  --      1.6894                 1.6228                 1.6966
 IR Inten    --      1.6531                 0.3817                 1.3525

                     70                     71                     72
                      A                      A                      A
 Frequencies --   1419.0341              1422.5874              1431.1865
 Red. masses --      1.4239                 1.4379                 1.2885
 Frc consts  --      1.6893                 1.7145                 1.5550
 IR Inten    --      4.1546                 2.3190                 5.7686

                     73                     74                     75
                      A                      A                      A
 Frequencies --   1441.6901              1449.8037              1504.7336
 Red. masses --      1.3836                 1.2726                 1.0920
 Frc consts  --      1.6944                 1.5760                 1.4568
 IR Inten    --     15.2795                 1.9964                 0.2309

                     76                     77                     78
                      A                      A                      A
 Frequencies --   1515.2173              1515.5163              1518.0712
 Red. masses --      1.0771                 1.0835                 1.0873
 Frc consts  --      1.4570                 1.4662                 1.4763
 IR Inten    --      0.5751                 0.7382                 3.5640

                     79                     80                     81
                      A                      A                      A
 Frequencies --   1519.4047              1522.8861              1525.7776
 Red. masses --      1.0478                 1.0897                 1.0568
 Frc consts  --      1.4252                 1.4890                 1.4496
 IR Inten    --      0.9162                 1.3383                 3.0344

                     82                     83                     84
                      A                      A                      A
 Frequencies --   1534.1287              1535.4527              1540.2567
 Red. masses --      1.0824                 1.0541                 1.0904
 Frc consts  --      1.5009                 1.4642                 1.5242
 IR Inten    --     11.4797                 2.9366                 4.6714

                     85                     86                     87
                      A                      A                      A
 Frequencies --   1540.5329              1549.5528              2975.2139
 Red. masses --      1.0517                 1.1053                 1.0817
 Frc consts  --      1.4706                 1.5637                 5.6415
 IR Inten    --      6.5298                 5.5049                38.0594

                     88                     89                     90
                      A                      A                      A
 Frequencies --   2999.6891              3015.3594              3022.5732
 Red. masses --      1.0651                 1.0704                 1.0645
 Frc consts  --      5.6468                 5.7344                 5.7298
 IR Inten    --     74.3592                 4.7838                15.6087

                     91                     92                     93
                      A                      A                      A
 Frequencies --   3024.6541              3027.1023              3028.7760
 Red. masses --      1.0669                 1.0683                 1.0686
 Frc consts  --      5.7510                 5.7675                 5.7755
 IR Inten    --      3.3661                20.7155                14.4267

                     94                     95                     96
                      A                      A                      A
 Frequencies --   3029.9407              3033.2722              3034.8434
 Red. masses --      1.0655                 1.0617                 1.0365
 Frc consts  --      5.7635                 5.7552                 5.6246
 IR Inten    --     15.5206                41.3306                34.7740

                     97                     98                     99
                      A                      A                      A
 Frequencies --   3041.3518              3041.6161              3055.0799
 Red. masses --      1.0497                 1.0568                 1.0992
 Frc consts  --      5.7208                 5.7603                 6.0447
 IR Inten    --     44.0887                22.6290                 6.9390

                    100                    101                    102
                      A                      A                      A
 Frequencies --   3060.7604              3064.8488              3068.3786
 Red. masses --      1.0983                 1.1007                 1.0988
 Frc consts  --      6.0624                 6.0918                 6.0953
 IR Inten    --     17.9657                88.2577               100.2640

                    103                    104                    105
                      A                      A                      A
 Frequencies --   3072.7513              3079.6911              3083.3831
 Red. masses --      1.0980                 1.0991                 1.1009
 Frc consts  --      6.1081                 6.1421                 6.1668
 IR Inten    --     39.0135                10.3161               101.0135

                    106                    107                    108
                      A                      A                      A
 Frequencies --   3092.4884              3097.2906              3104.8281
 Red. masses --      1.0944                 1.1010                 1.1000
 Frc consts  --      6.1663                 6.2227                 6.2477
 IR Inten    --     21.9584                 9.0378                79.1420

                    109                    110                    111
                      A                      A                      A
 Frequencies --   3110.0063              3112.4098              3490.1707
 Red. masses --      1.1021                 1.1012                 1.0760
 Frc consts  --      6.2807                 6.2852                 7.7226
 IR Inten    --     37.2249                61.7605                 4.9445

 - Thermochemistry -
 -------------------
 Temperature   298.150 Kelvin.  Pressure   1.00000 Atm.
 Atom     1 has atomic number  6 and mass  12.00000

 Molecular mass:   195.19870 amu.
 Principal axes and moments of inertia in atomic units:
                           1         2         3
     Eigenvalues --  1321.590365402.587995680.51181
           X            0.99999   0.00222  -0.00416
           Y           -0.00211   0.99967   0.02577
           Z            0.00421  -0.02576   0.99966
 This molecule is an asymmetric top.
 Rotational symmetry number  1.
 Warning -- assumption of classical behavior for rotation
           may cause significant error
 Rotational temperatures (Kelvin)      0.06554     0.01603     0.01525
 Rotational constants (GHZ):           1.36558     0.33405     0.31771
 Zero-point vibrational energy     961963.6 (Joules/Mol)
                                  229.91481 (Kcal/Mol)
 Warning -- explicit consideration of  22 degrees of freedom as
           vibrations may cause significant error
 Vibrational temperatures:     51.89    84.25   109.95   165.42   172.84
          (Kelvin)            227.01   282.18   292.04   335.00   347.19
                              363.17   382.79   441.13   482.21   516.07
                              576.38   588.56   609.58   656.37   745.20
                              768.45   798.53   928.04  1039.70  1103.77
                             1140.81  1179.23  1199.36  1242.54  1279.52
                             1322.71  1334.70  1354.22  1364.04  1373.95
                             1403.07  1411.87  1424.84  1449.41  1474.77
                             1494.02  1523.01  1549.42  1573.17  1586.03
                             1622.18  1655.27  1664.60  1667.92  1717.50
                             1733.35  1746.56  1780.49  1797.76  1804.51
                             1834.64  1843.39  1880.15  1904.95  1929.06
                             1932.19  1970.94  1989.36  1991.02  1998.44
                             2004.38  2007.42  2022.27  2030.27  2041.67
                             2046.79  2059.16  2074.27  2085.94  2164.98
                             2180.06  2180.49  2184.17  2186.08  2191.09
                             2195.25  2207.27  2209.17  2216.09  2216.48
                             2229.46  4280.67  4315.88  4338.43  4348.81
                             4351.80  4355.33  4357.73  4359.41  4364.20
                             4366.46  4375.83  4376.21  4395.58  4403.75
                             4409.63  4414.71  4421.00  4430.99  4436.30
                             4449.40  4456.31  4467.16  4474.61  4478.06
                             5021.58

 Zero-point correction=                           0.366393 (Hartree/Particle)
 Thermal correction to Energy=                    0.381310
 Thermal correction to Enthalpy=                  0.382254
 Thermal correction to Gibbs Free Energy=         0.324752
 Sum of electronic and zero-point Energies=           -564.871366
 Sum of electronic and thermal Energies=              -564.856448
 Sum of electronic and thermal Enthalpies=            -564.855504
 Sum of electronic and thermal Free Energies=         -564.913006

                     E (Thermal)             CV                S
                      KCal/Mol        Cal/Mol-Kelvin    Cal/Mol-Kelvin
 Total                  239.276             58.593            121.024
 Electronic               0.000              0.000              0.000
 Translational            0.889              2.981             41.712
 Rotational               0.889              2.981             32.073
 Vibrational            237.498             52.632             47.239
 Vibration     1          0.594              1.982              5.464
 Vibration     2          0.596              1.974              4.505
 Vibration     3          0.599              1.965              3.981
 Vibration     4          0.608              1.937              3.183
 Vibration     5          0.609              1.932              3.098
 Vibration     6          0.621              1.894              2.576
 Vibration     7          0.636              1.845              2.169
 Vibration     8          0.639              1.836              2.106
 Vibration     9          0.654              1.791              1.857
 Vibration    10          0.658              1.777              1.793
 Vibration    11          0.664              1.759              1.714
 Vibration    12          0.672              1.735              1.622
 Vibration    13          0.697              1.661              1.381
 Vibration    14          0.716              1.605              1.235
 Vibration    15          0.734              1.557              1.128
 Vibration    16          0.766              1.469              0.960
 Vibration    17          0.773              1.451              0.930
 Vibration    18          0.786              1.419              0.880
 Vibration    19          0.814              1.347              0.777
 Vibration    20          0.873              1.210              0.615
 Vibration    21          0.889              1.175              0.578
 Vibration    22          0.910              1.129              0.534

                           ! Non-Optimized Parameters !
 Normal termination of Gaussian 16 at Thu Dec 10 10:54:15 2020.

 ----------------------------------------------------------------------
 # B3LYP/6-311++G(d,p) empiricaldispersion=gd3bj scf=xqc pop=npa geom=c
 heck
 ----------------------------------------------------------------------

 ---------------------------------------
 CID_130575326_JID_4852_Energie_neutraal
 ---------------------------------------
 Structure from the checkpoint file:  "JID_4852.chk"
 Charge =  0 Multiplicity = 1

 SCF Done:  E(RB3LYP) =  -565.392757701     A.U. after   13 cycles
 Normal termination of Gaussian 16 at Thu Dec 10 10:59:31 2020.

 ----------------------------------------------------------------------
 # B3LYP/6-311++G(d,p) empiricaldispersion=gd3bj scf=xqc pop=npa geom=c
 heck
 ----------------------------------------------------------------------

 -------------------------------------
 CID_130575326_JID_4852_Energie_kation
 -------------------------------------
 Structure from the checkpoint file:  "JID_4852.chk"
 Charge =  1 Multiplicity = 2

 SCF Done:  E(UB3LYP) =  -565.086530936     A.U. after   19 cycles
 Normal termination of Gaussian 16 at Thu Dec 10 11:09:59 2020.
 Gaussian 16:  ES64L-G16RevA.03 25-Dec-2016

 ----------------------------------------------------------------------
 # B3LYP/6-311++G(d,p) empiricaldispersion=gd3bj scf=xqc pop=npa geom=c
 heck
 ----------------------------------------------------------------------

 ------------------------------------
 CID_130575326_JID_4852_Energie_anion
 ------------------------------------
 Structure from the checkpoint file:  "JID_4852.chk"
 Charge = -1 Multiplicity = 2

                         Standard orientation:
 ---------------------------------------------------------------------
 Center     Atomic      Atomic             Coordinates (Angstroms)
 Number     Number       Type             X           Y           Z
 ---------------------------------------------------------------------
      1          6           0        3.881304   -0.921943   -0.914944
      2          6           0        3.389385    0.232150   -0.031477
      3          6           0        4.262199    1.475716   -0.238688
      4          6           0        1.907097    0.573295   -0.271334
      5          6           0        0.957210   -0.564762    0.069944
      6          6           0       -0.594076   -0.348975    0.175052
      7          6           0       -0.956566    1.087876    0.571070
      8          6           0       -2.438973    1.366521    0.867442
      9          6           0       -3.328565    1.367746   -0.387004
     10          6           0       -3.855025   -0.009524   -0.830648
     11          6           0       -2.884812   -1.189861   -0.651036
     12          6           0       -1.410052   -0.910003   -0.994620
     13          6           0       -0.490456   -1.272663    1.424311
     14          7           0        0.961341   -0.988601    1.493183
     15          1           0        3.765823   -0.674436   -1.978390
     16          1           0        3.330560   -1.850448   -0.728941
     17          1           0        4.943177   -1.126473   -0.735215
     18          1           0        3.481446   -0.074339    1.020570
     19          1           0        4.197034    1.828803   -1.276261
     20          1           0        3.944516    2.297269    0.413725
     21          1           0        5.316430    1.262919   -0.025584
     22          1           0        1.653977    1.447403    0.338033
     23          1           0        1.763704    0.860189   -1.324470
     24          1           0        1.138747   -1.408173   -0.616254
     25          1           0       -0.360567    1.350674    1.452866
     26          1           0       -0.639900    1.769678   -0.231094
     27          1           0       -2.498553    2.354383    1.341111
     28          1           0       -2.823610    0.654428    1.610898
     29          1           0       -2.755304    1.822474   -1.206400
     30          1           0       -4.190768    2.027484   -0.228318
     31          1           0       -4.149595    0.058954   -1.886252
     32          1           0       -4.774661   -0.240971   -0.277051
     33          1           0       -3.247958   -2.023518   -1.264745
     34          1           0       -2.933537   -1.548017    0.385486
     35          1           0       -1.338545   -0.236106   -1.860559
     36          1           0       -0.940922   -1.852111   -1.305584
     37          1           0       -0.737543   -2.318226    1.182636
     38          1           0       -1.051297   -0.978496    2.320327
     39          1           0        1.545935   -1.796581    1.698774
 ---------------------------------------------------------------------

 SCF Done:  E(UB3LYP) =  -565.377976498     A.U. after   28 cycles

 The electronic state is 2-A.
 Alpha  occ. eigenvalues --  -14.19194 -10.09188 -10.08763 -10.07890 -10.07583
 Alpha  occ. eigenvalues --  -10.06723 -10.06578 -10.06510 -10.06453 -10.06398
 Alpha  occ. eigenvalues --  -10.06342 -10.06302 -10.06073 -10.05893  -0.83028
 Alpha  occ. eigenvalues --   -0.72313  -0.71064  -0.66206  -0.66192  -0.62070
 Alpha  occ. eigenvalues --   -0.58852  -0.56727  -0.55414  -0.53643  -0.50142
 Alpha  occ. eigenvalues --   -0.46409  -0.45133  -0.41892  -0.40701  -0.38047
 Alpha  occ. eigenvalues --   -0.37157  -0.35862  -0.35074  -0.34174  -0.33287
 Alpha  occ. eigenvalues --   -0.32122  -0.31240  -0.30553  -0.30040  -0.29013
 Alpha  occ. eigenvalues --   -0.28197  -0.27666  -0.27108  -0.26358  -0.25613
 Alpha  occ. eigenvalues --   -0.24084  -0.23121  -0.23002  -0.22672  -0.22243
 Alpha  occ. eigenvalues --   -0.21531  -0.20809  -0.19918  -0.18619  -0.13054
 Alpha  occ. eigenvalues --    0.04312
 Alpha virt. eigenvalues --    0.06010   0.06720   0.07415   0.07920   0.08115
 Alpha virt. eigenvalues --    0.08749   0.09332   0.09642   0.10000   0.10507
 Alpha virt. eigenvalues --    0.10982   0.11102   0.11707   0.12367   0.12772

  Beta  occ. eigenvalues --  -14.19175 -10.09175 -10.08745 -10.07891 -10.07577
  Beta  occ. eigenvalues --  -10.06711 -10.06563 -10.06494 -10.06436 -10.06384
  Beta  occ. eigenvalues --  -10.06334 -10.06287 -10.06067 -10.05861  -0.83006
  Beta  occ. eigenvalues --   -0.72286  -0.71045  -0.66178  -0.66162  -0.62043
  Beta  occ. eigenvalues --   -0.58801  -0.56683  -0.55378  -0.53601  -0.50097
  Beta  occ. eigenvalues --   -0.46368  -0.45082  -0.41852  -0.40657  -0.38018
  Beta  occ. eigenvalues --   -0.37120  -0.35836  -0.35054  -0.34142  -0.33263
  Beta  occ. eigenvalues --   -0.32089  -0.31210  -0.30521  -0.30011  -0.28989
  Beta  occ. eigenvalues --   -0.28169  -0.27641  -0.27080  -0.26331  -0.25585
  Beta  occ. eigenvalues --   -0.24059  -0.23092  -0.22976  -0.22640  -0.22217
  Beta  occ. eigenvalues --   -0.21504  -0.20779  -0.19895  -0.18600  -0.13017
  Beta virt. eigenvalues --    0.06266   0.06745   0.07481   0.07788   0.08357
  Beta virt. eigenvalues --    0.08581   0.09004   0.09757   0.10017   0.10324
  Beta virt. eigenvalues --    0.10710   0.11208   0.11332   0.11963   0.12696

 Mulliken charges and spin densities:
               1          2
     1  C    0.647377  -1.365858
     2  C   -1.554983   2.040459
     3  C    0.323134  -0.997680
     4  C    1.059216  -1.738265
     5  C    0.311561  -0.279519
     6  C   -0.053403   0.718506
     7  C   -0.856081   0.352100
     8  C   -0.277718  -0.186177
     9  C   -0.308667   0.174655
    10  C    1.540737  -2.252816
    11  C   -0.614489   0.452732
    12  C   -0.099984  -0.225368
    13  C    0.516942  -1.110169
    14  N   -0.228747   0.121426
    15  H   -0.093650   0.235370
    16  H   -0.401528   0.547501
    17  H   -0.269944   0.404267
    18  H    0.091335   0.095268
    19  H    0.006046   0.128252
    20  H    0.010979   0.116152
    21  H   -0.132144   0.274233
    22  H    0.089501   0.026763
    23  H    0.020082   0.123828
    24  H    0.454976  -0.236248
    25  H    0.168185  -0.003222
    26  H    0.053142   0.081166
    27  H   -0.207815   0.389158
    28  H    0.029652   0.085270
    29  H    0.003732   0.125857
    30  H   -0.169610   0.326941
    31  H   -0.051100   0.186736
    32  H   -0.214753   0.362648
    33  H   -0.325140   0.507698
    34  H    0.198682  -0.059138
    35  H    0.093345   0.063415
    36  H   -0.437263   0.584812
    37  H   -0.351090   0.516875
    38  H    0.015114   0.175933
    39  H    0.014371   0.236437
 Sum of Mulliken charges =  -1.00000   1.00000

 Dipole moment (field-independent basis, Debye):
    X=             -0.2448    Y=              3.0206    Z=              0.7259  Tot=              3.1162
 Quadrupole moment (field-independent basis, Debye-Ang):
   XX=           -183.0709   YY=           -139.0188   ZZ=           -126.1115
   XY=              5.4429   XZ=             -1.5190   YZ=             -3.5357

 Summary of Natural Population Analysis:

                                       Natural Population
                Natural  -----------------------------------------------
    Atom  No    Charge         Core      Valence    Rydberg      Total
 -----------------------------------------------------------------------
      C    1   -0.28591      0.99965     2.28017    0.00608     3.28591
      C    2   -0.11662      0.99962     2.10703    0.00997     3.11662
      C    3   -0.27999      0.99965     2.27578    0.00456     3.27999
      C    4   -0.19200      0.99959     2.18404    0.00837     3.19200
      C    5    0.00148      0.99956     1.98545    0.01350     2.99852
      C    6   -0.03276      0.99952     2.01859    0.01465     3.03276
      C    7   -0.18991      0.99957     2.18152    0.00882     3.18991
      C    8   -0.19220      0.99962     2.18399    0.00858     3.19220
      C    9   -0.19180      0.99963     2.18397    0.00820     3.19180
      C   10   -0.18564      0.99963     2.17798    0.00804     3.18564
      C   11   -0.19196      0.99962     2.18351    0.00883     3.19196
      C   12   -0.19258      0.99958     2.18245    0.01055     3.19258
      C   13   -0.08288      0.99959     2.07173    0.01156     3.08288
      N   14   -0.34653      0.99975     2.83555    0.01123     3.84653
      H   15    0.09509      0.00000     0.40394    0.00097     0.40491
      H   16    0.10154      0.00000     0.39714    0.00132     0.39846
      H   17    0.09844      0.00000     0.40056    0.00099     0.40156
      H   18    0.09542      0.00000     0.40256    0.00202     0.40458
      H   19    0.09462      0.00000     0.40447    0.00091     0.40538
      H   20    0.09754      0.00000     0.40153    0.00092     0.40246
      H   21    0.09744      0.00000     0.40168    0.00088     0.40256
      H   22    0.10054      0.00000     0.39792    0.00154     0.39946
      H   23    0.09571      0.00000     0.40311    0.00118     0.40429
      H   24    0.08598      0.00000     0.41141    0.00261     0.41402
      H   25    0.10463      0.00000     0.39395    0.00142     0.39537
      H   26    0.09583      0.00000     0.40284    0.00132     0.40417
      H   27    0.09819      0.00000     0.40089    0.00092     0.40181
      H   28    0.09455      0.00000     0.40415    0.00130     0.40545
      H   29    0.09162      0.00000     0.40712    0.00126     0.40838
      H   30    0.09869      0.00000     0.40016    0.00115     0.40131
      H   31    0.09451      0.00000     0.40432    0.00116     0.40549
      H   32    0.09470      0.00000     0.40411    0.00118     0.40530
      H   33    0.10074      0.00000     0.39806    0.00120     0.39926
      H   34    0.09388      0.00000     0.40455    0.00157     0.40612
      H   35    0.09696      0.00000     0.40175    0.00129     0.40304
      H   36    0.10265      0.00000     0.39569    0.00166     0.39735
      H   37    0.08750      0.00000     0.41076    0.00174     0.41250
      H   38    0.08756      0.00000     0.41113    0.00130     0.41244
      H   39    0.17492      0.00000     0.32279    0.00229     0.32508
 =======================================================================
   * Total *   -0.00000     13.99457    40.83837    0.16705    55.00000

 Normal termination of Gaussian 16 at Thu Dec 10 11:24:22 2020.
