 Gaussian 16, Revision A.03,

 -----------------------------------------------------------
 # opt freq B3LYP/6-31G(d) empiricaldispersion=gd3bj scf=xqc
 -----------------------------------------------------------

 -------------------------------
 CID_127897967_JID_7970_neutraal
 -------------------------------
 Symbolic Z-matrix:
 Charge =  0 Multiplicity = 1

 SCF Done:  E(RB3LYP) =  -783.462078015     A.U. after   15 cycles
 SCF Done:  E(RB3LYP) =  -783.467937568     A.U. after   13 cycles
 SCF Done:  E(RB3LYP) =  -783.468535591     A.U. after   13 cycles
 SCF Done:  E(RB3LYP) =  -783.469412714     A.U. after   13 cycles
 SCF Done:  E(RB3LYP) =  -783.469873744     A.U. after   12 cycles
 SCF Done:  E(RB3LYP) =  -783.470143932     A.U. after   11 cycles
 SCF Done:  E(RB3LYP) =  -783.470386036     A.U. after   11 cycles
 SCF Done:  E(RB3LYP) =  -783.470561380     A.U. after   12 cycles
 SCF Done:  E(RB3LYP) =  -783.470649372     A.U. after   11 cycles
 SCF Done:  E(RB3LYP) =  -783.470927525     A.U. after   12 cycles
 SCF Done:  E(RB3LYP) =  -783.471055624     A.U. after    9 cycles
 SCF Done:  E(RB3LYP) =  -783.471054301     A.U. after   10 cycles
 SCF Done:  E(RB3LYP) =  -783.471057325     A.U. after   10 cycles
 SCF Done:  E(RB3LYP) =  -783.471057467     A.U. after    7 cycles
 Optimization completed.
    -- Stationary point found.
 Normal termination of Gaussian 16 at Fri Dec 11 13:33:54 2020.

 --------------------------------------------------------------------
 #N Geom=AllCheck Guess=TCheck SCRF=Check GenChk RB3LYP/6-31G(d) Freq
 --------------------------------------------------------------------

 Structure from the checkpoint file:  "JID_7970.chk"
 -------------------------------
 CID_127897967_JID_7970_neutraal
 -------------------------------
 Charge =  0 Multiplicity = 1

 SCF Done:  E(RB3LYP) =  -783.471057467     A.U. after    1 cycles

  Exact polarizability: 161.477  -3.947 134.783  -0.130  -5.150 128.051
 Approx polarizability: 199.210  -8.245 207.664  -3.545 -18.791 204.349

                      1                      2                      3
                      A                      A                      A
 Frequencies --     27.3136                41.5442                45.4429
 Red. masses --      5.6211                 4.8131                 4.6176
 Frc consts  --      0.0025                 0.0049                 0.0056
 IR Inten    --      1.0798                 0.4947                 0.9612

                      4                      5                      6
                      A                      A                      A
 Frequencies --     88.5094                96.5086               109.0461
 Red. masses --      7.1657                 3.7327                 4.3114
 Frc consts  --      0.0331                 0.0205                 0.0302
 IR Inten    --      1.0205                 1.7291                 4.0343

                      7                      8                      9
                      A                      A                      A
 Frequencies --    170.8526               184.4539               207.1102
 Red. masses --      3.5649                 4.4031                 2.9581
 Frc consts  --      0.0613                 0.0883                 0.0748
 IR Inten    --      1.2020                 4.9485                 1.2376

                     10                     11                     12
                      A                      A                      A
 Frequencies --    228.5513               264.7140               303.5873
 Red. masses --      2.8151                 2.5248                 2.7475
 Frc consts  --      0.0866                 0.1042                 0.1492
 IR Inten    --      0.5197                 1.7509                 0.5703

                     13                     14                     15
                      A                      A                      A
 Frequencies --    308.4872               328.4972               371.7153
 Red. masses --      3.1503                 3.4226                 2.0440
 Frc consts  --      0.1766                 0.2176                 0.1664
 IR Inten    --      3.7411                 1.7203                 0.3322

                     16                     17                     18
                      A                      A                      A
 Frequencies --    385.0304               412.2988               434.5375
 Red. masses --      3.1552                 3.0162                 3.9388
 Frc consts  --      0.2756                 0.3021                 0.4382
 IR Inten    --      2.8960                11.1201                33.0043

                     19                     20                     21
                      A                      A                      A
 Frequencies --    450.2958               456.2381               478.0945
 Red. masses --      2.4586                 1.3045                 2.5157
 Frc consts  --      0.2937                 0.1600                 0.3388
 IR Inten    --      6.6900                46.6847                 4.4228

                     22                     23                     24
                      A                      A                      A
 Frequencies --    520.1756               560.2461               574.1664
 Red. masses --      2.7459                 1.1149                 2.6278
 Frc consts  --      0.4378                 0.2062                 0.5104
 IR Inten    --      9.2822                40.6183                47.6957

                     25                     26                     27
                      A                      A                      A
 Frequencies --    593.7524               616.4586               637.2103
 Red. masses --      1.7268                 2.3682                 2.9919
 Frc consts  --      0.3587                 0.5302                 0.7158
 IR Inten    --     86.9235               113.1507                41.8528

                     28                     29                     30
                      A                      A                      A
 Frequencies --    705.8333               726.6537               755.7956
 Red. masses --      4.2462                 2.5511                 2.7760
 Frc consts  --      1.2464                 0.7937                 0.9343
 IR Inten    --      5.2321                 1.2396                 0.8071

                     31                     32                     33
                      A                      A                      A
 Frequencies --    766.8831               797.6361               808.4279
 Red. masses --      9.4204                 1.0340                 1.2823
 Frc consts  --      3.2642                 0.3876                 0.4938
 IR Inten    --     52.6357                 0.0935                 0.4702

                     34                     35                     36
                      A                      A                      A
 Frequencies --    864.8141               880.5703               885.8597
 Red. masses --      2.5648                 2.1311                 1.7410
 Frc consts  --      1.1302                 0.9736                 0.8050
 IR Inten    --      4.2079                 0.8513                14.7716

                     37                     38                     39
                      A                      A                      A
 Frequencies --    898.1457               922.1011               944.5898
 Red. masses --      2.6568                 2.0737                 1.5010
 Frc consts  --      1.2627                 1.0388                 0.7891
 IR Inten    --     10.2943                 8.4535                 2.7638

                     40                     41                     42
                      A                      A                      A
 Frequencies --    955.3385               968.1857               975.9924
 Red. masses --      1.6231                 2.5451                 2.0064
 Frc consts  --      0.8728                 1.4057                 1.1260
 IR Inten    --      4.6219                 7.9068                11.3411

                     43                     44                     45
                      A                      A                      A
 Frequencies --    995.2774              1007.2728              1011.3184
 Red. masses --      2.1378                 3.0111                 2.7112
 Frc consts  --      1.2477                 1.8000                 1.6338
 IR Inten    --      5.3355                14.7741                 0.6596

                     46                     47                     48
                      A                      A                      A
 Frequencies --   1045.1294              1055.4241              1060.5911
 Red. masses --      1.7052                 1.8915                 1.8311
 Frc consts  --      1.0974                 1.2414                 1.2136
 IR Inten    --      9.3320                 4.7698                 3.5393

                     49                     50                     51
                      A                      A                      A
 Frequencies --   1066.0092              1073.1406              1087.2395
 Red. masses --      1.6814                 1.4637                 1.4032
 Frc consts  --      1.1257                 0.9932                 0.9773
 IR Inten    --      6.6962                13.8301                 1.1254

                     52                     53                     54
                      A                      A                      A
 Frequencies --   1094.7666              1130.2201              1169.7036
 Red. masses --      1.4209                 2.1876                 1.5997
 Frc consts  --      1.0034                 1.6465                 1.2896
 IR Inten    --      1.4643                16.4534                29.4571

                     55                     56                     57
                      A                      A                      A
 Frequencies --   1171.9696              1198.4107              1203.3436
 Red. masses --      1.6378                 1.2992                 1.3615
 Frc consts  --      1.3254                 1.0993                 1.1616
 IR Inten    --     19.8928                 1.3496                13.3583

                     58                     59                     60
                      A                      A                      A
 Frequencies --   1211.6443              1237.5663              1265.8770
 Red. masses --      1.7079                 1.3561                 2.1294
 Frc consts  --      1.4772                 1.2237                 2.0104
 IR Inten    --     44.7706                25.0339                65.6280

                     61                     62                     63
                      A                      A                      A
 Frequencies --   1299.0309              1323.4500              1335.4980
 Red. masses --      1.6904                 2.1239                 2.3312
 Frc consts  --      1.6806                 2.1918                 2.4498
 IR Inten    --     14.4124                15.3420                 6.7406

                     64                     65                     66
                      A                      A                      A
 Frequencies --   1342.4822              1366.8984              1381.7662
 Red. masses --      1.9218                 1.3960                 1.7560
 Frc consts  --      2.0406                 1.5368                 1.9754
 IR Inten    --     32.7380                 9.8548                 1.1938

                     67                     68                     69
                      A                      A                      A
 Frequencies --   1394.8675              1412.7696              1425.9280
 Red. masses --      1.4455                 1.4368                 3.2256
 Frc consts  --      1.6570                 1.6896                 3.8642
 IR Inten    --      4.1604                 2.7997               189.0332

                     70                     71                     72
                      A                      A                      A
 Frequencies --   1428.4521              1450.6325              1485.3461
 Red. masses --      1.7869                 1.7683                 1.1427
 Frc consts  --      2.1483                 2.1925                 1.4854
 IR Inten    --      3.4370                61.3036                17.7300

                     73                     74                     75
                      A                      A                      A
 Frequencies --   1491.8536              1494.9928              1507.1251
 Red. masses --      2.0860                 1.0974                 1.0981
 Frc consts  --      2.7354                 1.4451                 1.4696
 IR Inten    --    139.4385                 9.2336                 1.8691

                     76                     77                     78
                      A                      A                      A
 Frequencies --   1512.2627              1516.5782              1524.0945
 Red. masses --      1.1290                 1.2096                 1.3353
 Frc consts  --      1.5213                 1.6392                 1.8275
 IR Inten    --     14.1361                 9.3459                 4.6562

                     79                     80                     81
                      A                      A                      A
 Frequencies --   1529.8438              1539.4191              1683.0860
 Red. masses --      1.2186                 1.3376                 1.2448
 Frc consts  --      1.6803                 1.8677                 2.0776
 IR Inten    --     18.2962                 8.2432               209.1763

                     82                     83                     84
                      A                      A                      A
 Frequencies --   1713.2941              1820.3143              3020.5901
 Red. masses --      8.0044                 6.8609                 1.0677
 Frc consts  --     13.8435                13.3944                 5.7394
 IR Inten    --    234.1011               462.4785                16.0338

                     85                     86                     87
                      A                      A                      A
 Frequencies --   3028.0086              3033.2906              3048.5420
 Red. masses --      1.0721                 1.0737                 1.0608
 Frc consts  --      5.7916                 5.8206                 5.8086
 IR Inten    --     19.9104                64.2493                25.2238

                     88                     89                     90
                      A                      A                      A
 Frequencies --   3080.7268              3094.2490              3141.1132
 Red. masses --      1.0951                 1.1048                 1.0519
 Frc consts  --      6.1234                 6.2321                 6.1146
 IR Inten    --     35.5921                51.7818                19.7669

                     91                     92                     93
                      A                      A                      A
 Frequencies --   3145.9695              3148.2720              3167.1302
 Red. masses --      1.0579                 1.0539                 1.0921
 Frc consts  --      6.1687                 6.1544                 6.4540
 IR Inten    --     10.0666                 9.1989                 3.7129

                     94                     95                     96
                      A                      A                      A
 Frequencies --   3173.0299              3176.0807              3216.6397
 Red. masses --      1.0896                 1.0548                 1.1191
 Frc consts  --      6.4636                 6.2688                 6.8224
 IR Inten    --     20.8337                 3.0763                 2.4321

                     97                     98                     99
                      A                      A                      A
 Frequencies --   3230.5224              3231.6539              3265.6380
 Red. masses --      1.1192                 1.1164                 1.1188
 Frc consts  --      6.8817                 6.8693                 7.0295
 IR Inten    --      6.2784                14.3688                 2.5878

                    100                    101                    102
                      A                      A                      A
 Frequencies --   3521.8660              3609.8785              3674.3991
 Red. masses --      1.0551                 1.0763                 1.0947
 Frc consts  --      7.7108                 8.2639                 8.7080
 IR Inten    --     88.4267                15.2636                76.3904

 - Thermochemistry -
 -------------------
 Temperature   298.150 Kelvin.  Pressure   1.00000 Atm.
 Atom     1 has atomic number  6 and mass  12.00000

 Molecular mass:   237.14773 amu.
 Principal axes and moments of inertia in atomic units:
                           1         2         3
     Eigenvalues --  1986.092406397.685496534.85395
           X            0.99993  -0.00116   0.01209
           Y            0.00078   0.99952   0.03085
           Z           -0.01212  -0.03084   0.99945
 This molecule is an asymmetric top.
 Rotational symmetry number  1.
 Warning -- assumption of classical behavior for rotation
           may cause significant error
 Rotational temperatures (Kelvin)      0.04361     0.01354     0.01325
 Rotational constants (GHZ):           0.90869     0.28209     0.27617
 Zero-point vibrational energy     818390.2 (Joules/Mol)
                                  195.59995 (Kcal/Mol)
 Warning -- explicit consideration of  26 degrees of freedom as
           vibrations may cause significant error
 Vibrational temperatures:     39.30    59.77    65.38   127.35   138.85
          (Kelvin)            156.89   245.82   265.39   297.99   328.83
                              380.86   436.79   443.84   472.63   534.82
                              553.97   593.21   625.20   647.88   656.42
                              687.87   748.42   806.07   826.10   854.28
                              886.95   916.80  1015.54  1045.49  1087.42
                             1103.37  1147.62  1163.15  1244.27  1266.94
                             1274.55  1292.23  1326.70  1359.05  1374.52
                             1393.00  1404.24  1431.98  1449.24  1455.06
                             1503.71  1518.52  1525.95  1533.75  1544.01
                             1564.30  1575.12  1626.13  1682.94  1686.20
                             1724.25  1731.34  1743.29  1780.58  1821.31
                             1869.02  1904.15  1921.48  1931.53  1966.66
                             1988.05  2006.90  2032.66  2051.59  2055.22
                             2087.14  2137.08  2146.44  2150.96  2168.42
                             2175.81  2182.02  2192.83  2201.10  2214.88
                             2421.59  2465.05  2619.03  4345.96  4356.63
                             4364.23  4386.17  4432.48  4451.93  4519.36
                             4526.35  4529.66  4556.79  4565.28  4569.67
                             4628.03  4648.00  4649.63  4698.52  5067.18
                             5193.81  5286.64

 Zero-point correction=                           0.311708 (Hartree/Particle)
 Thermal correction to Energy=                    0.327879
 Thermal correction to Enthalpy=                  0.328824
 Thermal correction to Gibbs Free Energy=         0.267418
 Sum of electronic and zero-point Energies=           -783.159349
 Sum of electronic and thermal Energies=              -783.143178
 Sum of electronic and thermal Enthalpies=            -783.142234
 Sum of electronic and thermal Free Energies=         -783.203640

                     E (Thermal)             CV                S
                      KCal/Mol        Cal/Mol-Kelvin    Cal/Mol-Kelvin
 Total                  205.747             63.613            129.239
 Electronic               0.000              0.000              0.000
 Translational            0.889              2.981             42.292
 Rotational               0.889              2.981             32.785
 Vibrational            203.970             57.651             54.163
 Vibration     1          0.593              1.984              6.016
 Vibration     2          0.594              1.981              5.184
 Vibration     3          0.595              1.979              5.006
 Vibration     4          0.601              1.957              3.693
 Vibration     5          0.603              1.952              3.524
 Vibration     6          0.606              1.942              3.286
 Vibration     7          0.626              1.878              2.426
 Vibration     8          0.631              1.861              2.283
 Vibration     9          0.641              1.830              2.069
 Vibration    10          0.651              1.797              1.890
 Vibration    11          0.671              1.738              1.630
 Vibration    12          0.695              1.667              1.397
 Vibration    13          0.698              1.658              1.370
 Vibration    14          0.712              1.619              1.267
 Vibration    15          0.743              1.530              1.073
 Vibration    16          0.754              1.502              1.019
 Vibration    17          0.776              1.444              0.919
 Vibration    18          0.795              1.395              0.844
 Vibration    19          0.809              1.360              0.795
 Vibration    20          0.814              1.347              0.777
 Vibration    21          0.835              1.299              0.715
 Vibration    22          0.875              1.205              0.610
 Vibration    23          0.916              1.117              0.523
 Vibration    24          0.930              1.087              0.496
 Vibration    25          0.951              1.045              0.461
 Vibration    26          0.976              0.997              0.422

 Optimization completed.
    -- Stationary point found.
 Normal termination of Gaussian 16 at Fri Dec 11 13:48:02 2020.

 ----------------------------------------------------------------------
 # B3LYP/6-311++G(d,p) empiricaldispersion=gd3bj scf=xqc pop=npa geom=c
 heck
 ----------------------------------------------------------------------

 ---------------------------------------
 CID_127897967_JID_7970_Energie_neutraal
 ---------------------------------------
 Structure from the checkpoint file:  "JID_7970.chk"
 Charge =  0 Multiplicity = 1

 SCF Done:  E(RB3LYP) =  -783.700760306     A.U. after   15 cycles
 Normal termination of Gaussian 16 at Fri Dec 11 13:54:15 2020.

 ----------------------------------------------------------------------
 # B3LYP/6-311++G(d,p) empiricaldispersion=gd3bj scf=xqc pop=npa geom=c
 heck
 ----------------------------------------------------------------------

 -------------------------------------
 CID_127897967_JID_7970_Energie_kation
 -------------------------------------
 Structure from the checkpoint file:  "JID_7970.chk"
 Charge =  1 Multiplicity = 2

 SCF Done:  E(UB3LYP) =  -783.387280746     A.U. after   33 cycles
 SCF Done:  E(UB3LYP) =  -783.387280746     a.u. after    1 cycles
 Normal termination of Gaussian 16 at Fri Dec 11 14:13:13 2020.
 Gaussian 16:  ES64L-G16RevA.03 25-Dec-2016

 ----------------------------------------------------------------------
 # B3LYP/6-311++G(d,p) empiricaldispersion=gd3bj scf=xqc pop=npa geom=c
 heck
 ----------------------------------------------------------------------

 ------------------------------------
 CID_127897967_JID_7970_Energie_anion
 ------------------------------------
 Structure from the checkpoint file:  "JID_7970.chk"
 Charge = -1 Multiplicity = 2

                         Standard orientation:
 ---------------------------------------------------------------------
 Center     Atomic      Atomic             Coordinates (Angstroms)
 Number     Number       Type             X           Y           Z
 ---------------------------------------------------------------------
      1          6           0       -2.037585    1.930736   -0.366187
      2          6           0       -3.237460    1.032960   -0.707086
      3          6           0       -2.952954   -0.401467   -0.295304
      4          6           0       -3.288644   -0.840520    1.109662
      5          6           0       -4.078077   -1.371980   -0.066706
      6          6           0       -1.656900   -0.918739   -0.889558
      7          7           0       -0.552438   -0.032181   -0.513463
      8          6           0       -0.733965    1.353430   -0.938266
      9          6           0        0.383590   -0.471728    0.371231
     10          8           0        0.382174   -1.624234    0.818581
     11          6           0        1.525080    0.477590    0.725384
     12          6           0        1.295421    1.606851    1.704676
     13          6           0        2.053798    0.382144    2.133376
     14          7           0        2.484047    0.690326   -0.317261
     15          6           0        3.308762   -0.306092   -0.838198
     16          8           0        3.998317   -0.097025   -1.827756
     17          7           0        3.329473   -1.483447   -0.121966
     18          1           0       -1.937353    2.006339    0.723959
     19          1           0       -2.186330    2.945267   -0.754885
     20          1           0       -3.425789    1.071832   -1.790475
     21          1           0       -4.143821    1.403412   -0.213935
     22          1           0       -2.594580   -1.509319    1.610459
     23          1           0       -3.775725   -0.123141    1.765415
     24          1           0       -5.095040   -1.013871   -0.205524
     25          1           0       -3.929573   -2.409303   -0.355692
     26          1           0       -1.721111   -0.939378   -1.987015
     27          1           0       -1.413360   -1.919117   -0.533872
     28          1           0        0.120520    1.949740   -0.623613
     29          1           0       -0.767287    1.372065   -2.036845
     30          1           0        1.850706    2.524463    1.531532
     31          1           0        0.285521    1.748002    2.079541
     32          1           0        1.563153   -0.329298    2.788580
     33          1           0        3.129259    0.458979    2.245089
     34          1           0        2.359399    1.461876   -0.958965
     35          1           0        2.508822   -1.765183    0.406647
     36          1           0        3.814694   -2.225295   -0.606318
 ---------------------------------------------------------------------

 SCF Done:  E(UB3LYP) =  -783.691272081     A.U. after   33 cycles
 SCF Done:  E(UB3LYP) =  -783.691272081     a.u. after    1 cycles

 The electronic state is 2-A.
 Alpha  occ. eigenvalues --  -19.00572 -18.99339 -14.25828 -14.24858 -14.23823
 Alpha  occ. eigenvalues --  -10.20914 -10.18870 -10.14574 -10.11451 -10.11306
 Alpha  occ. eigenvalues --  -10.10160 -10.09538 -10.09473 -10.08257 -10.07767
 Alpha  occ. eigenvalues --  -10.07395 -10.07321  -0.96229  -0.95472  -0.86047
 Alpha  occ. eigenvalues --   -0.85432  -0.81016  -0.77747  -0.76125  -0.69248
 Alpha  occ. eigenvalues --   -0.64689  -0.60636  -0.55724  -0.54054  -0.52782
 Alpha  occ. eigenvalues --   -0.51766  -0.51249  -0.48381  -0.46161  -0.44909
 Alpha  occ. eigenvalues --   -0.44265  -0.41718  -0.40063  -0.39205  -0.38397
 Alpha  occ. eigenvalues --   -0.38360  -0.37088  -0.35324  -0.34690  -0.33598
 Alpha  occ. eigenvalues --   -0.32705  -0.32223  -0.31831  -0.30245  -0.29456
 Alpha  occ. eigenvalues --   -0.29349  -0.27734  -0.26915  -0.25522  -0.24595
 Alpha  occ. eigenvalues --   -0.24061  -0.23580  -0.20343  -0.19971  -0.18958
 Alpha  occ. eigenvalues --   -0.18645  -0.17727  -0.16232  -0.15522   0.04165
 Alpha virt. eigenvalues --    0.06579   0.06849   0.07092   0.08099   0.08309
 Alpha virt. eigenvalues --    0.08738   0.09102   0.09502   0.09919   0.10591
 Alpha virt. eigenvalues --    0.11086   0.11365   0.11946   0.12229   0.12644

  Beta  occ. eigenvalues --  -19.00559 -18.99337 -14.25834 -14.24839 -14.23819
  Beta  occ. eigenvalues --  -10.20914 -10.18854 -10.14575 -10.11420 -10.11292
  Beta  occ. eigenvalues --  -10.10134 -10.09531 -10.09476 -10.08243 -10.07746
  Beta  occ. eigenvalues --  -10.07365 -10.07284  -0.96216  -0.95455  -0.86033
  Beta  occ. eigenvalues --   -0.85419  -0.81006  -0.77733  -0.76105  -0.69196
  Beta  occ. eigenvalues --   -0.64660  -0.60583  -0.55704  -0.54007  -0.52711
  Beta  occ. eigenvalues --   -0.51733  -0.51199  -0.48358  -0.46143  -0.44874
  Beta  occ. eigenvalues --   -0.44207  -0.41673  -0.40039  -0.39177  -0.38366
  Beta  occ. eigenvalues --   -0.38323  -0.37064  -0.35292  -0.34676  -0.33575
  Beta  occ. eigenvalues --   -0.32677  -0.32183  -0.31777  -0.30195  -0.29416
  Beta  occ. eigenvalues --   -0.29330  -0.27709  -0.26870  -0.25479  -0.24554
  Beta  occ. eigenvalues --   -0.24033  -0.23558  -0.20312  -0.19959  -0.18930
  Beta  occ. eigenvalues --   -0.18632  -0.17719  -0.16207  -0.15505
  Beta virt. eigenvalues --    0.06494   0.07039   0.07434   0.07723   0.08415
  Beta virt. eigenvalues --    0.08582   0.09126   0.09393   0.10070   0.10445
  Beta virt. eigenvalues --    0.10866   0.11428   0.11632   0.12086   0.12609

 Mulliken charges and spin densities:
               1          2
     1  C    1.408851  -1.699694
     2  C    0.201607  -0.656334
     3  C   -1.304195   2.141939
     4  C    0.902284  -1.369496
     5  C    0.300550  -0.647978
     6  C    0.769073  -1.621233
     7  N    0.317332   0.048466
     8  C   -0.471692   0.265688
     9  C   -0.201206  -0.446412
    10  O   -0.278605   0.005399
    11  C   -0.976787   0.773926
    12  C    0.713664  -0.938907
    13  C   -0.183536  -0.115900
    14  N   -0.191084   0.090236
    15  C    0.205024   0.013667
    16  O   -0.356645  -0.000698
    17  N   -0.422725   0.006041
    18  H    0.099720   0.016058
    19  H   -0.959243   1.169531
    20  H   -0.159337   0.330459
    21  H   -0.518970   0.689552
    22  H    0.199560  -0.040862
    23  H   -0.237586   0.407162
    24  H   -0.045490   0.198905
    25  H   -0.044453   0.176261
    26  H   -0.062775   0.260650
    27  H    0.233080  -0.025085
    28  H   -0.586607   0.796463
    29  H   -0.232224   0.424542
    30  H   -0.225278   0.408829
    31  H    0.015191   0.153355
    32  H    0.102027   0.091830
    33  H    0.146456   0.025042
    34  H    0.296714   0.041687
    35  H    0.266556   0.007131
    36  H    0.280750   0.019782
 Sum of Mulliken charges =  -1.00000   1.00000

 Dipole moment (field-independent basis, Debye):
    X=              3.5256    Y=             -6.6518    Z=              2.8790  Tot=              8.0601
 Quadrupole moment (field-independent basis, Debye-Ang):
   XX=           -186.7556   YY=           -153.1562   ZZ=           -143.7731
   XY=              8.8315   XZ=              9.2636   YZ=              7.6035

 Summary of Natural Population Analysis:

                                       Natural Population
                Natural  -----------------------------------------------
    Atom  No    Charge         Core      Valence    Rydberg      Total
 -----------------------------------------------------------------------
      C    1   -0.19216      0.99962     2.18289    0.00965     3.19216
      C    2   -0.18490      0.99958     2.17509    0.01022     3.18490
      C    3   -0.05257      0.99954     2.04057    0.01246     3.05257
      C    4   -0.19401      0.99958     2.18573    0.00871     3.19401
      C    5   -0.19356      0.99958     2.18547    0.00851     3.19356
      C    6   -0.08216      0.99955     2.07179    0.01082     3.08216
      N    7   -0.24253      0.99963     2.73163    0.01127     3.74253
      C    8   -0.08215      0.99960     2.07112    0.01143     3.08215
      C    9    0.34361      0.99956     1.63247    0.02436     2.65639
      O   10   -0.33969      0.99988     3.33475    0.00506     4.33969
      C   11    0.00409      0.99950     1.98156    0.01485     2.99591
      C   12   -0.18731      0.99959     2.17830    0.00941     3.18731
      C   13   -0.18763      0.99959     2.17886    0.00918     3.18763
      N   14   -0.33183      0.99964     2.82215    0.01003     3.83183
      C   15    0.40320      0.99973     1.57432    0.02275     2.59680
      O   16   -0.33823      0.99988     3.33282    0.00554     4.33823
      N   17   -0.42181      0.99971     2.91550    0.00660     3.92181
      H   18    0.09557      0.00000     0.40218    0.00225     0.40443
      H   19    0.10883      0.00000     0.38659    0.00458     0.39117
      H   20    0.09909      0.00000     0.39913    0.00178     0.40091
      H   21    0.10611      0.00000     0.39159    0.00229     0.39389
      H   22    0.10611      0.00000     0.39295    0.00094     0.39389
      H   23    0.10439      0.00000     0.39451    0.00110     0.39561
      H   24    0.10466      0.00000     0.39437    0.00097     0.39534
      H   25    0.10041      0.00000     0.39880    0.00079     0.39959
      H   26    0.09764      0.00000     0.40130    0.00106     0.40236
      H   27    0.11593      0.00000     0.38272    0.00134     0.38407
      H   28    0.10513      0.00000     0.39259    0.00228     0.39487
      H   29    0.09725      0.00000     0.40105    0.00170     0.40275
      H   30    0.11015      0.00000     0.38852    0.00134     0.38985
      H   31    0.10949      0.00000     0.38896    0.00155     0.39051
      H   32    0.11176      0.00000     0.38736    0.00088     0.38824
      H   33    0.10848      0.00000     0.39060    0.00092     0.39152
      H   34    0.20060      0.00000     0.29692    0.00248     0.29940
      H   35    0.20582      0.00000     0.29209    0.00208     0.29418
      H   36    0.19221      0.00000     0.30621    0.00159     0.30779
 =======================================================================
   * Total *   -0.00000     16.99376    46.78346    0.22279    64.00000

 Normal termination of Gaussian 16 at Fri Dec 11 14:31:19 2020.
