 Gaussian 16, Revision A.03,

 -----------------------------------------------------------
 # opt freq B3LYP/6-31G(d) empiricaldispersion=gd3bj scf=xqc
 -----------------------------------------------------------

 -------------------------------
 CID_123437452_JID_7981_neutraal
 -------------------------------
 Symbolic Z-matrix:
 Charge =  0 Multiplicity = 1

 SCF Done:  E(RB3LYP) =  -752.579752556     A.U. after   13 cycles
 SCF Done:  E(RB3LYP) =  -752.585266332     A.U. after   11 cycles
 SCF Done:  E(RB3LYP) =  -752.585805580     A.U. after   12 cycles
 SCF Done:  E(RB3LYP) =  -752.586234003     A.U. after   12 cycles
 SCF Done:  E(RB3LYP) =  -752.586459740     A.U. after   11 cycles
 SCF Done:  E(RB3LYP) =  -752.586597206     A.U. after   11 cycles
 SCF Done:  E(RB3LYP) =  -752.586662889     A.U. after   10 cycles
 SCF Done:  E(RB3LYP) =  -752.586702217     A.U. after   10 cycles
 SCF Done:  E(RB3LYP) =  -752.586765579     A.U. after   10 cycles
 SCF Done:  E(RB3LYP) =  -752.586776206     A.U. after   10 cycles
 SCF Done:  E(RB3LYP) =  -752.586786478     A.U. after    9 cycles
 SCF Done:  E(RB3LYP) =  -752.586786578     A.U. after    7 cycles
 SCF Done:  E(RB3LYP) =  -752.586786624     A.U. after    7 cycles
 SCF Done:  E(RB3LYP) =  -752.586786646     A.U. after    6 cycles
 SCF Done:  E(RB3LYP) =  -752.586786660     A.U. after    6 cycles
 Optimization completed.
    -- Stationary point found.
 Normal termination of Gaussian 16 at Fri Dec 11 13:31:20 2020.

 --------------------------------------------------------------------
 #N Geom=AllCheck Guess=TCheck SCRF=Check GenChk RB3LYP/6-31G(d) Freq
 --------------------------------------------------------------------

 Structure from the checkpoint file:  "JID_7981.chk"
 -------------------------------
 CID_123437452_JID_7981_neutraal
 -------------------------------
 Charge =  0 Multiplicity = 1

 SCF Done:  E(RB3LYP) =  -752.586786660     A.U. after    1 cycles

  Exact polarizability: 192.713  20.597 149.087 -12.915  10.938 136.761
 Approx polarizability: 244.451  41.151 226.393 -29.564  22.571 223.126

                      1                      2                      3
                      A                      A                      A
 Frequencies --     15.9344                22.3025                34.0685
 Red. masses --      3.5590                 3.7756                 3.3734
 Frc consts  --      0.0005                 0.0011                 0.0023
 IR Inten    --      0.3644                 0.2113                 0.2460

                      4                      5                      6
                      A                      A                      A
 Frequencies --     40.0439                49.6201                70.4272
 Red. masses --      3.5914                 3.5769                 3.1472
 Frc consts  --      0.0034                 0.0052                 0.0092
 IR Inten    --      0.9692                 1.0993                 0.9731

                      7                      8                      9
                      A                      A                      A
 Frequencies --    103.4765               120.9387               126.9286
 Red. masses --      2.0352                 2.3604                 1.0447
 Frc consts  --      0.0128                 0.0203                 0.0099
 IR Inten    --      0.3523                 0.2910                 0.1893

                     10                     11                     12
                      A                      A                      A
 Frequencies --    147.9046               180.0591               214.0237
 Red. masses --      2.2437                 2.8709                 2.5052
 Frc consts  --      0.0289                 0.0548                 0.0676
 IR Inten    --      1.5396                 0.5757                 1.1929

                     13                     14                     15
                      A                      A                      A
 Frequencies --    221.7914               243.8877               263.4764
 Red. masses --      1.5275                 1.4735                 2.9647
 Frc consts  --      0.0443                 0.0516                 0.1213
 IR Inten    --      0.6561                 1.9003                 4.2857

                     16                     17                     18
                      A                      A                      A
 Frequencies --    288.4096               300.4680               322.9041
 Red. masses --      2.1141                 2.1137                 2.3281
 Frc consts  --      0.1036                 0.1124                 0.1430
 IR Inten    --      0.2584                 0.2780                 4.7037

                     19                     20                     21
                      A                      A                      A
 Frequencies --    335.3716               367.0686               372.4378
 Red. masses --      2.8237                 4.2323                 3.5727
 Frc consts  --      0.1871                 0.3360                 0.2920
 IR Inten    --      1.0786                 2.3687                 0.6245

                     22                     23                     24
                      A                      A                      A
 Frequencies --    428.8737               457.9898               482.5395
 Red. masses --      2.8771                 3.0521                 2.7709
 Frc consts  --      0.3118                 0.3772                 0.3801
 IR Inten    --      4.8752                 1.6849                 4.8667

                     25                     26                     27
                      A                      A                      A
 Frequencies --    501.7727               515.0531               540.5966
 Red. masses --      3.7551                 3.8117                 2.5551
 Frc consts  --      0.5570                 0.5958                 0.4400
 IR Inten    --      5.2680                 2.7426                 2.8135

                     28                     29                     30
                      A                      A                      A
 Frequencies --    584.3334               627.9683               713.9855
 Red. masses --      4.0888                 2.6664                 4.1292
 Frc consts  --      0.8226                 0.6195                 1.2402
 IR Inten    --      2.4254                 4.6989                12.5232

                     31                     32                     33
                      A                      A                      A
 Frequencies --    731.6859               758.3026               768.1740
 Red. masses --      3.9195                 1.5130                 3.4285
 Frc consts  --      1.2363                 0.5126                 1.1920
 IR Inten    --      2.0777                50.7301                 2.7955

                     34                     35                     36
                      A                      A                      A
 Frequencies --    788.6046               793.9994               829.4219
 Red. masses --      1.3127                 1.4313                 1.5149
 Frc consts  --      0.4810                 0.5316                 0.6140
 IR Inten    --      6.3691                 3.0689                18.1960

                     37                     38                     39
                      A                      A                      A
 Frequencies --    870.5424               880.1040               898.7432
 Red. masses --      2.7158                 1.9860                 1.7658
 Frc consts  --      1.2126                 0.9063                 0.8404
 IR Inten    --      6.1098                 2.0950                19.5752

                     40                     41                     42
                      A                      A                      A
 Frequencies --    905.5632               928.3318               931.8177
 Red. masses --      1.5076                 1.3264                 1.3175
 Frc consts  --      0.7284                 0.6735                 0.6740
 IR Inten    --     12.9673                 0.7274                 1.6460

                     43                     44                     45
                      A                      A                      A
 Frequencies --    944.2960               970.5783              1005.0599
 Red. masses --      2.0822                 2.6519                 2.4368
 Frc consts  --      1.0939                 1.4719                 1.4503
 IR Inten    --     10.0623                13.6308                51.5836

                     46                     47                     48
                      A                      A                      A
 Frequencies --   1026.2653              1052.6289              1070.8755
 Red. masses --      1.5785                 2.1554                 2.8408
 Frc consts  --      0.9795                 1.4071                 1.9194
 IR Inten    --      9.6570                13.0723               110.6501

                     49                     50                     51
                      A                      A                      A
 Frequencies --   1075.3817              1086.0333              1094.8436
 Red. masses --      1.5013                 2.8982                 1.8364
 Frc consts  --      1.0229                 2.0140                 1.2970
 IR Inten    --     12.3241                50.6538                 9.5750

                     52                     53                     54
                      A                      A                      A
 Frequencies --   1124.7037              1126.0975              1151.2754
 Red. masses --      2.1944                 1.9928                 1.7136
 Frc consts  --      1.6354                 1.4889                 1.3382
 IR Inten    --      1.5580                 4.3146                13.6526

                     55                     56                     57
                      A                      A                      A
 Frequencies --   1178.8171              1183.1877              1191.2453
 Red. masses --      2.6929                 1.9342                 1.6396
 Frc consts  --      2.2048                 1.5954                 1.3708
 IR Inten    --     36.8898                 5.3685                52.7665

                     58                     59                     60
                      A                      A                      A
 Frequencies --   1205.6226              1244.6033              1269.2156
 Red. masses --      1.7679                 2.7789                 1.2553
 Frc consts  --      1.5140                 2.5362                 1.1914
 IR Inten    --      3.7226               324.8588                10.6241

                     61                     62                     63
                      A                      A                      A
 Frequencies --   1288.7229              1303.6255              1310.5821
 Red. masses --      1.8020                 1.3498                 1.3133
 Frc consts  --      1.7633                 1.3515                 1.3291
 IR Inten    --     29.6210                19.0853                 5.4885

                     64                     65                     66
                      A                      A                      A
 Frequencies --   1318.7288              1327.8481              1349.3516
 Red. masses --      1.5169                 2.0724                 2.3690
 Frc consts  --      1.5543                 2.1529                 2.5414
 IR Inten    --     23.9596                 7.1400                29.3589

                     67                     68                     69
                      A                      A                      A
 Frequencies --   1362.2008              1393.9907              1402.8087
 Red. masses --      1.2646                 1.2765                 1.3945
 Frc consts  --      1.3826                 1.4615                 1.6169
 IR Inten    --     11.4943                13.4623                 0.8086

                     70                     71                     72
                      A                      A                      A
 Frequencies --   1411.5337              1426.3844              1429.2697
 Red. masses --      1.3060                 1.2945                 1.3607
 Frc consts  --      1.5332                 1.5518                 1.6377
 IR Inten    --      4.6850                 9.5241                13.2992

                     73                     74                     75
                      A                      A                      A
 Frequencies --   1437.2294              1443.8421              1450.7772
 Red. masses --      1.2678                 1.2500                 1.2954
 Frc consts  --      1.5430                 1.5353                 1.6064
 IR Inten    --     11.3227                 1.7397                11.0056

                     76                     77                     78
                      A                      A                      A
 Frequencies --   1461.2527              1505.0094              1508.9786
 Red. masses --      2.9130                 1.0649                 1.0627
 Frc consts  --      3.6647                 1.4212                 1.4257
 IR Inten    --     14.1185                 3.2939                 5.5860

                     79                     80                     81
                      A                      A                      A
 Frequencies --   1510.9306              1517.7336              1519.6977
 Red. masses --      1.0563                 1.2477                 1.1754
 Frc consts  --      1.4208                 1.6934                 1.5993
 IR Inten    --      0.4871                19.5206                 3.2425

                     82                     83                     84
                      A                      A                      A
 Frequencies --   1520.9925              1524.3973              1529.6255
 Red. masses --      1.0744                 1.0695                 1.0835
 Frc consts  --      1.4644                 1.4643                 1.4937
 IR Inten    --      9.8452                 5.0988                 0.1555

                     85                     86                     87
                      A                      A                      A
 Frequencies --   1531.6665              1533.0725              1537.3856
 Red. masses --      1.1224                 1.0858                 1.0526
 Frc consts  --      1.5514                 1.5036                 1.4657
 IR Inten    --      3.5177                 4.9993                13.5974

                     88                     89                     90
                      A                      A                      A
 Frequencies --   1546.8184              1550.8480              1636.6493
 Red. masses --      1.1276                 2.0784                 7.1179
 Frc consts  --      1.5895                 2.9453                11.2334
 IR Inten    --     24.3928               216.0286                 4.1076

                     91                     92                     93
                      A                      A                      A
 Frequencies --   1667.9804              2965.1191              3035.4487
 Red. masses --      6.0711                 1.0701                 1.0631
 Frc consts  --      9.9518                 5.5433                 5.7715
 IR Inten    --      4.9799                43.0887                33.2642

                     94                     95                     96
                      A                      A                      A
 Frequencies --   3035.9305              3038.2963              3044.4932
 Red. masses --      1.0688                 1.0730                 1.0366
 Frc consts  --      5.8038                 5.8358                 5.6610
 IR Inten    --     19.1626                53.4360                10.3340

                     97                     98                     99
                      A                      A                      A
 Frequencies --   3050.1109              3051.4408              3053.9985
 Red. masses --      1.0724                 1.0366                 1.0384
 Frc consts  --      5.8783                 5.6866                 5.7060
 IR Inten    --     84.7544                16.9565                20.2607

                    100                    101                    102
                      A                      A                      A
 Frequencies --   3061.5329              3071.1640              3079.4175
 Red. masses --      1.0650                 1.1045                 1.0925
 Frc consts  --      5.8811                 6.1378                 6.1042
 IR Inten    --     24.1321                19.0591                37.1909

                    103                    104                    105
                      A                      A                      A
 Frequencies --   3103.6954              3109.9991              3112.6346
 Red. masses --      1.1002                 1.1022                 1.1055
 Frc consts  --      6.2440                 6.2812                 6.3104
 IR Inten    --     18.3384                54.7366                29.3751

                    106                    107                    108
                      A                      A                      A
 Frequencies --   3117.5490              3119.6785              3125.5490
 Red. masses --      1.1033                 1.1022                 1.0998
 Frc consts  --      6.3178                 6.3200                 6.3301
 IR Inten    --     55.5492                39.7353                49.0909

                    109                    110                    111
                      A                      A                      A
 Frequencies --   3134.0685              3138.0159              3203.6780
 Red. masses --      1.1027                 1.1005                 1.0878
 Frc consts  --      6.3815                 6.3848                 6.5783
 IR Inten    --     20.4075                33.7211                18.1535

                    112                    113                    114
                      A                      A                      A
 Frequencies --   3205.2110              3219.4522              3520.1100
 Red. masses --      1.0901                 1.0940                 1.0731
 Frc consts  --      6.5983                 6.6810                 7.8344
 IR Inten    --      2.8867                 8.9270                11.9699

 - Thermochemistry -
 -------------------
 Temperature   298.150 Kelvin.  Pressure   1.00000 Atm.
 Atom     1 has atomic number  6 and mass  12.00000

 Molecular mass:   237.17288 amu.
 Principal axes and moments of inertia in atomic units:
                           1         2         3
     Eigenvalues --  2259.920377111.779127924.42301
           X            0.99989  -0.01456   0.00221
           Y            0.01445   0.99885   0.04577
           Z           -0.00287  -0.04573   0.99895
 This molecule is an asymmetric top.
 Rotational symmetry number  1.
 Warning -- assumption of classical behavior for rotation
           may cause significant error
 Rotational temperatures (Kelvin)      0.03833     0.01218     0.01093
 Rotational constants (GHZ):           0.79859     0.25377     0.22774
 Zero-point vibrational energy     930917.2 (Joules/Mol)
                                  222.49455 (Kcal/Mol)
 Warning -- explicit consideration of  28 degrees of freedom as
           vibrations may cause significant error
 Vibrational temperatures:     22.93    32.09    49.02    57.61    71.39
          (Kelvin)            101.33   148.88   174.00   182.62   212.80
                              259.06   307.93   319.11   350.90   379.08
                              414.96   432.31   464.59   482.52   528.13
                              535.85   617.05   658.95   694.27   721.94
                              741.05   777.80   840.73   903.51  1027.27
                             1052.73  1091.03  1105.23  1134.63  1142.39
                             1193.35  1252.52  1266.27  1293.09  1302.90
                             1335.66  1340.68  1358.63  1396.45  1446.06
                             1476.57  1514.50  1540.75  1547.23  1562.56
                             1575.24  1618.20  1620.20  1656.43  1696.05
                             1702.34  1713.94  1734.62  1790.71  1826.12
                             1854.18  1875.63  1885.64  1897.36  1910.48
                             1941.42  1959.90  2005.64  2018.33  2030.88
                             2052.25  2056.40  2067.85  2077.37  2087.34
                             2102.42  2165.37  2171.08  2173.89  2183.68
                             2186.51  2188.37  2193.27  2200.79  2203.73
                             2205.75  2211.95  2225.53  2231.32  2354.77
                             2399.85  4266.15  4367.33  4368.03  4371.43
                             4380.35  4388.43  4390.34  4394.02  4404.86
                             4418.72  4430.60  4465.53  4474.60  4478.39
                             4485.46  4488.52  4496.97  4509.23  4514.90
                             4609.38  4611.58  4632.07  5064.65

 Zero-point correction=                           0.354568 (Hartree/Particle)
 Thermal correction to Energy=                    0.373551
 Thermal correction to Enthalpy=                  0.374495
 Thermal correction to Gibbs Free Energy=         0.304453
 Sum of electronic and zero-point Energies=           -752.232219
 Sum of electronic and thermal Energies=              -752.213236
 Sum of electronic and thermal Enthalpies=            -752.212292
 Sum of electronic and thermal Free Energies=         -752.282334

                     E (Thermal)             CV                S
                      KCal/Mol        Cal/Mol-Kelvin    Cal/Mol-Kelvin
 Total                  234.407             69.683            147.416
 Electronic               0.000              0.000              0.000
 Translational            0.889              2.981             42.292
 Rotational               0.889              2.981             33.210
 Vibrational            232.629             63.722             71.914
 Vibration     1          0.593              1.986              7.086
 Vibration     2          0.593              1.985              6.418
 Vibration     3          0.594              1.983              5.577
 Vibration     4          0.594              1.981              5.257
 Vibration     5          0.595              1.978              4.832
 Vibration     6          0.598              1.968              4.141
 Vibration     7          0.605              1.946              3.388
 Vibration     8          0.609              1.932              3.085
 Vibration     9          0.611              1.926              2.992
 Vibration    10          0.617              1.905              2.699
 Vibration    11          0.629              1.867              2.328
 Vibration    12          0.644              1.820              2.009
 Vibration    13          0.648              1.808              1.944
 Vibration    14          0.659              1.773              1.774
 Vibration    15          0.670              1.740              1.639
 Vibration    16          0.685              1.695              1.483
 Vibration    17          0.693              1.673              1.414
 Vibration    18          0.708              1.630              1.295
 Vibration    19          0.716              1.605              1.234
 Vibration    20          0.740              1.540              1.092
 Vibration    21          0.744              1.529              1.070
 Vibration    22          0.790              1.407              0.862
 Vibration    23          0.816              1.343              0.772
 Vibration    24          0.839              1.289              0.703
 Vibration    25          0.857              1.246              0.654
 Vibration    26          0.870              1.217              0.622
 Vibration    27          0.896              1.160              0.564
 Vibration    28          0.941              1.065              0.477

 Optimization completed on the basis of negligible forces.
    -- Stationary point found.
 Normal termination of Gaussian 16 at Fri Dec 11 13:45:53 2020.

 ----------------------------------------------------------------------
 # B3LYP/6-311++G(d,p) empiricaldispersion=gd3bj scf=xqc pop=npa geom=c
 heck
 ----------------------------------------------------------------------

 ---------------------------------------
 CID_123437452_JID_7981_Energie_neutraal
 ---------------------------------------
 Structure from the checkpoint file:  "JID_7981.chk"
 Charge =  0 Multiplicity = 1

 SCF Done:  E(RB3LYP) =  -752.797280607     A.U. after   15 cycles
 Normal termination of Gaussian 16 at Fri Dec 11 13:52:37 2020.

 ----------------------------------------------------------------------
 # B3LYP/6-311++G(d,p) empiricaldispersion=gd3bj scf=xqc pop=npa geom=c
 heck
 ----------------------------------------------------------------------

 -------------------------------------
 CID_123437452_JID_7981_Energie_kation
 -------------------------------------
 Structure from the checkpoint file:  "JID_7981.chk"
 Charge =  1 Multiplicity = 2

 SCF Done:  E(UB3LYP) =  -752.523383875     A.U. after   22 cycles
 Normal termination of Gaussian 16 at Fri Dec 11 14:06:01 2020.
 Gaussian 16:  ES64L-G16RevA.03 25-Dec-2016

 ----------------------------------------------------------------------
 # B3LYP/6-311++G(d,p) empiricaldispersion=gd3bj scf=xqc pop=npa geom=c
 heck
 ----------------------------------------------------------------------

 ------------------------------------
 CID_123437452_JID_7981_Energie_anion
 ------------------------------------
 Structure from the checkpoint file:  "JID_7981.chk"
 Charge = -1 Multiplicity = 2

                         Standard orientation:
 ---------------------------------------------------------------------
 Center     Atomic      Atomic             Coordinates (Angstroms)
 Number     Number       Type             X           Y           Z
 ---------------------------------------------------------------------
      1          6           0        4.255624   -0.975277    0.762818
      2          6           0        4.683529    0.140623   -0.194283
      3          6           0        3.653655    0.464141   -1.273587
      4          8           0        2.461941    1.030974   -0.716989
      5          6           0        1.421680    0.209133   -0.355358
      6          6           0        0.759331    0.538517    0.842341
      7          6           0       -0.344204   -0.226261    1.221962
      8          6           0       -0.786418   -1.301337    0.446590
      9          6           0       -0.116571   -1.623574   -0.733810
     10          6           0        0.977784   -0.858774   -1.138840
     11          8           0       -1.873062   -2.026995    0.886771
     12          6           0       -3.058664   -1.939652    0.079763
     13          6           0       -3.664576   -0.538291    0.044122
     14          7           0       -3.056319    0.298982   -0.987698
     15          6           0       -3.483025    1.697546   -0.958462
     16          6           0       -2.990902    2.519813    0.242287
     17          6           0        1.241823    1.697641    1.673977
     18          1           0        4.019364   -1.896572    0.217289
     19          1           0        3.365233   -0.695076    1.333036
     20          1           0        5.054391   -1.202323    1.477116
     21          1           0        4.895150    1.058984    0.367516
     22          1           0        5.616925   -0.141122   -0.701823
     23          1           0        4.042477    1.224923   -1.957308
     24          1           0        3.423240   -0.430270   -1.863416
     25          1           0       -0.882770    0.007546    2.135233
     26          1           0       -0.458109   -2.456223   -1.340253
     27          1           0        1.474829   -1.095037   -2.073398
     28          1           0       -2.858218   -2.280524   -0.944639
     29          1           0       -3.753224   -2.639490    0.551259
     30          1           0       -4.734328   -0.628761   -0.192074
     31          1           0       -3.600595   -0.127408    1.067707
     32          1           0       -2.043652    0.266012   -0.897814
     33          1           0       -3.132032    2.169137   -1.885154
     34          1           0       -4.580414    1.713008   -0.998871
     35          1           0       -1.894931    2.516344    0.285650
     36          1           0       -3.324449    3.561686    0.167336
     37          1           0       -3.363019    2.118187    1.191006
     38          1           0        0.637825    1.805446    2.579377
     39          1           0        2.289233    1.563928    1.968590
     40          1           0        1.195879    2.637415    1.112142
 ---------------------------------------------------------------------

 SCF Done:  E(UB3LYP) =  -752.782616574     A.U. after   33 cycles
 SCF Done:  E(UB3LYP) =  -752.782616575     a.u. after    1 cycles

 The electronic state is 2-A.
 Alpha  occ. eigenvalues --  -19.05191 -19.05059 -14.20507 -10.14094 -10.13700
 Alpha  occ. eigenvalues --  -10.13672 -10.12968 -10.10643 -10.10300 -10.09601
 Alpha  occ. eigenvalues --  -10.08896 -10.08832 -10.08476 -10.07795 -10.07687
 Alpha  occ. eigenvalues --  -10.06858 -10.06700  -0.96792  -0.96655  -0.81646
 Alpha  occ. eigenvalues --   -0.77048  -0.70004  -0.68727  -0.67840  -0.65245
 Alpha  occ. eigenvalues --   -0.62220  -0.60758  -0.58862  -0.54788  -0.53125
 Alpha  occ. eigenvalues --   -0.51580  -0.49819  -0.48170  -0.44342  -0.42558
 Alpha  occ. eigenvalues --   -0.41412  -0.40138  -0.38960  -0.38604  -0.36375
 Alpha  occ. eigenvalues --   -0.36063  -0.34716  -0.34126  -0.33631  -0.33097
 Alpha  occ. eigenvalues --   -0.32545  -0.32167  -0.31909  -0.30675  -0.29770
 Alpha  occ. eigenvalues --   -0.29269  -0.29124  -0.28027  -0.27914  -0.27116
 Alpha  occ. eigenvalues --   -0.26289  -0.25599  -0.25130  -0.24633  -0.23307
 Alpha  occ. eigenvalues --   -0.21308  -0.18956  -0.16728  -0.13840  -0.12663
 Alpha  occ. eigenvalues --    0.04101
 Alpha virt. eigenvalues --    0.05476   0.06245   0.06649   0.07170   0.07339
 Alpha virt. eigenvalues --    0.07769   0.08020   0.08429   0.08995   0.09351
 Alpha virt. eigenvalues --    0.09886   0.10053   0.10519   0.10586   0.10910

  Beta  occ. eigenvalues --  -19.05186 -19.05057 -14.20505 -10.14094 -10.13690
  Beta  occ. eigenvalues --  -10.13671 -10.12944 -10.10628 -10.10288 -10.09600
  Beta  occ. eigenvalues --  -10.08886 -10.08825 -10.08471 -10.07778 -10.07660
  Beta  occ. eigenvalues --  -10.06835 -10.06679  -0.96783  -0.96648  -0.81634
  Beta  occ. eigenvalues --   -0.77039  -0.69974  -0.68705  -0.67818  -0.65224
  Beta  occ. eigenvalues --   -0.62192  -0.60728  -0.58827  -0.54753  -0.53088
  Beta  occ. eigenvalues --   -0.51534  -0.49768  -0.48139  -0.44316  -0.42538
  Beta  occ. eigenvalues --   -0.41398  -0.40118  -0.38928  -0.38568  -0.36354
  Beta  occ. eigenvalues --   -0.36039  -0.34691  -0.34102  -0.33608  -0.33073
  Beta  occ. eigenvalues --   -0.32518  -0.32140  -0.31887  -0.30644  -0.29744
  Beta  occ. eigenvalues --   -0.29246  -0.29100  -0.28003  -0.27886  -0.27087
  Beta  occ. eigenvalues --   -0.26246  -0.25571  -0.25102  -0.24611  -0.23284
  Beta  occ. eigenvalues --   -0.21283  -0.18937  -0.16717  -0.13831  -0.12654
  Beta virt. eigenvalues --    0.05939   0.06487   0.06740   0.06875   0.07410
  Beta virt. eigenvalues --    0.07834   0.08235   0.08339   0.08611   0.09313
  Beta virt. eigenvalues --    0.09523   0.10169   0.10471   0.10702   0.10888

 Mulliken charges and spin densities:
               1          2
     1  C   -0.033545  -0.470157
     2  C    0.578230  -0.887714
     3  C    0.237993  -0.374450
     4  O   -0.092333   0.023660
     5  C   -0.421274  -0.406111
     6  C   -0.888802   1.744490
     7  C   -0.475117   0.514985
     8  C   -0.695231  -0.436806
     9  C    0.624732  -0.322624
    10  C    1.731893  -1.576696
    11  O   -0.032886   0.000207
    12  C    0.139477  -0.428883
    13  C    0.010322  -0.394693
    14  N   -0.029960   0.008573
    15  C   -0.514046   0.234377
    16  C    0.110864  -0.560480
    17  C    0.354669  -0.910472
    18  H    0.029503   0.115811
    19  H    0.043904   0.084145
    20  H   -0.138711   0.287160
    21  H    0.132863   0.021261
    22  H   -0.609175   0.759690
    23  H   -0.527335   0.707738
    24  H   -0.107468   0.216725
    25  H   -0.005621   0.211396
    26  H   -0.085453   0.260957
    27  H   -0.364808   0.567530
    28  H    0.143022   0.005196
    29  H   -0.186291   0.352891
    30  H   -0.244208   0.402575
    31  H    0.144189  -0.029897
    32  H    0.490208  -0.232078
    33  H   -0.119850   0.284259
    34  H   -0.019434   0.124902
    35  H    0.436580  -0.289986
    36  H   -0.355772   0.503446
    37  H   -0.136687   0.274448
    38  H   -0.075962   0.209106
    39  H    0.048415   0.110438
    40  H   -0.096893   0.295081
 Sum of Mulliken charges =  -1.00000   1.00000

 Dipole moment (field-independent basis, Debye):
    X=             -3.5723    Y=             -1.2992    Z=              1.6359  Tot=              4.1383
 Quadrupole moment (field-independent basis, Debye-Ang):
   XX=           -215.2392   YY=           -153.1767   ZZ=           -145.6205
   XY=              6.9107   XZ=              9.6103   YZ=              1.2384

 Summary of Natural Population Analysis:

                                       Natural Population
                Natural  -----------------------------------------------
    Atom  No    Charge         Core      Valence    Rydberg      Total
 -----------------------------------------------------------------------
      C    1   -0.28878      0.99966     2.28343    0.00569     3.28878
      C    2   -0.20119      0.99964     2.19354    0.00802     3.20119
      C    3   -0.00490      0.99954     1.99310    0.01226     3.00490
      O    4   -0.28776      0.99986     3.27757    0.01033     4.28776
      C    5    0.15421      0.99932     1.83262    0.01386     2.84579
      C    6   -0.03025      0.99948     2.02154    0.00923     3.03025
      C    7   -0.11518      0.99947     2.10671    0.00901     3.11518
      C    8    0.13616      0.99936     1.85047    0.01401     2.86384
      C    9   -0.12147      0.99951     2.11291    0.00905     3.12147
      C   10   -0.12289      0.99952     2.11448    0.00890     3.12289
      O   11   -0.29266      0.99986     3.28320    0.00959     4.29266
      C   12   -0.01123      0.99955     1.99932    0.01236     3.01123
      C   13   -0.10521      0.99962     2.09491    0.01068     3.10521
      N   14   -0.34321      0.99975     2.83281    0.01065     3.84321
      C   15   -0.08675      0.99965     2.07596    0.01114     3.08675
      C   16   -0.29744      0.99967     2.29321    0.00456     3.29744
      C   17   -0.29253      0.99963     2.28666    0.00623     3.29253
      H   18    0.09805      0.00000     0.40090    0.00106     0.40195
      H   19    0.09964      0.00000     0.39902    0.00133     0.40036
      H   20    0.09937      0.00000     0.39974    0.00089     0.40063
      H   21    0.09649      0.00000     0.40227    0.00124     0.40351
      H   22    0.10041      0.00000     0.39722    0.00237     0.39959
      H   23    0.09287      0.00000     0.40549    0.00164     0.40713
      H   24    0.08252      0.00000     0.41540    0.00207     0.41748
      H   25    0.10561      0.00000     0.39292    0.00147     0.39439
      H   26    0.10543      0.00000     0.39346    0.00111     0.39457
      H   27    0.10607      0.00000     0.39269    0.00125     0.39393
      H   28    0.08496      0.00000     0.41358    0.00146     0.41504
      H   29    0.09238      0.00000     0.40659    0.00103     0.40762
      H   30    0.09443      0.00000     0.40410    0.00147     0.40557
      H   31    0.08516      0.00000     0.41324    0.00160     0.41484
      H   32    0.17755      0.00000     0.31764    0.00481     0.32245
      H   33    0.09165      0.00000     0.40741    0.00094     0.40835
      H   34    0.08783      0.00000     0.41101    0.00117     0.41217
      H   35    0.09898      0.00000     0.39968    0.00133     0.40102
      H   36    0.09908      0.00000     0.39972    0.00120     0.40092
      H   37    0.09609      0.00000     0.40274    0.00117     0.40391
      H   38    0.10007      0.00000     0.39911    0.00082     0.39993
      H   39    0.10721      0.00000     0.39165    0.00114     0.39279
      H   40    0.10923      0.00000     0.38964    0.00113     0.39077
 =======================================================================
   * Total *    0.00000     16.99308    47.80768    0.19924    65.00000

 Normal termination of Gaussian 16 at Fri Dec 11 14:26:50 2020.
