 Gaussian 16, Revision A.03,

 -----------------------------------------------------------
 # opt freq B3LYP/6-31G(d) empiricaldispersion=gd3bj scf=xqc
 -----------------------------------------------------------

 ------------------------------
 CID_76845625_JID_7029_neutraal
 ------------------------------
 Symbolic Z-matrix:
 Charge =  0 Multiplicity = 1

 SCF Done:  E(RB3LYP) =  -819.535197902     A.U. after   15 cycles
 SCF Done:  E(RB3LYP) =  -819.539697716     A.U. after   13 cycles
 SCF Done:  E(RB3LYP) =  -819.539171306     A.U. after   13 cycles
 SCF Done:  E(RB3LYP) =  -819.540681919     A.U. after   13 cycles
 SCF Done:  E(RB3LYP) =  -819.540954143     A.U. after   11 cycles
 SCF Done:  E(RB3LYP) =  -819.541076779     A.U. after   12 cycles
 SCF Done:  E(RB3LYP) =  -819.541090187     A.U. after    9 cycles
 SCF Done:  E(RB3LYP) =  -819.541099732     A.U. after    9 cycles
 SCF Done:  E(RB3LYP) =  -819.541103588     A.U. after   10 cycles
 SCF Done:  E(RB3LYP) =  -819.541103990     A.U. after    8 cycles
 SCF Done:  E(RB3LYP) =  -819.541104448     A.U. after    9 cycles
 SCF Done:  E(RB3LYP) =  -819.541104612     A.U. after    8 cycles
 SCF Done:  E(RB3LYP) =  -819.541104639     A.U. after    7 cycles
 SCF Done:  E(RB3LYP) =  -819.541104652     A.U. after    7 cycles
 SCF Done:  E(RB3LYP) =  -819.541104658     A.U. after    7 cycles
 Optimization completed.
    -- Stationary point found.
 Normal termination of Gaussian 16 at Fri Dec 11 11:48:12 2020.

 --------------------------------------------------------------------
 #N Geom=AllCheck Guess=TCheck SCRF=Check GenChk RB3LYP/6-31G(d) Freq
 --------------------------------------------------------------------

 Structure from the checkpoint file:  "JID_7029.chk"
 ------------------------------
 CID_76845625_JID_7029_neutraal
 ------------------------------
 Charge =  0 Multiplicity = 1

 SCF Done:  E(RB3LYP) =  -819.541104658     A.U. after    1 cycles

  Exact polarizability: 240.801   6.076 148.006   4.658   0.436  68.222
 Approx polarizability: 345.643   4.659 276.576   9.464  -0.084 107.384

                      1                      2                      3
                      A                      A                      A
 Frequencies --     23.9122                30.9880                75.6184
 Red. masses --      6.3114                 4.8122                 2.4886
 Frc consts  --      0.0021                 0.0027                 0.0084
 IR Inten    --      2.6008                 0.3497                 2.4224

                      4                      5                      6
                      A                      A                      A
 Frequencies --     90.8835               111.2733               126.4868
 Red. masses --      3.7396                 3.1303                 4.4061
 Frc consts  --      0.0182                 0.0228                 0.0415
 IR Inten    --      0.6378                 1.9018                 2.1838

                      7                      8                      9
                      A                      A                      A
 Frequencies --    138.0334               160.1795               172.8087
 Red. masses --      1.1736                 3.9784                 3.8643
 Frc consts  --      0.0132                 0.0601                 0.0680
 IR Inten    --      0.7498                 1.0596                 8.7424

                     10                     11                     12
                      A                      A                      A
 Frequencies --    195.9947               242.8992               249.8476
 Red. masses --      1.9615                 3.1329                 5.2890
 Frc consts  --      0.0444                 0.1089                 0.1945
 IR Inten    --      1.2923                 4.8656                 0.7510

                     13                     14                     15
                      A                      A                      A
 Frequencies --    281.6102               318.4376               325.4940
 Red. masses --      7.2512                 4.7920                 4.3778
 Frc consts  --      0.3388                 0.2863                 0.2733
 IR Inten    --      0.9667                21.3935                 1.0380

                     16                     17                     18
                      A                      A                      A
 Frequencies --    383.1006               409.0971               448.0490
 Red. masses --      4.4216                 6.3343                 4.0416
 Frc consts  --      0.3823                 0.6246                 0.4780
 IR Inten    --      0.1762                 3.6783                 3.7985

                     19                     20                     21
                      A                      A                      A
 Frequencies --    466.6179               515.5158               527.6608
 Red. masses --      4.1873                 6.6649                 7.8153
 Frc consts  --      0.5372                 1.0436                 1.2821
 IR Inten    --     10.5093                 1.1002                 3.2368

                     22                     23                     24
                      A                      A                      A
 Frequencies --    547.2977               579.6169               607.2232
 Red. masses --      9.0696                 3.9608                 5.7555
 Frc consts  --      1.6006                 0.7840                 1.2503
 IR Inten    --      8.3569                 2.1298                 4.5543

                     25                     26                     27
                      A                      A                      A
 Frequencies --    674.7082               741.2363               760.7834
 Red. masses --      4.6433                 4.3166                 2.4840
 Frc consts  --      1.2454                 1.3974                 0.8471
 IR Inten    --      5.3473                11.1709                 2.4043

                     28                     29                     30
                      A                      A                      A
 Frequencies --    785.9176               799.4237               832.7508
 Red. masses --      4.3955                 4.9589                 2.8846
 Frc consts  --      1.5996                 1.8672                 1.1786
 IR Inten    --      5.8663                 8.8060                18.7067

                     31                     32                     33
                      A                      A                      A
 Frequencies --    855.3246               891.1334               920.2114
 Red. masses --      5.2919                 2.4323                 1.8387
 Frc consts  --      2.2810                 1.1380                 0.9173
 IR Inten    --     15.4123                 8.5168                26.5632

                     34                     35                     36
                      A                      A                      A
 Frequencies --    942.2201               969.4303               993.8441
 Red. masses --      5.6026                 1.9032                 2.8077
 Frc consts  --      2.9305                 1.0538                 1.6339
 IR Inten    --     11.3331                11.1645                41.9212

                     37                     38                     39
                      A                      A                      A
 Frequencies --   1015.1221              1028.5119              1078.2018
 Red. masses --      1.3210                 6.4636                 4.0857
 Frc consts  --      0.8020                 4.0285                 2.7984
 IR Inten    --      3.1947                19.8380                19.3740

                     40                     41                     42
                      A                      A                      A
 Frequencies --   1093.7101              1129.7370              1150.1161
 Red. masses --      2.2030                 2.6199                 5.2385
 Frc consts  --      1.5526                 1.9701                 4.0826
 IR Inten    --     36.5160                96.0845               188.3325

                     43                     44                     45
                      A                      A                      A
 Frequencies --   1169.6306              1187.0861              1189.5910
 Red. masses --      1.1747                 1.2729                 1.2717
 Frc consts  --      0.9469                 1.0568                 1.0603
 IR Inten    --     18.0313                 0.8542                 3.3005

                     46                     47                     48
                      A                      A                      A
 Frequencies --   1215.8173              1222.6773              1242.0886
 Red. masses --      1.4287                 1.5711                 3.5976
 Frc consts  --      1.2443                 1.3838                 3.2701
 IR Inten    --     33.9308                 9.6217               204.4791

                     49                     50                     51
                      A                      A                      A
 Frequencies --   1276.5426              1286.8519              1339.7236
 Red. masses --      2.3581                 1.7723                 1.2702
 Frc consts  --      2.2641                 1.7292                 1.3433
 IR Inten    --    412.6431                14.8892                67.6258

                     52                     53                     54
                      A                      A                      A
 Frequencies --   1357.2732              1393.3344              1417.7140
 Red. masses --      1.9990                 2.7417                 2.8602
 Frc consts  --      2.1697                 3.1360                 3.3871
 IR Inten    --      3.1189                 8.0546                11.3256

                     55                     56                     57
                      A                      A                      A
 Frequencies --   1451.3263              1493.0659              1498.9660
 Red. masses --      3.4372                 1.2146                 1.1256
 Frc consts  --      4.2657                 1.5953                 1.4901
 IR Inten    --      4.7021                 4.5568                 3.2198

                     58                     59                     60
                      A                      A                      A
 Frequencies --   1512.2060              1520.3038              1524.5151
 Red. masses --      1.0476                 1.0704                 1.0483
 Frc consts  --      1.4115                 1.4577                 1.4355
 IR Inten    --      6.2793                10.3573                11.8878

                     61                     62                     63
                      A                      A                      A
 Frequencies --   1536.7372              1587.6283              1632.7368
 Red. masses --      1.0541                 8.5296                 8.7477
 Frc consts  --      1.4667                12.6670                13.7397
 IR Inten    --     13.3260               210.6982                52.7341

                     64                     65                     66
                      A                      A                      A
 Frequencies --   1654.5852              1708.5940              1754.2457
 Red. masses --      9.0206                 8.0430                10.0817
 Frc consts  --     14.5500                13.8340                18.2796
 IR Inten    --     77.7854                97.6943               195.4931

                     67                     68                     69
                      A                      A                      A
 Frequencies --   1826.4750              2886.9950              3006.0047
 Red. masses --     11.9298                 1.0767                 1.0387
 Frc consts  --     23.4483                 5.2874                 5.5301
 IR Inten    --    181.4694                20.4849                63.5285

                     70                     71                     72
                      A                      A                      A
 Frequencies --   3060.8922              3076.4162              3150.8543
 Red. masses --      1.1026                 1.0296                 1.1075
 Frc consts  --      6.0862                 5.7412                 6.4782
 IR Inten    --     46.2064                39.0131                19.9426

                     73                     74                     75
                      A                      A                      A
 Frequencies --   3151.7696              3185.3184              3199.9837
 Red. masses --      1.0978                 1.1071                 1.0894
 Frc consts  --      6.4252                 6.6183                 6.5727
 IR Inten    --     27.6120                16.1098                 2.1367

                     76                     77                     78
                      A                      A                      A
 Frequencies --   3207.5095              3226.2921              3257.5317
 Red. masses --      1.0870                 1.0976                 1.0919
 Frc consts  --      6.5889                 6.7314                 6.8267
 IR Inten    --      1.4758                 7.4900                 0.2068

 - Thermochemistry -
 -------------------
 Temperature   298.150 Kelvin.  Pressure   1.00000 Atm.
 Atom     1 has atomic number  6 and mass  12.00000

 Molecular mass:   233.06881 amu.
 Principal axes and moments of inertia in atomic units:
                           1         2         3
     Eigenvalues --  1433.488457926.807409260.88353
           X            1.00000   0.00117   0.00279
           Y           -0.00117   1.00000   0.00237
           Z           -0.00279  -0.00237   0.99999
 This molecule is an asymmetric top.
 Rotational symmetry number  1.
 Warning -- assumption of classical behavior for rotation
           may cause significant error
 Rotational temperatures (Kelvin)      0.06042     0.01093     0.00935
 Rotational constants (GHZ):           1.25899     0.22768     0.19488
 Zero-point vibrational energy     562844.9 (Joules/Mol)
                                  134.52315 (Kcal/Mol)
 Warning -- explicit consideration of  24 degrees of freedom as
           vibrations may cause significant error
 Vibrational temperatures:     34.40    44.58   108.80   130.76   160.10
          (Kelvin)            181.99   198.60   230.46   248.63   281.99
                              349.48   359.48   405.17   458.16   468.31
                              551.20   588.60   644.64   671.36   741.71
                              759.19   787.44   833.94   873.66   970.75
                             1066.47  1094.60  1130.76  1150.19  1198.14
                             1230.62  1282.14  1323.98  1355.64  1394.79
                             1429.92  1460.53  1479.80  1551.29  1573.60
                             1625.44  1654.76  1682.84  1707.95  1711.56
                             1749.29  1759.16  1787.09  1836.66  1851.49
                             1927.56  1952.81  2004.70  2039.77  2088.13
                             2148.19  2156.68  2175.73  2187.38  2193.44
                             2211.02  2284.24  2349.14  2380.58  2458.29
                             2523.97  2627.89  4153.74  4324.97  4403.94
                             4426.28  4533.38  4534.69  4582.96  4604.06
                             4614.89  4641.91  4686.86

 Zero-point correction=                           0.214376 (Hartree/Particle)
 Thermal correction to Energy=                    0.229865
 Thermal correction to Enthalpy=                  0.230810
 Thermal correction to Gibbs Free Energy=         0.169949
 Sum of electronic and zero-point Energies=           -819.326728
 Sum of electronic and thermal Energies=              -819.311239
 Sum of electronic and thermal Enthalpies=            -819.310295
 Sum of electronic and thermal Free Energies=         -819.371155

                     E (Thermal)             CV                S
                      KCal/Mol        Cal/Mol-Kelvin    Cal/Mol-Kelvin
 Total                  144.243             56.633            128.091
 Electronic               0.000              0.000              0.000
 Translational            0.889              2.981             42.240
 Rotational               0.889              2.981             33.020
 Vibrational            142.465             50.671             52.831
 Vibration     1          0.593              1.985              6.280
 Vibration     2          0.594              1.984              5.765
 Vibration     3          0.599              1.965              4.002
 Vibration     4          0.602              1.956              3.641
 Vibration     5          0.607              1.940              3.247
 Vibration     6          0.611              1.927              2.999
 Vibration     7          0.614              1.915              2.831
 Vibration     8          0.622              1.891              2.548
 Vibration     9          0.626              1.876              2.405
 Vibration    10          0.636              1.845              2.170
 Vibration    11          0.659              1.774              1.782
 Vibration    12          0.663              1.763              1.732
 Vibration    13          0.681              1.708              1.524
 Vibration    14          0.705              1.638              1.318
 Vibration    15          0.710              1.624              1.282
 Vibration    16          0.752              1.506              1.027
 Vibration    17          0.773              1.450              0.930
 Vibration    18          0.807              1.365              0.802
 Vibration    19          0.824              1.324              0.747
 Vibration    20          0.871              1.216              0.620
 Vibration    21          0.883              1.189              0.592
 Vibration    22          0.903              1.146              0.550
 Vibration    23          0.936              1.075              0.486
 Vibration    24          0.966              1.017              0.437

                           ! Non-Optimized Parameters !
 Normal termination of Gaussian 16 at Fri Dec 11 11:56:46 2020.

 ----------------------------------------------------------------------
 # B3LYP/6-311++G(d,p) empiricaldispersion=gd3bj scf=xqc pop=npa geom=c
 heck
 ----------------------------------------------------------------------

 --------------------------------------
 CID_76845625_JID_7029_Energie_neutraal
 --------------------------------------
 Structure from the checkpoint file:  "JID_7029.chk"
 Charge =  0 Multiplicity = 1

 SCF Done:  E(RB3LYP) =  -819.769991177     A.U. after   16 cycles
 Normal termination of Gaussian 16 at Fri Dec 11 12:02:11 2020.

 ----------------------------------------------------------------------
 # B3LYP/6-311++G(d,p) empiricaldispersion=gd3bj scf=xqc pop=npa geom=c
 heck
 ----------------------------------------------------------------------

 ------------------------------------
 CID_76845625_JID_7029_Energie_kation
 ------------------------------------
 Structure from the checkpoint file:  "JID_7029.chk"
 Charge =  1 Multiplicity = 2

 SCF Done:  E(UB3LYP) =  -819.452891171     A.U. after   30 cycles
 Normal termination of Gaussian 16 at Fri Dec 11 12:14:46 2020.
 Gaussian 16:  ES64L-G16RevA.03 25-Dec-2016

 ----------------------------------------------------------------------
 # B3LYP/6-311++G(d,p) empiricaldispersion=gd3bj scf=xqc pop=npa geom=c
 heck
 ----------------------------------------------------------------------

 -----------------------------------
 CID_76845625_JID_7029_Energie_anion
 -----------------------------------
 Structure from the checkpoint file:  "JID_7029.chk"
 Charge = -1 Multiplicity = 2

                         Standard orientation:
 ---------------------------------------------------------------------
 Center     Atomic      Atomic             Coordinates (Angstroms)
 Number     Number       Type             X           Y           Z
 ---------------------------------------------------------------------
      1          6           0       -5.287399    0.647779    0.189080
      2          8           0       -4.312308   -0.297138    0.595876
      3          6           0       -3.226586   -0.440647   -0.314720
      4          6           0       -2.620530   -1.800626   -0.124618
      5          6           0       -1.295348   -1.997227   -0.056736
      6          6           0       -0.354349   -0.883260   -0.083910
      7          7           0        0.920646   -1.142477   -0.021339
      8          6           0        1.802620   -0.069671   -0.002324
      9          6           0        1.449498    1.245864   -0.012507
     10          6           0        0.041974    1.630950   -0.073008
     11          8           0       -0.340779    2.799490   -0.089063
     12          6           0       -0.904144    0.476033   -0.132436
     13          6           0       -2.235466    0.678442   -0.202021
     14          6           0        3.248535   -0.490506    0.035922
     15          8           0        3.631139   -1.637548    0.015233
     16          8           0        4.076335    0.576511    0.093043
     17          6           0        5.474486    0.254912    0.127510
     18          1           0       -6.085509    0.608738    0.933365
     19          1           0       -5.700442    0.394713   -0.799648
     20          1           0       -4.891099    1.672214    0.152133
     21          1           0       -3.627092   -0.403800   -1.350978
     22          1           0       -3.323677   -2.626536   -0.075426
     23          1           0       -0.861661   -2.986839    0.044390
     24          1           0        2.192562    2.032263    0.013749
     25          1           0       -2.602049    1.702202   -0.199577
     26          1           0        5.705069   -0.352142    1.006813
     27          1           0        5.761390   -0.298746   -0.770311
     28          1           0        5.993137    1.212504    0.172747
 ---------------------------------------------------------------------

 SCF Done:  E(UB3LYP) =  -819.845873201     A.U. after   23 cycles

 The electronic state is 2-A.
 Alpha  occ. eigenvalues --  -19.05376 -19.02094 -18.98284 -18.93510 -14.15970
 Alpha  occ. eigenvalues --  -10.17065 -10.12891 -10.11900 -10.11454 -10.09054
 Alpha  occ. eigenvalues --  -10.07139 -10.06987 -10.05490 -10.05201 -10.03741
 Alpha  occ. eigenvalues --  -10.03661 -10.02502  -0.99180  -0.93356  -0.89913
 Alpha  occ. eigenvalues --   -0.87201  -0.79880  -0.71098  -0.65726  -0.63787
 Alpha  occ. eigenvalues --   -0.62058  -0.60616  -0.56969  -0.52090  -0.49369
 Alpha  occ. eigenvalues --   -0.46905  -0.44112  -0.41668  -0.39457  -0.38665
 Alpha  occ. eigenvalues --   -0.37921  -0.37890  -0.36241  -0.34985  -0.34747
 Alpha  occ. eigenvalues --   -0.32600  -0.31826  -0.30556  -0.29890  -0.29277
 Alpha  occ. eigenvalues --   -0.28646  -0.27104  -0.26805  -0.25087  -0.24389
 Alpha  occ. eigenvalues --   -0.23838  -0.22764  -0.21658  -0.19721  -0.17522
 Alpha  occ. eigenvalues --   -0.16396  -0.15873  -0.13820  -0.12007  -0.09983
 Alpha  occ. eigenvalues --   -0.09713  -0.01665
 Alpha virt. eigenvalues --    0.07337   0.07356   0.08919   0.09416   0.10235
 Alpha virt. eigenvalues --    0.10374   0.10863   0.11334   0.11534   0.11992
 Alpha virt. eigenvalues --    0.12446   0.13094   0.14466   0.15099   0.16358

  Beta  occ. eigenvalues --  -19.05371 -19.02014 -18.98170 -18.93159 -14.16001
  Beta  occ. eigenvalues --  -10.17056 -10.12892 -10.11897 -10.11501 -10.08968
  Beta  occ. eigenvalues --  -10.06875 -10.06828 -10.05350 -10.05253 -10.03869
  Beta  occ. eigenvalues --  -10.03140 -10.02337  -0.99127  -0.93187  -0.89755
  Beta  occ. eigenvalues --   -0.86594  -0.79628  -0.70729  -0.65460  -0.63456
  Beta  occ. eigenvalues --   -0.61961  -0.60309  -0.56534  -0.51774  -0.49077
  Beta  occ. eigenvalues --   -0.46591  -0.43847  -0.41428  -0.39317  -0.38392
  Beta  occ. eigenvalues --   -0.37830  -0.37683  -0.36144  -0.34857  -0.34632
  Beta  occ. eigenvalues --   -0.32486  -0.31738  -0.30347  -0.29410  -0.29088
  Beta  occ. eigenvalues --   -0.28383  -0.26529  -0.26269  -0.24994  -0.24172
  Beta  occ. eigenvalues --   -0.23632  -0.21626  -0.21390  -0.19412  -0.16791
  Beta  occ. eigenvalues --   -0.15809  -0.15734  -0.12671  -0.11969  -0.09405
  Beta  occ. eigenvalues --   -0.08455
  Beta virt. eigenvalues --    0.04276   0.07335   0.07354   0.09384   0.09834
  Beta virt. eigenvalues --    0.10227   0.10862   0.11283   0.11543   0.11783
  Beta virt. eigenvalues --    0.12002   0.12496   0.13136   0.14473   0.15182

 Mulliken charges and spin densities:
               1          2
     1  C   -0.225348  -0.003196
     2  O   -0.054942   0.002880
     3  C   -0.707222  -0.052691
     4  C   -0.087665   0.159585
     5  C   -0.418473  -0.067523
     6  C   -2.074560   0.152812
     7  N    0.081979  -0.020635
     8  C    0.454316   0.099592
     9  C   -0.006545   0.154464
    10  C   -0.878945   0.069683
    11  O   -0.397088   0.133711
    12  C    2.294628  -0.106699
    13  C    0.165743   0.426571
    14  C   -0.106013   0.006394
    15  O   -0.286988   0.040043
    16  O   -0.113475   0.000276
    17  C   -0.236028   0.000028
    18  H    0.130864  -0.000168
    19  H    0.108012   0.002125
    20  H    0.117351   0.004637
    21  H    0.096251   0.041607
    22  H    0.152739  -0.003689
    23  H    0.159961   0.002442
    24  H    0.203012  -0.009225
    25  H    0.170656  -0.032963
    26  H    0.165977   0.000033
    27  H    0.165593  -0.000007
    28  H    0.126211  -0.000085
 Sum of Mulliken charges =  -1.00000   1.00000

 Dipole moment (field-independent basis, Debye):
    X=             -0.6608    Y=             -0.7655    Z=             -0.8400  Tot=              1.3146
 Quadrupole moment (field-independent basis, Debye-Ang):
   XX=           -115.7851   YY=           -130.1351   ZZ=           -104.9639
   XY=              8.0708   XZ=              4.7640   YZ=              1.0648

 Summary of Natural Population Analysis:

                                       Natural Population
                Natural  -----------------------------------------------
    Atom  No    Charge         Core      Valence    Rydberg      Total
 -----------------------------------------------------------------------
      C    1   -0.09765      0.99962     2.08970    0.00833     3.09765
      O    2   -0.29082      0.99988     3.27995    0.01100     4.29082
      C    3    0.02576      0.99951     1.96132    0.01341     2.97424
      C    4   -0.04944      0.99954     2.04065    0.00925     3.04944
      C    5   -0.11684      0.99952     2.10746    0.00987     3.11684
      C    6    0.16684      0.99952     1.82049    0.01315     2.83316
      N    7   -0.24887      0.99966     2.73860    0.01061     3.74887
      C    8    0.06397      0.99944     1.92352    0.01307     2.93603
      C    9   -0.09261      0.99948     2.08464    0.00848     3.09261
      C   10    0.24940      0.99958     1.73046    0.02057     2.75060
      O   11   -0.27555      0.99988     3.26879    0.00687     4.27555
      C   12   -0.12614      0.99943     2.11659    0.01013     3.12614
      C   13    0.08849      0.99950     1.90372    0.00829     2.91151
      C   14    0.39235      0.99966     1.58338    0.02460     2.60765
      O   15   -0.29155      0.99987     3.28485    0.00683     4.29155
      O   16   -0.28211      0.99986     3.27388    0.00837     4.28211
      C   17   -0.10567      0.99961     2.09744    0.00862     3.10567
      H   18    0.08544      0.00000     0.41370    0.00086     0.41456
      H   19    0.07312      0.00000     0.42539    0.00149     0.42688
      H   20    0.08018      0.00000     0.41843    0.00139     0.41982
      H   21    0.09469      0.00000     0.40332    0.00199     0.40531
      H   22    0.09143      0.00000     0.40738    0.00120     0.40857
      H   23    0.10231      0.00000     0.39582    0.00187     0.39769
      H   24    0.10487      0.00000     0.39390    0.00123     0.39513
      H   25    0.09644      0.00000     0.40194    0.00162     0.40356
      H   26    0.08829      0.00000     0.41049    0.00122     0.41171
      H   27    0.08811      0.00000     0.41067    0.00122     0.41189
      H   28    0.08555      0.00000     0.41363    0.00082     0.41445
 =======================================================================
   * Total *   -0.00000     16.99356    43.80009    0.20635    61.00000

 Normal termination of Gaussian 16 at Fri Dec 11 12:21:44 2020.
