 Gaussian 16, Revision A.03,

 -----------------------------------------------------------
 # opt freq B3LYP/6-31G(d) empiricaldispersion=gd3bj scf=xqc
 -----------------------------------------------------------

 -------------------------------
 CID_135069528_JID_8478_neutraal
 -------------------------------
 Symbolic Z-matrix:
 Charge =  0 Multiplicity = 1

 SCF Done:  E(RB3LYP) =  -768.532943916     A.U. after   15 cycles
 SCF Done:  E(RB3LYP) =  -768.481540143     A.U. after   15 cycles
 SCF Done:  E(RB3LYP) =  -768.537396916     A.U. after   13 cycles
 SCF Done:  E(RB3LYP) =  -768.538673511     A.U. after   12 cycles
 SCF Done:  E(RB3LYP) =  -768.539016777     A.U. after   11 cycles
 SCF Done:  E(RB3LYP) =  -768.539010166     A.U. after   11 cycles
 SCF Done:  E(RB3LYP) =  -768.539112109     A.U. after   11 cycles
 SCF Done:  E(RB3LYP) =  -768.539158012     A.U. after   11 cycles
 SCF Done:  E(RB3LYP) =  -768.539289796     A.U. after   12 cycles
 SCF Done:  E(RB3LYP) =  -768.539445544     A.U. after   13 cycles
 SCF Done:  E(RB3LYP) =  -768.544774654     A.U. after   10 cycles
 SCF Done:  E(RB3LYP) =  -768.544777751     A.U. after    9 cycles
 SCF Done:  E(RB3LYP) =  -768.544778384     A.U. after    9 cycles
 SCF Done:  E(RB3LYP) =  -768.544778744     A.U. after    8 cycles
 SCF Done:  E(RB3LYP) =  -768.544778775     A.U. after    8 cycles
 Optimization completed.
    -- Stationary point found.
 Normal termination of Gaussian 16 at Fri Dec 11 20:38:47 2020.

 --------------------------------------------------------------------
 #N Geom=AllCheck Guess=TCheck SCRF=Check GenChk RB3LYP/6-31G(d) Freq
 --------------------------------------------------------------------

 Structure from the checkpoint file:  "JID_8478.chk"
 -------------------------------
 CID_135069528_JID_8478_neutraal
 -------------------------------
 Charge =  0 Multiplicity = 1

 SCF Done:  E(RB3LYP) =  -768.544778776     A.U. after    1 cycles

  Exact polarizability: 205.389  24.699 165.847 -18.348  17.407 106.196
 Approx polarizability: 312.900  41.636 269.293 -40.507  35.093 182.551

                      1                      2                      3
                      A                      A                      A
 Frequencies --     18.3000                23.6036                36.0798
 Red. masses --      5.0587                 4.0876                 4.9663
 Frc consts  --      0.0010                 0.0013                 0.0038
 IR Inten    --      0.0753                 0.1895                 0.2136

                      4                      5                      6
                      A                      A                      A
 Frequencies --     69.4600                82.7433                94.4862
 Red. masses --      5.5741                 4.1245                 4.3979
 Frc consts  --      0.0158                 0.0166                 0.0231
 IR Inten    --      0.2914                 0.2226                 0.8263

                      7                      8                      9
                      A                      A                      A
 Frequencies --    126.7969               151.4886               229.9905
 Red. masses --      5.8062                 5.3304                 5.1623
 Frc consts  --      0.0550                 0.0721                 0.1609
 IR Inten    --      0.5503                 0.6081                 0.2567

                     10                     11                     12
                      A                      A                      A
 Frequencies --    252.9449               282.6956               317.5997
 Red. masses --      5.0052                 2.8664                 1.5161
 Frc consts  --      0.1887                 0.1350                 0.0901
 IR Inten    --      0.2436                20.1356                87.9813

                     13                     14                     15
                      A                      A                      A
 Frequencies --    348.1636               356.4203               394.2712
 Red. masses --      5.6049                 2.2575                 8.1430
 Frc consts  --      0.4003                 0.1690                 0.7458
 IR Inten    --     12.6551                 7.4235                 2.2300

                     16                     17                     18
                      A                      A                      A
 Frequencies --    416.3158               425.9152               429.9905
 Red. masses --      2.9616                 3.1300                 7.8076
 Frc consts  --      0.3024                 0.3345                 0.8505
 IR Inten    --      0.1388                 0.0523                 8.9151

                     19                     20                     21
                      A                      A                      A
 Frequencies --    488.8459               507.7798               536.1160
 Red. masses --      4.3881                 3.1555                 3.6878
 Frc consts  --      0.6178                 0.4794                 0.6245
 IR Inten    --      1.2229                 4.8293                16.9410

                     22                     23                     24
                      A                      A                      A
 Frequencies --    541.3618               617.1140               627.2542
 Red. masses --      5.0470                 5.0611                 7.1213
 Frc consts  --      0.8715                 1.1356                 1.6508
 IR Inten    --     20.5043                 0.9336                 0.4172

                     25                     26                     27
                      A                      A                      A
 Frequencies --    629.8613               638.1189               697.6533
 Red. masses --      6.3099                 6.2984                 2.7417
 Frc consts  --      1.4749                 1.5111                 0.7862
 IR Inten    --      2.2929                 0.0253                 7.1110

                     28                     29                     30
                      A                      A                      A
 Frequencies --    714.9716               740.2490               765.8009
 Red. masses --      2.0620                 2.5173                 1.4774
 Frc consts  --      0.6210                 0.8127                 0.5105
 IR Inten    --     21.1275                44.3268                61.5265

                     31                     32                     33
                      A                      A                      A
 Frequencies --    772.2905               825.4926               840.7022
 Red. masses --      2.2761                 4.8411                 1.2656
 Frc consts  --      0.7998                 1.9437                 0.5270
 IR Inten    --      3.9964                24.3090                 1.0992

                     34                     35                     36
                      A                      A                      A
 Frequencies --    842.4149               859.8487               909.9639
 Red. masses --      3.6709                 1.2537                 1.3889
 Frc consts  --      1.5349                 0.5461                 0.6776
 IR Inten    --      0.8885                 0.1762                 6.0090

                     37                     38                     39
                      A                      A                      A
 Frequencies --    920.3225               964.7332               966.7400
 Red. masses --      1.4346                 1.3268                 1.3577
 Frc consts  --      0.7159                 0.7275                 0.7476
 IR Inten    --      1.2623                 0.0318                 0.8138

                     40                     41                     42
                      A                      A                      A
 Frequencies --    984.4863               989.3843               993.8426
 Red. masses --      1.8559                 1.2366                 1.2688
 Frc consts  --      1.0598                 0.7132                 0.7384
 IR Inten    --     12.3510                 0.5236                 0.3908

                     43                     44                     45
                      A                      A                      A
 Frequencies --   1022.2385              1022.9952              1027.7165
 Red. masses --      6.0027                 6.0800                 4.5140
 Frc consts  --      3.6957                 3.7489                 2.8090
 IR Inten    --      6.2876                 5.1589                47.7422

                     46                     47                     48
                      A                      A                      A
 Frequencies --   1053.5610              1061.1585              1063.0048
 Red. masses --      2.0813                 2.2093                 4.9536
 Frc consts  --      1.3611                 1.4658                 3.2980
 IR Inten    --      6.8043                 3.9336               196.3517

                     49                     50                     51
                      A                      A                      A
 Frequencies --   1112.1848              1114.0455              1178.8089
 Red. masses --      1.4797                 1.6225                 2.0262
 Frc consts  --      1.0784                 1.1864                 1.6589
 IR Inten    --      5.5721                 5.8006                82.0409

                     52                     53                     54
                      A                      A                      A
 Frequencies --   1188.3900              1191.1230              1193.4101
 Red. masses --      1.1770                 1.1424                 1.0953
 Frc consts  --      0.9793                 0.9550                 0.9191
 IR Inten    --      1.5240                 7.9624                 0.0773

                     55                     56                     57
                      A                      A                      A
 Frequencies --   1209.8628              1216.8260              1236.2103
 Red. masses --      1.4951                 1.1489                 2.3023
 Frc consts  --      1.2894                 1.0023                 2.0730
 IR Inten    --     12.3186                 0.8380                 8.3372

                     58                     59                     60
                      A                      A                      A
 Frequencies --   1269.0161              1295.8162              1348.0353
 Red. masses --      1.3268                 2.8164                 2.0429
 Frc consts  --      1.2589                 2.7863                 2.1873
 IR Inten    --     34.2914               223.3739                10.3256

                     61                     62                     63
                      A                      A                      A
 Frequencies --   1350.8568              1365.5856              1367.1364
 Red. masses --      1.5845                 2.3816                 2.1869
 Frc consts  --      1.7036                 2.6167                 2.4082
 IR Inten    --      2.2874                 5.6239                 0.3973

                     64                     65                     66
                      A                      A                      A
 Frequencies --   1372.7864              1386.0426              1443.5404
 Red. masses --      2.4609                 1.2921                 1.3812
 Frc consts  --      2.7325                 1.4625                 1.6957
 IR Inten    --     19.6383                 4.2763                67.6169

                     67                     68                     69
                      A                      A                      A
 Frequencies --   1501.9374              1508.7651              1514.1331
 Red. masses --      2.0307                 2.3340                 1.1502
 Frc consts  --      2.6990                 3.1303                 1.5537
 IR Inten    --      4.1868                 3.2292                 4.5598

                     70                     71                     72
                      A                      A                      A
 Frequencies --   1538.8450              1548.7890              1645.5199
 Red. masses --      2.2240                 2.2414                 5.5008
 Frc consts  --      3.1030                 3.1678                 8.7756
 IR Inten    --     90.6822                 9.6832                 0.9351

                     73                     74                     75
                      A                      A                      A
 Frequencies --   1654.2330              1664.6576              1668.1554
 Red. masses --      5.7180                 6.4645                 5.6229
 Frc consts  --      9.2191                10.5545                 9.2190
 IR Inten    --     38.8723                17.0299                 6.1209

                     76                     77                     78
                      A                      A                      A
 Frequencies --   2406.7644              3052.4612              3062.5290
 Red. masses --     11.9619                 1.0619                 1.0817
 Frc consts  --     40.8243                 5.8297                 5.9775
 IR Inten    --    256.0932                27.9002                17.6984

                     79                     80                     81
                      A                      A                      A
 Frequencies --   3101.3194              3176.0080              3183.0903
 Red. masses --      1.1049                 1.0864                 1.0865
 Frc consts  --      6.2612                 6.4567                 6.4862
 IR Inten    --     25.3700                 5.9920                 2.3816

                     82                     83                     84
                      A                      A                      A
 Frequencies --   3190.6111              3191.8702              3201.3142
 Red. masses --      1.0902                 1.0856                 1.0940
 Frc consts  --      6.5391                 6.5165                 6.6060
 IR Inten    --     11.8817                 0.5613                38.5049

                     85                     86                     87
                      A                      A                      A
 Frequencies --   3203.3347              3210.9787              3214.5035
 Red. masses --      1.0898                 1.0979                 1.0942
 Frc consts  --      6.5887                 6.6696                 6.6616
 IR Inten    --     15.2220                10.5499                23.6617

                     88                     89                     90
                      A                      A                      A
 Frequencies --   3223.7102              3247.4448              3730.3632
 Red. masses --      1.0954                 1.0918                 1.0660
 Frc consts  --      6.7071                 6.7838                 8.7401
 IR Inten    --      6.7241                 1.9186                16.8849

 - Thermochemistry -
 -------------------
 Temperature   298.150 Kelvin.  Pressure   1.00000 Atm.
 Atom     1 has atomic number  6 and mass  12.00000

 Molecular mass:   238.09938 amu.
 Principal axes and moments of inertia in atomic units:
                           1         2         3
     Eigenvalues --  3140.858795616.917518109.77142
           X            0.99995   0.01026  -0.00136
           Y           -0.01025   0.99990   0.01001
           Z            0.00146  -0.00999   0.99995
 This molecule is an asymmetric top.
 Rotational symmetry number  1.
 Warning -- assumption of classical behavior for rotation
           may cause significant error
 Rotational temperatures (Kelvin)      0.02758     0.01542     0.01068
 Rotational constants (GHZ):           0.57460     0.32130     0.22254
 Zero-point vibrational energy     676872.9 (Joules/Mol)
                                  161.77650 (Kcal/Mol)
 Warning -- explicit consideration of  23 degrees of freedom as
           vibrations may cause significant error
 Vibrational temperatures:     26.33    33.96    51.91    99.94   119.05
          (Kelvin)            135.94   182.43   217.96   330.91   363.93
                              406.74   456.96   500.93   512.81   567.27
                              598.99   612.80   618.66   703.34   730.58
                              771.35   778.90   887.89   902.48   906.23
                              918.11  1003.77  1028.68  1065.05  1101.82
                             1111.15  1187.70  1209.58  1212.05  1237.13
                             1309.24  1324.14  1388.04  1390.92  1416.46
                             1423.50  1429.92  1470.77  1471.86  1478.65
                             1515.84  1526.77  1529.43  1600.19  1602.86
                             1696.04  1709.83  1713.76  1717.05  1740.72
                             1750.74  1778.63  1825.83  1864.39  1939.52
                             1943.58  1964.77  1967.00  1975.13  1994.21
                             2076.93  2160.95  2170.78  2178.50  2214.05
                             2228.36  2367.54  2380.07  2395.07  2400.10
                             3462.80  4391.81  4406.30  4462.11  4569.57
                             4579.76  4590.58  4592.39  4605.98  4608.88
                             4619.88  4624.95  4638.20  4672.35  5367.16

 Zero-point correction=                           0.257807 (Hartree/Particle)
 Thermal correction to Energy=                    0.273619
 Thermal correction to Enthalpy=                  0.274563
 Thermal correction to Gibbs Free Energy=         0.211936
 Sum of electronic and zero-point Energies=           -768.286972
 Sum of electronic and thermal Energies=              -768.271159
 Sum of electronic and thermal Enthalpies=            -768.270215
 Sum of electronic and thermal Free Energies=         -768.332843

                     E (Thermal)             CV                S
                      KCal/Mol        Cal/Mol-Kelvin    Cal/Mol-Kelvin
 Total                  171.699             60.830            131.812
 Electronic               0.000              0.000              0.000
 Translational            0.889              2.981             42.304
 Rotational               0.889              2.981             33.325
 Vibrational            169.921             54.868             56.182
 Vibration     1          0.593              1.986              6.811
 Vibration     2          0.593              1.985              6.305
 Vibration     3          0.594              1.982              5.463
 Vibration     4          0.598              1.969              4.169
 Vibration     5          0.600              1.961              3.825
 Vibration     6          0.603              1.953              3.565
 Vibration     7          0.611              1.926              2.994
 Vibration     8          0.619              1.901              2.653
 Vibration     9          0.652              1.795              1.879
 Vibration    10          0.664              1.758              1.710
 Vibration    11          0.682              1.706              1.517
 Vibration    12          0.704              1.640              1.322
 Vibration    13          0.726              1.579              1.174
 Vibration    14          0.732              1.562              1.138
 Vibration    15          0.761              1.482              0.984
 Vibration    16          0.780              1.435              0.905
 Vibration    17          0.788              1.414              0.872
 Vibration    18          0.791              1.405              0.859
 Vibration    19          0.845              1.275              0.687
 Vibration    20          0.863              1.233              0.639
 Vibration    21          0.891              1.170              0.574
 Vibration    22          0.896              1.159              0.562
 Vibration    23          0.977              0.996              0.421

 Optimization completed.
    -- Stationary point found.
 Normal termination of Gaussian 16 at Fri Dec 11 20:51:04 2020.

 ----------------------------------------------------------------------
 # B3LYP/6-311++G(d,p) empiricaldispersion=gd3bj scf=xqc pop=npa geom=c
 heck
 ----------------------------------------------------------------------

 ---------------------------------------
 CID_135069528_JID_8478_Energie_neutraal
 ---------------------------------------
 Structure from the checkpoint file:  "JID_8478.chk"
 Charge =  0 Multiplicity = 1

 SCF Done:  E(RB3LYP) =  -768.759283348     A.U. after   16 cycles
 Normal termination of Gaussian 16 at Fri Dec 11 20:57:18 2020.

 ----------------------------------------------------------------------
 # B3LYP/6-311++G(d,p) empiricaldispersion=gd3bj scf=xqc pop=npa geom=c
 heck
 ----------------------------------------------------------------------

 -------------------------------------
 CID_135069528_JID_8478_Energie_kation
 -------------------------------------
 Structure from the checkpoint file:  "JID_8478.chk"
 Charge =  1 Multiplicity = 2

 SCF Done:  E(UB3LYP) =  -768.463250833     A.U. after   26 cycles
 Normal termination of Gaussian 16 at Fri Dec 11 21:11:41 2020.
 Gaussian 16:  ES64L-G16RevA.03 25-Dec-2016

 ----------------------------------------------------------------------
 # B3LYP/6-311++G(d,p) empiricaldispersion=gd3bj scf=xqc pop=npa geom=c
 heck
 ----------------------------------------------------------------------

 ------------------------------------
 CID_135069528_JID_8478_Energie_anion
 ------------------------------------
 Structure from the checkpoint file:  "JID_8478.chk"
 Charge = -1 Multiplicity = 2

                         Standard orientation:
 ---------------------------------------------------------------------
 Center     Atomic      Atomic             Coordinates (Angstroms)
 Number     Number       Type             X           Y           Z
 ---------------------------------------------------------------------
      1          6           0        0.611637   -3.137293   -0.074882
      2          6           0        0.504074   -2.418609    1.115798
      3          6           0        1.293462   -1.286925    1.322980
      4          6           0        2.209766   -0.861109    0.355106
      5          6           0        2.312037   -1.594284   -0.835196
      6          6           0        1.517377   -2.719012   -1.052603
      7          6           0        3.032197    0.386827    0.563165
      8          6           0        2.622417    1.552019   -0.373198
      9          6           0        1.188542    1.847338   -0.258179
     10          6           0        0.002303    2.037311   -0.140208
     11          8           0       -1.279839    2.265459   -0.018236
     12          6           0       -2.153336    1.166213   -0.066116
     13          6           0       -1.712580   -0.126069   -0.327986
     14          6           0       -2.655900   -1.154560   -0.353734
     15          6           0       -4.006652   -0.889712   -0.128430
     16          6           0       -4.421585    0.420002    0.127617
     17          6           0       -3.494588    1.459727    0.161441
     18          8           0        3.435795    2.699495   -0.138815
     19          1           0       -0.001503   -4.018986   -0.239672
     20          1           0       -0.202488   -2.730201    1.879665
     21          1           0        1.192980   -0.720104    2.244655
     22          1           0        3.021421   -1.281419   -1.597879
     23          1           0        1.609417   -3.273259   -1.982530
     24          1           0        2.929089    0.734148    1.597959
     25          1           0        4.097008    0.196348    0.385744
     26          1           0        2.849698    1.261103   -1.405455
     27          1           0       -0.662457   -0.326822   -0.499769
     28          1           0       -2.317434   -2.167275   -0.550304
     29          1           0       -4.733052   -1.696397   -0.151466
     30          1           0       -5.471175    0.636203    0.304151
     31          1           0       -3.790038    2.484400    0.360605
     32          1           0        3.135857    3.091458    0.697264
 ---------------------------------------------------------------------

 SCF Done:  E(UB3LYP) =  -768.748125529     A.U. after   33 cycles
 SCF Done:  E(UB3LYP) =  -768.748125529     a.u. after    1 cycles

 The electronic state is 2-A.
 Alpha  occ. eigenvalues --  -19.11599 -19.04189 -10.16069 -10.15667 -10.13824
 Alpha  occ. eigenvalues --  -10.09223 -10.09107 -10.09099 -10.08832 -10.08732
 Alpha  occ. eigenvalues --  -10.08584 -10.08419 -10.08299 -10.08133 -10.08128
 Alpha  occ. eigenvalues --  -10.08078 -10.07991 -10.07884  -1.03026  -0.94542
 Alpha  occ. eigenvalues --   -0.77449  -0.76976  -0.71000  -0.68413  -0.66584
 Alpha  occ. eigenvalues --   -0.65892  -0.65547  -0.62554  -0.56932  -0.54950
 Alpha  occ. eigenvalues --   -0.52942  -0.51602  -0.49413  -0.47857  -0.45317
 Alpha  occ. eigenvalues --   -0.42497  -0.41951  -0.39673  -0.38962  -0.37445
 Alpha  occ. eigenvalues --   -0.36844  -0.35876  -0.35720  -0.35016  -0.34281
 Alpha  occ. eigenvalues --   -0.33248  -0.33074  -0.32103  -0.29767  -0.28189
 Alpha  occ. eigenvalues --   -0.27790  -0.27283  -0.26892  -0.26360  -0.25466
 Alpha  occ. eigenvalues --   -0.24942  -0.20931  -0.18494  -0.18321  -0.17460
 Alpha  occ. eigenvalues --   -0.16281  -0.15663  -0.14072   0.04036
 Alpha virt. eigenvalues --    0.05772   0.06174   0.06737   0.07083   0.07202
 Alpha virt. eigenvalues --    0.07421   0.07975   0.08091   0.08346   0.09097
 Alpha virt. eigenvalues --    0.09432   0.09858   0.10820   0.11461   0.11952

  Beta  occ. eigenvalues --  -19.11601 -19.04166 -10.16059 -10.15649 -10.13808
  Beta  occ. eigenvalues --  -10.09221 -10.09080 -10.09070 -10.08823 -10.08715
  Beta  occ. eigenvalues --  -10.08569 -10.08416 -10.08273 -10.08125 -10.08090
  Beta  occ. eigenvalues --  -10.08055 -10.07958 -10.07885  -1.03017  -0.94496
  Beta  occ. eigenvalues --   -0.77408  -0.76919  -0.70951  -0.68366  -0.66536
  Beta  occ. eigenvalues --   -0.65845  -0.65490  -0.62502  -0.56883  -0.54900
  Beta  occ. eigenvalues --   -0.52907  -0.51550  -0.49344  -0.47809  -0.45271
  Beta  occ. eigenvalues --   -0.42436  -0.41908  -0.39638  -0.38917  -0.37412
  Beta  occ. eigenvalues --   -0.36787  -0.35831  -0.35677  -0.34976  -0.34249
  Beta  occ. eigenvalues --   -0.33223  -0.33039  -0.32033  -0.29729  -0.28135
  Beta  occ. eigenvalues --   -0.27734  -0.27241  -0.26825  -0.26311  -0.25414
  Beta  occ. eigenvalues --   -0.24903  -0.20899  -0.18429  -0.18296  -0.17368
  Beta  occ. eigenvalues --   -0.16179  -0.15519  -0.14021
  Beta virt. eigenvalues --    0.06116   0.06644   0.06761   0.06944   0.07459
  Beta virt. eigenvalues --    0.07499   0.07794   0.08141   0.08431   0.08789
  Beta virt. eigenvalues --    0.09406   0.09811   0.10132   0.11176   0.11589

 Mulliken charges and spin densities:
               1          2
     1  C    1.213040  -1.444291
     2  C    0.075153  -0.300458
     3  C   -0.495638   0.157238
     4  C   -0.156984   1.066272
     5  C   -1.184043   0.835190
     6  C    0.126976  -0.386892
     7  C    0.792008  -1.467940
     8  C    0.192013  -0.531037
     9  C    0.375185  -0.449942
    10  C    0.275218  -0.180399
    11  O   -0.088272  -0.004680
    12  C   -0.646073   0.066250
    13  C    0.825607   0.184213
    14  C   -0.412946   0.341974
    15  C    0.976164  -1.271871
    16  C    0.395670  -0.670343
    17  C   -1.140313   0.566473
    18  O   -0.153460   0.008825
    19  H   -0.344527   0.512096
    20  H   -0.168905   0.337674
    21  H   -0.063517   0.239535
    22  H   -0.136105   0.297046
    23  H   -0.392593   0.569940
    24  H   -0.286285   0.457367
    25  H   -0.034467   0.224529
    26  H    0.073759   0.126600
    27  H    0.416002  -0.290504
    28  H   -0.052473   0.259304
    29  H   -0.570636   0.741858
    30  H   -0.397666   0.569661
    31  H   -0.071001   0.243172
    32  H    0.059108   0.193141
 Sum of Mulliken charges =  -1.00000   1.00000

 Dipole moment (field-independent basis, Debye):
    X=              1.8896    Y=              2.6634    Z=              0.2462  Tot=              3.2749
 Quadrupole moment (field-independent basis, Debye-Ang):
   XX=           -191.2421   YY=           -163.0946   ZZ=           -134.0076
   XY=            -12.5260   XZ=              1.0079   YZ=             -1.3523

 Summary of Natural Population Analysis:

                                       Natural Population
                Natural  -----------------------------------------------
    Atom  No    Charge         Core      Valence    Rydberg      Total
 -----------------------------------------------------------------------
      C    1   -0.10401      0.99956     2.09388    0.01056     3.10401
      C    2   -0.09616      0.99956     2.08566    0.01094     3.09616
      C    3   -0.09983      0.99951     2.09096    0.00937     3.09983
      C    4   -0.01749      0.99950     2.00738    0.01060     3.01749
      C    5   -0.09834      0.99951     2.08942    0.00942     3.09834
      C    6   -0.10030      0.99956     2.09008    0.01066     3.10030
      C    7   -0.19903      0.99958     2.18882    0.01063     3.19903
      C    8    0.03924      0.99952     1.94805    0.01319     2.96076
      C    9   -0.07886      0.99914     2.07212    0.00760     3.07886
      C   10    0.16708      0.99897     1.82448    0.00947     2.83292
      O   11   -0.24937      0.99982     3.24013    0.00942     4.24937
      C   12    0.15120      0.99933     1.83716    0.01231     2.84880
      C   13   -0.13044      0.99950     2.12255    0.00838     3.13044
      C   14   -0.08694      0.99957     2.07742    0.00995     3.08694
      C   15   -0.10720      0.99956     2.09745    0.01018     3.10720
      C   16   -0.09175      0.99957     2.08191    0.01026     3.09175
      C   17   -0.12319      0.99951     2.11333    0.01035     3.12319
      O   18   -0.36130      0.99990     3.35506    0.00634     4.36130
      H   19    0.10330      0.00000     0.39515    0.00155     0.39670
      H   20    0.10314      0.00000     0.39588    0.00097     0.39686
      H   21    0.10166      0.00000     0.39721    0.00113     0.39834
      H   22    0.09954      0.00000     0.39930    0.00116     0.40046
      H   23    0.10162      0.00000     0.39735    0.00103     0.39838
      H   24    0.10163      0.00000     0.39679    0.00158     0.39837
      H   25    0.10773      0.00000     0.39101    0.00126     0.39227
      H   26    0.09674      0.00000     0.40127    0.00198     0.40326
      H   27    0.12044      0.00000     0.37731    0.00225     0.37956
      H   28    0.10666      0.00000     0.39144    0.00189     0.39334
      H   29    0.10454      0.00000     0.39366    0.00179     0.39546
      H   30    0.10257      0.00000     0.39615    0.00127     0.39743
      H   31    0.10736      0.00000     0.39150    0.00114     0.39264
      H   32    0.22975      0.00000     0.26693    0.00332     0.27025
 =======================================================================
   * Total *    0.00000     17.99118    44.80682    0.20201    63.00000

 Normal termination of Gaussian 16 at Fri Dec 11 21:31:07 2020.
