 Gaussian 16, Revision A.03,

 -----------------------------------------------------------
 # opt freq B3LYP/6-31G(d) empiricaldispersion=gd3bj scf=xqc
 -----------------------------------------------------------

 -------------------------------
 CID_130125093_JID_2605_neutraal
 -------------------------------
 Symbolic Z-matrix:
 Charge =  0 Multiplicity = 1

 SCF Done:  E(RB3LYP) =  -502.761912118     A.U. after   13 cycles
 SCF Done:  E(RB3LYP) =  -502.770042843     A.U. after   10 cycles
 SCF Done:  E(RB3LYP) =  -502.771294639     A.U. after   11 cycles
 SCF Done:  E(RB3LYP) =  -502.771395920     A.U. after   10 cycles
 SCF Done:  E(RB3LYP) =  -502.771409159     A.U. after    8 cycles
 SCF Done:  E(RB3LYP) =  -502.771411932     A.U. after    7 cycles
 SCF Done:  E(RB3LYP) =  -502.771412445     A.U. after    7 cycles
 Optimization completed.
    -- Stationary point found.
 Normal termination of Gaussian 16 at Wed Dec  9 17:39:34 2020.

 --------------------------------------------------------------------
 #N Geom=AllCheck Guess=TCheck SCRF=Check GenChk RB3LYP/6-31G(d) Freq
 --------------------------------------------------------------------

 Structure from the checkpoint file:  "JID_2605.chk"
 -------------------------------
 CID_130125093_JID_2605_neutraal
 -------------------------------
 Charge =  0 Multiplicity = 1

 SCF Done:  E(RB3LYP) =  -502.771412445     A.U. after    1 cycles

  Exact polarizability: 107.363  -3.785  99.576   1.062   0.923  95.031
 Approx polarizability: 153.114  -2.550 150.700   0.380  -2.411 143.824

                      1                      2                      3
                      A                      A                      A
 Frequencies --    176.9717               221.9765               231.5791
 Red. masses --      4.9813                 3.1762                 3.3004
 Frc consts  --      0.0919                 0.0922                 0.1043
 IR Inten    --      2.5054                 0.2591                 0.1210

                      4                      5                      6
                      A                      A                      A
 Frequencies --    291.3788               297.6740               351.2433
 Red. masses --      2.6611                 3.1397                 2.8752
 Frc consts  --      0.1331                 0.1639                 0.2090
 IR Inten    --      4.0507                 0.2923                 6.6752

                      7                      8                      9
                      A                      A                      A
 Frequencies --    375.4341               459.1745               477.6432
 Red. masses --      1.4224                 4.1275                 3.4336
 Frc consts  --      0.1181                 0.5127                 0.4615
 IR Inten    --     80.4306                 0.2578                 4.4386

                     10                     11                     12
                      A                      A                      A
 Frequencies --    518.6169               529.6608               580.8880
 Red. masses --      4.2911                 3.8744                 4.0767
 Frc consts  --      0.6800                 0.6404                 0.8105
 IR Inten    --      1.6672                 2.8363                 0.5508

                     13                     14                     15
                      A                      A                      A
 Frequencies --    607.6911               683.6062               719.3771
 Red. masses --      3.4936                 2.5958                 2.4588
 Frc consts  --      0.7601                 0.7147                 0.7497
 IR Inten    --      0.7883                11.7945                 2.6149

                     16                     17                     18
                      A                      A                      A
 Frequencies --    750.3020               787.0154               814.6847
 Red. masses --      2.8282                 2.2889                 2.0603
 Frc consts  --      0.9381                 0.8353                 0.8057
 IR Inten    --      1.7391                 3.1381                 6.6131

                     19                     20                     21
                      A                      A                      A
 Frequencies --    834.0780               848.6206               861.5773
 Red. masses --      1.6994                 1.9025                 2.0047
 Frc consts  --      0.6966                 0.8072                 0.8768
 IR Inten    --     18.5763                 6.2454                 5.5606

                     22                     23                     24
                      A                      A                      A
 Frequencies --    901.5933               917.4688               934.7405
 Red. masses --      2.8782                 2.0314                 2.2035
 Frc consts  --      1.3785                 1.0075                 1.1344
 IR Inten    --      0.5499                 0.9264                 1.3299

                     25                     26                     27
                      A                      A                      A
 Frequencies --    972.2030               982.4708               993.9867
 Red. masses --      2.2321                 2.3620                 2.1722
 Frc consts  --      1.2430                 1.3433                 1.2645
 IR Inten    --      4.7503                 0.7754                 4.1831

                     28                     29                     30
                      A                      A                      A
 Frequencies --   1043.8680              1049.1800              1064.9588
 Red. masses --      1.5705                 2.1939                 2.2294
 Frc consts  --      1.0082                 1.4229                 1.4897
 IR Inten    --      6.1403                26.0625                64.2301

                     31                     32                     33
                      A                      A                      A
 Frequencies --   1068.4874              1078.4187              1097.2639
 Red. masses --      1.3683                 1.3589                 2.2377
 Frc consts  --      0.9204                 0.9311                 1.5874
 IR Inten    --      3.2116                 8.8309                 1.8449

                     34                     35                     36
                      A                      A                      A
 Frequencies --   1107.6733              1118.3267              1125.5688
 Red. masses --      1.9954                 1.6578                 1.3993
 Frc consts  --      1.4424                 1.2215                 1.0445
 IR Inten    --     25.9992                13.7013                 1.6932

                     37                     38                     39
                      A                      A                      A
 Frequencies --   1140.8156              1142.9817              1149.2102
 Red. masses --      1.2671                 1.2154                 1.3820
 Frc consts  --      0.9716                 0.9355                 1.0754
 IR Inten    --      1.5078                 2.0342                 4.0028

                     40                     41                     42
                      A                      A                      A
 Frequencies --   1154.5290              1162.9886              1201.1629
 Red. masses --      1.3485                 1.4946                 1.4755
 Frc consts  --      1.0591                 1.1910                 1.2542
 IR Inten    --      1.1173                 1.7807                 0.2399

                     43                     44                     45
                      A                      A                      A
 Frequencies --   1235.9928              1255.5775              1280.6341
 Red. masses --      1.4094                 1.2910                 1.2937
 Frc consts  --      1.2685                 1.1991                 1.2501
 IR Inten    --      0.4561                 0.4983                24.6536

                     46                     47                     48
                      A                      A                      A
 Frequencies --   1297.2686              1328.6675              1361.4796
 Red. masses --      2.0401                 1.4746                 1.2904
 Frc consts  --      2.0229                 1.5337                 1.4093
 IR Inten    --      1.8306                 2.8799                 0.5856

                     49                     50                     51
                      A                      A                      A
 Frequencies --   1370.9017              1391.4229              1404.0940
 Red. masses --      1.4518                 1.5846                 1.5124
 Frc consts  --      1.6075                 1.8075                 1.7567
 IR Inten    --      2.2702                 1.0693                 1.3607

                     52                     53                     54
                      A                      A                      A
 Frequencies --   1411.9606              1430.2763              1432.7206
 Red. masses --      1.6137                 2.1570                 2.0515
 Frc consts  --      1.8954                 2.5998                 2.4811
 IR Inten    --      0.4072                 3.0755                10.3216

                     55                     56                     57
                      A                      A                      A
 Frequencies --   1458.6870              1460.9783              1516.8117
 Red. masses --      2.6334                 1.2936                 1.3161
 Frc consts  --      3.3014                 1.6268                 1.7841
 IR Inten    --      4.5577                51.3466                 3.6301

                     58                     59                     60
                      A                      A                      A
 Frequencies --   1524.8439              3064.9498              3091.2483
 Red. masses --      1.3251                 1.0854                 1.0859
 Frc consts  --      1.8153                 6.0072                 6.1138
 IR Inten    --      4.0349                26.5866                38.1048

                     61                     62                     63
                      A                      A                      A
 Frequencies --   3134.9768              3137.6395              3147.0880
 Red. masses --      1.0873                 1.0871                 1.0876
 Frc consts  --      6.2962                 6.3057                 6.3465
 IR Inten    --      6.4162                12.5974                23.2241

                     64                     65                     66
                      A                      A                      A
 Frequencies --   3152.4496              3156.7321              3157.5640
 Red. masses --      1.0614                 1.0870                 1.0698
 Frc consts  --      6.2150                 6.3818                 6.2846
 IR Inten    --     18.5351                26.3589                21.7402

                     67                     68                     69
                      A                      A                      A
 Frequencies --   3160.0911              3166.2404              3171.8469
 Red. masses --      1.0848                 1.0810                 1.0910
 Frc consts  --      6.3824                 6.3851                 6.4667
 IR Inten    --     28.3562                41.7746                26.8024

                     70                     71                     72
                      A                      A                      A
 Frequencies --   3234.2602              3253.1928              3734.5433
 Red. masses --      1.1164                 1.1119                 1.0651
 Frc consts  --      6.8805                 6.9334                 8.7524
 IR Inten    --     14.1428                 8.7531                 8.5811

 - Thermochemistry -
 -------------------
 Temperature   298.150 Kelvin.  Pressure   1.00000 Atm.
 Atom     1 has atomic number  6 and mass  12.00000

 Molecular mass:   162.10447 amu.
 Principal axes and moments of inertia in atomic units:
                           1         2         3
     Eigenvalues --  1363.818071581.951521826.45982
           X            0.99649  -0.08289   0.01137
           Y            0.08236   0.99573   0.04166
           Z           -0.01477  -0.04058   0.99907
 This molecule is an asymmetric top.
 Rotational symmetry number  1.
 Warning -- assumption of classical behavior for rotation
           may cause significant error
 Rotational temperatures (Kelvin)      0.06351     0.05475     0.04742
 Rotational constants (GHZ):           1.32330     1.14083     0.98811
 Zero-point vibrational energy     602632.2 (Joules/Mol)
                                  144.03254 (Kcal/Mol)
 Warning -- explicit consideration of  13 degrees of freedom as
           vibrations may cause significant error
 Vibrational temperatures:    254.62   319.37   333.19   419.23   428.29
          (Kelvin)            505.36   540.17   660.65   687.22   746.17
                              762.06   835.77   874.33   983.56  1035.02
                             1079.52  1132.34  1172.15  1200.05  1220.98
                             1239.62  1297.19  1320.03  1344.88  1398.78
                             1413.56  1430.13  1501.89  1509.54  1532.24
                             1537.32  1551.60  1578.72  1593.69  1609.02
                             1619.44  1641.38  1644.50  1653.46  1661.11
                             1673.28  1728.21  1778.32  1806.50  1842.55
                             1866.48  1911.66  1958.87  1972.42  2001.95
                             2020.18  2031.50  2057.85  2061.37  2098.73
                             2102.02  2182.35  2193.91  4409.78  4447.62
                             4510.53  4514.36  4527.96  4535.67  4541.83
                             4543.03  4546.67  4555.51  4563.58  4653.38
                             4680.62  5373.17

 Zero-point correction=                           0.229530 (Hartree/Particle)
 Thermal correction to Energy=                    0.238222
 Thermal correction to Enthalpy=                  0.239166
 Thermal correction to Gibbs Free Energy=         0.196637
 Sum of electronic and zero-point Energies=           -502.541882
 Sum of electronic and thermal Energies=              -502.533191
 Sum of electronic and thermal Enthalpies=            -502.532246
 Sum of electronic and thermal Free Energies=         -502.574776

                     E (Thermal)             CV                S
                      KCal/Mol        Cal/Mol-Kelvin    Cal/Mol-Kelvin
 Total                  149.486             38.959             89.511
 Electronic               0.000              0.000              0.000
 Translational            0.889              2.981             41.158
 Rotational               0.889              2.981             29.756
 Vibrational            147.709             32.997             18.597
 Vibration     1          0.628              1.871              2.360
 Vibration     2          0.648              1.808              1.943
 Vibration     3          0.653              1.793              1.867
 Vibration     4          0.687              1.690              1.466
 Vibration     5          0.691              1.678              1.430
 Vibration     6          0.728              1.573              1.161
 Vibration     7          0.746              1.522              1.058
 Vibration     8          0.817              1.341              0.769
 Vibration     9          0.834              1.300              0.716
 Vibration    10          0.874              1.209              0.613
 Vibration    11          0.885              1.184              0.588
 Vibration    12          0.938              1.073              0.484
 Vibration    13          0.966              1.016              0.437

                           ! Non-Optimized Parameters !
 Normal termination of Gaussian 16 at Wed Dec  9 17:47:55 2020.

 ----------------------------------------------------------------------
 # B3LYP/6-311++G(d,p) empiricaldispersion=gd3bj scf=xqc pop=npa geom=c
 heck
 ----------------------------------------------------------------------

 ---------------------------------------
 CID_130125093_JID_2605_Energie_neutraal
 ---------------------------------------
 Structure from the checkpoint file:  "JID_2605.chk"
 Charge =  0 Multiplicity = 1

 SCF Done:  E(RB3LYP) =  -502.909803667     A.U. after   13 cycles
 Normal termination of Gaussian 16 at Wed Dec  9 17:51:06 2020.

 ----------------------------------------------------------------------
 # B3LYP/6-311++G(d,p) empiricaldispersion=gd3bj scf=xqc pop=npa geom=c
 heck
 ----------------------------------------------------------------------

 -------------------------------------
 CID_130125093_JID_2605_Energie_kation
 -------------------------------------
 Structure from the checkpoint file:  "JID_2605.chk"
 Charge =  1 Multiplicity = 2

 SCF Done:  E(UB3LYP) =  -502.588876987     A.U. after   27 cycles
 Normal termination of Gaussian 16 at Wed Dec  9 18:00:08 2020.
 Gaussian 16:  ES64L-G16RevA.03 25-Dec-2016

 ----------------------------------------------------------------------
 # B3LYP/6-311++G(d,p) empiricaldispersion=gd3bj scf=xqc pop=npa geom=c
 heck
 ----------------------------------------------------------------------

 ------------------------------------
 CID_130125093_JID_2605_Energie_anion
 ------------------------------------
 Structure from the checkpoint file:  "JID_2605.chk"
 Charge = -1 Multiplicity = 2

                         Standard orientation:
 ---------------------------------------------------------------------
 Center     Atomic      Atomic             Coordinates (Angstroms)
 Number     Number       Type             X           Y           Z
 ---------------------------------------------------------------------
      1          6           0       -2.502607    0.382166   -0.480865
      2          6           0       -1.314825   -0.374125   -1.025605
      3          6           0       -1.753770   -0.596551    0.399587
      4          6           0       -0.859138   -0.058644    1.477048
      5          6           0        0.639091   -0.320224    1.538643
      6          6           0        0.109650    1.055469    1.152801
      7          6           0        0.293291    1.453711   -0.301936
      8          6           0        0.061275    0.238987   -1.232184
      9          6           0        1.172567   -0.787005   -0.956167
     10          6           0        1.446754   -1.075545    0.510825
     11          6           0        0.901065   -2.159587   -0.383889
     12          8           0        1.581914    2.031624   -0.512959
     13          1           0       -3.482912    0.091697   -0.848074
     14          1           0       -2.411495    1.439257   -0.252741
     15          1           0       -1.547295   -1.168617   -1.731241
     16          1           0       -2.251345   -1.535526    0.634807
     17          1           0       -1.335882    0.013257    2.453520
     18          1           0        1.031008   -0.412517    2.548886
     19          1           0        0.221982    1.872082    1.861729
     20          1           0       -0.405218    2.252798   -0.566278
     21          1           0        0.156002    0.592128   -2.264950
     22          1           0        2.038155   -0.705147   -1.608793
     23          1           0        2.491246   -1.184361    0.798390
     24          1           0        1.580350   -2.958408   -0.668321
     25          1           0       -0.124787   -2.476859   -0.243364
     26          1           0        2.224757    1.375302   -0.199454
 ---------------------------------------------------------------------

 SCF Done:  E(UB3LYP) =  -502.894240634     A.U. after   29 cycles

 The electronic state is 2-A.
 Alpha  occ. eigenvalues --  -19.01746 -10.11842 -10.07621 -10.07572 -10.07442
 Alpha  occ. eigenvalues --  -10.07428 -10.07413 -10.07293 -10.07067 -10.06911
 Alpha  occ. eigenvalues --  -10.06849 -10.06210  -0.92143  -0.79987  -0.75012
 Alpha  occ. eigenvalues --   -0.73079  -0.65317  -0.56274  -0.55166  -0.51189
 Alpha  occ. eigenvalues --   -0.50000  -0.47451  -0.44017  -0.42780  -0.41162
 Alpha  occ. eigenvalues --   -0.39418  -0.37107  -0.35616  -0.34787  -0.34266
 Alpha  occ. eigenvalues --   -0.31466  -0.29377  -0.28453  -0.26131  -0.26003
 Alpha  occ. eigenvalues --   -0.25184  -0.23985  -0.23058  -0.20996  -0.18601
 Alpha  occ. eigenvalues --   -0.17691  -0.16361  -0.16007  -0.14397   0.04604
 Alpha virt. eigenvalues --    0.06690   0.07155   0.08185   0.09156   0.09543
 Alpha virt. eigenvalues --    0.09867   0.10363   0.10597   0.12072   0.12748
 Alpha virt. eigenvalues --    0.12981   0.13533   0.14538   0.15441   0.16149

  Beta  occ. eigenvalues --  -19.01737 -10.11840 -10.07608 -10.07568 -10.07431
  Beta  occ. eigenvalues --  -10.07412 -10.07402 -10.07276 -10.07056 -10.06902
  Beta  occ. eigenvalues --  -10.06834 -10.06191  -0.92130  -0.79954  -0.74982
  Beta  occ. eigenvalues --   -0.73049  -0.65295  -0.56245  -0.55116  -0.51147
  Beta  occ. eigenvalues --   -0.49956  -0.47410  -0.43978  -0.42739  -0.41100
  Beta  occ. eigenvalues --   -0.39364  -0.37070  -0.35578  -0.34748  -0.34233
  Beta  occ. eigenvalues --   -0.31437  -0.29348  -0.28429  -0.26095  -0.25973
  Beta  occ. eigenvalues --   -0.25151  -0.23961  -0.23040  -0.20972  -0.18572
  Beta  occ. eigenvalues --   -0.17663  -0.16343  -0.15979  -0.14372
  Beta virt. eigenvalues --    0.07023   0.07828   0.08102   0.08583   0.09874
  Beta virt. eigenvalues --    0.10093   0.10578   0.10776   0.11028   0.12795
  Beta virt. eigenvalues --    0.13283   0.13420   0.13767   0.14925   0.15587

 Mulliken charges and spin densities:
               1          2
     1  C    0.879003  -1.525042
     2  C   -1.175313   0.809711
     3  C    0.466620  -0.539404
     4  C    0.150735  -0.384925
     5  C    0.286162  -0.481445
     6  C    0.031730  -0.027468
     7  C   -0.940272   0.207284
     8  C    1.934578  -1.377587
     9  C   -1.528507   1.069259
    10  C    1.230755  -1.283804
    11  C    0.784504  -1.221806
    12  O   -0.210693   0.011660
    13  H   -0.524748   0.679286
    14  H    0.150762  -0.036920
    15  H   -0.328035   0.553376
    16  H   -0.424292   0.649391
    17  H   -0.260474   0.474480
    18  H   -0.564901   0.789587
    19  H   -0.126225   0.349605
    20  H    0.106678   0.077110
    21  H    0.256150  -0.034930
    22  H   -0.404284   0.640023
    23  H   -0.454616   0.682937
    24  H   -0.588817   0.751886
    25  H    0.013930   0.145544
    26  H    0.239569   0.022192
 Sum of Mulliken charges =  -1.00000   1.00000

 Dipole moment (field-independent basis, Debye):
    X=             -0.9888    Y=              3.5032    Z=             -1.7543  Tot=              4.0408
 Quadrupole moment (field-independent basis, Debye-Ang):
   XX=           -127.0319   YY=           -114.8674   ZZ=           -115.3084
   XY=             -0.6095   XZ=             -1.5381   YZ=             -0.4863

 Summary of Natural Population Analysis:

                                       Natural Population
                Natural  -----------------------------------------------
    Atom  No    Charge         Core      Valence    Rydberg      Total
 -----------------------------------------------------------------------
      C    1   -0.19336      0.99959     2.18451    0.00926     3.19336
      C    2   -0.10943      0.99957     2.09747    0.01239     3.10943
      C    3   -0.11413      0.99956     2.10292    0.01164     3.11413
      C    4   -0.10584      0.99956     2.09365    0.01264     3.10584
      C    5   -0.10730      0.99956     2.09458    0.01316     3.10730
      C    6   -0.11923      0.99955     2.10853    0.01115     3.11923
      C    7    0.06792      0.99951     1.91813    0.01445     2.93208
      C    8   -0.12257      0.99955     2.10976    0.01326     3.12257
      C    9   -0.11550      0.99958     2.10338    0.01254     3.11550
      C   10   -0.11834      0.99957     2.10620    0.01257     3.11834
      C   11   -0.18983      0.99959     2.18085    0.00940     3.18983
      O   12   -0.37310      0.99990     3.36746    0.00574     4.37310
      H   13    0.10455      0.00000     0.39435    0.00110     0.39545
      H   14    0.10005      0.00000     0.39881    0.00114     0.39995
      H   15    0.10862      0.00000     0.38989    0.00149     0.39138
      H   16    0.10793      0.00000     0.39015    0.00192     0.39207
      H   17    0.10873      0.00000     0.38972    0.00155     0.39127
      H   18    0.11060      0.00000     0.38725    0.00215     0.38940
      H   19    0.10727      0.00000     0.39167    0.00107     0.39273
      H   20    0.08887      0.00000     0.40944    0.00169     0.41113
      H   21    0.10735      0.00000     0.39148    0.00117     0.39265
      H   22    0.10650      0.00000     0.39215    0.00135     0.39350
      H   23    0.10912      0.00000     0.38803    0.00285     0.39088
      H   24    0.10472      0.00000     0.39385    0.00143     0.39528
      H   25    0.10649      0.00000     0.39190    0.00160     0.39351
      H   26    0.22991      0.00000     0.26684    0.00325     0.27009
 =======================================================================
   * Total *    0.00000     11.99508    31.84296    0.16196    44.00000

 Normal termination of Gaussian 16 at Wed Dec  9 18:10:31 2020.
