 Gaussian 16, Revision A.03,

 -----------------------------------------------------------
 # opt freq B3LYP/6-31G(d) empiricaldispersion=gd3bj scf=xqc
 -----------------------------------------------------------

 -------------------------------
 CID_136251200_JID_7018_neutraal
 -------------------------------
 Symbolic Z-matrix:
 Charge =  0 Multiplicity = 1

 SCF Done:  E(RB3LYP) =  -1052.04644784     A.U. after   15 cycles
 SCF Done:  E(RB3LYP) =  -1052.05090547     A.U. after   13 cycles
 SCF Done:  E(RB3LYP) =  -1052.05257993     A.U. after   12 cycles
 SCF Done:  E(RB3LYP) =  -1052.05384108     A.U. after   14 cycles
 SCF Done:  E(RB3LYP) =  -1052.05409765     A.U. after   12 cycles
 SCF Done:  E(RB3LYP) =  -1052.05420841     A.U. after   12 cycles
 SCF Done:  E(RB3LYP) =  -1052.05422370     A.U. after   10 cycles
 SCF Done:  E(RB3LYP) =  -1052.05422727     A.U. after    9 cycles
 SCF Done:  E(RB3LYP) =  -1052.05422806     A.U. after    8 cycles
 SCF Done:  E(RB3LYP) =  -1052.05422833     A.U. after    8 cycles
 SCF Done:  E(RB3LYP) =  -1052.05422840     A.U. after    7 cycles
 Optimization completed.
    -- Stationary point found.
 Normal termination of Gaussian 16 at Fri Dec 11 11:44:42 2020.

 --------------------------------------------------------------------
 #N Geom=AllCheck Guess=TCheck SCRF=Check GenChk RB3LYP/6-31G(d) Freq
 --------------------------------------------------------------------

 Structure from the checkpoint file:  "JID_7018.chk"
 -------------------------------
 CID_136251200_JID_7018_neutraal
 -------------------------------
 Charge =  0 Multiplicity = 1

 SCF Done:  E(RB3LYP) =  -1052.05422840     A.U. after    1 cycles

  Exact polarizability: 227.232   9.788 167.109  -2.332   6.833 123.474
 Approx polarizability: 306.544  16.666 256.289  -5.425  16.955 196.317

                      1                      2                      3
                      A                      A                      A
 Frequencies --     20.7609                31.5793                49.2987
 Red. masses --      4.5861                 3.8127                 3.5799
 Frc consts  --      0.0012                 0.0022                 0.0051
 IR Inten    --      0.0353                 0.0595                 0.0865

                      4                      5                      6
                      A                      A                      A
 Frequencies --     62.7269                73.7913                89.9564
 Red. masses --      2.9249                 3.9270                 5.7851
 Frc consts  --      0.0068                 0.0126                 0.0276
 IR Inten    --      0.4764                 0.1863                 1.7609

                      7                      8                      9
                      A                      A                      A
 Frequencies --    123.4617               135.0712               190.7503
 Red. masses --      3.7052                 2.9552                 3.8058
 Frc consts  --      0.0333                 0.0318                 0.0816
 IR Inten    --      0.1002                 0.9111                 0.4692

                     10                     11                     12
                      A                      A                      A
 Frequencies --    230.1368               262.9771               285.3305
 Red. masses --      3.4409                 4.3211                 5.1547
 Frc consts  --      0.1074                 0.1761                 0.2473
 IR Inten    --      2.4716                 2.1618                 0.4742

                     13                     14                     15
                      A                      A                      A
 Frequencies --    305.3700               340.6101               383.6741
 Red. masses --      3.6233                 3.7324                 2.4459
 Frc consts  --      0.1991                 0.2551                 0.2121
 IR Inten    --      2.2858                 0.0331                 2.0251

                     16                     17                     18
                      A                      A                      A
 Frequencies --    417.3878               433.8403               489.9963
 Red. masses --      2.9968                 2.7728                 2.3679
 Frc consts  --      0.3076                 0.3075                 0.3350
 IR Inten    --      0.8403                 2.7945                58.3849

                     19                     20                     21
                      A                      A                      A
 Frequencies --    505.1446               531.7912               538.8910
 Red. masses --      2.5519                 3.1754                 2.6304
 Frc consts  --      0.3837                 0.5291                 0.4501
 IR Inten    --     13.3356                 4.7506                13.4309

                     22                     23                     24
                      A                      A                      A
 Frequencies --    619.1554               633.4019               651.5970
 Red. masses --      4.8254                 6.0649                 5.7781
 Frc consts  --      1.0899                 1.4336                 1.4454
 IR Inten    --     10.3524                 0.5043                 3.9784

                     25                     26                     27
                      A                      A                      A
 Frequencies --    682.1644               714.1171               739.7734
 Red. masses --      3.0075                 2.3048                 2.4327
 Frc consts  --      0.8246                 0.6925                 0.7844
 IR Inten    --     42.4022                19.7046                 8.8242

                     28                     29                     30
                      A                      A                      A
 Frequencies --    751.6201               769.6183               783.2264
 Red. masses --      2.9928                 2.0760                 2.1862
 Frc consts  --      0.9962                 0.7245                 0.7901
 IR Inten    --      6.8643                 2.6845                25.4397

                     31                     32                     33
                      A                      A                      A
 Frequencies --    796.5963               836.7269               863.5978
 Red. masses --      1.2748                 1.2911                 2.9173
 Frc consts  --      0.4766                 0.5326                 1.2819
 IR Inten    --      5.4508                 7.3703                 1.4789

                     34                     35                     36
                      A                      A                      A
 Frequencies --    865.8012               879.8031               917.9691
 Red. masses --      1.2525                 2.1252                 2.4541
 Frc consts  --      0.5532                 0.9692                 1.2184
 IR Inten    --      0.0215                 3.7058                 4.0477

                     37                     38                     39
                      A                      A                      A
 Frequencies --    932.5946               941.7021               946.7952
 Red. masses --      1.4520                 1.9628                 2.3092
 Frc consts  --      0.7441                 1.0255                 1.2196
 IR Inten    --      1.7251                11.9757                 2.3016

                     40                     41                     42
                      A                      A                      A
 Frequencies --    974.2047               983.1167               992.2620
 Red. masses --      1.3547                 1.9954                 1.8837
 Frc consts  --      0.7575                 1.1363                 1.0927
 IR Inten    --      0.8063                 8.1259                11.7697

                     43                     44                     45
                      A                      A                      A
 Frequencies --   1001.6652              1022.2305              1057.2622
 Red. masses --      1.2925                 6.2181                 1.8077
 Frc consts  --      0.7641                 3.8283                 1.1905
 IR Inten    --      1.7141                 1.2359                 0.9190

                     46                     47                     48
                      A                      A                      A
 Frequencies --   1060.2877              1067.7612              1079.0703
 Red. masses --      1.8807                 2.4754                 1.4105
 Frc consts  --      1.2457                 1.6628                 0.9677
 IR Inten    --      5.8835                 5.2738                 0.9167

                     49                     50                     51
                      A                      A                      A
 Frequencies --   1101.7896              1110.0420              1137.9088
 Red. masses --      1.9834                 1.6275                 2.3592
 Frc consts  --      1.4186                 1.1815                 1.7998
 IR Inten    --     11.4383                 3.1520                24.2362

                     52                     53                     54
                      A                      A                      A
 Frequencies --   1152.3300              1164.6323              1178.0125
 Red. masses --      1.2163                 1.4014                 1.7747
 Frc consts  --      0.9515                 1.1200                 1.4511
 IR Inten    --      0.6068                25.1498                 4.8497

                     55                     56                     57
                      A                      A                      A
 Frequencies --   1194.6206              1206.7292              1210.7845
 Red. masses --      1.1016                 2.6426                 1.1483
 Frc consts  --      0.9263                 2.2672                 0.9918
 IR Inten    --      0.6614                84.0894                 1.4535

                     58                     59                     60
                      A                      A                      A
 Frequencies --   1211.1573              1237.8197              1241.3245
 Red. masses --      1.4112                 1.7635                 2.2761
 Frc consts  --      1.2196                 1.5920                 2.0664
 IR Inten    --      1.4010                 0.7483                 5.1263

                     61                     62                     63
                      A                      A                      A
 Frequencies --   1267.9297              1280.1084              1289.4314
 Red. masses --      1.1997                 1.4972                 1.3422
 Frc consts  --      1.1363                 1.4456                 1.3148
 IR Inten    --      1.3849                44.9416                 2.7811

                     64                     65                     66
                      A                      A                      A
 Frequencies --   1332.2054              1361.2290              1366.3902
 Red. masses --      2.0171                 1.3192                 1.3331
 Frc consts  --      2.1092                 1.4402                 1.4665
 IR Inten    --      6.0837                51.8417                40.5887

                     67                     68                     69
                      A                      A                      A
 Frequencies --   1367.8221              1391.1732              1407.2275
 Red. masses --      2.3286                 1.2963                 1.4484
 Frc consts  --      2.5668                 1.4782                 1.6899
 IR Inten    --      3.3688                35.5023                14.3753

                     70                     71                     72
                      A                      A                      A
 Frequencies --   1438.5231              1441.7638              1495.5350
 Red. masses --      1.5190                 1.6388                 1.0898
 Frc consts  --      1.8520                 2.0071                 1.4361
 IR Inten    --     30.5543                 8.6506                 1.1006

                     73                     74                     75
                      A                      A                      A
 Frequencies --   1505.1135              1512.4315              1512.8495
 Red. masses --      1.9002                 1.1725                 1.1205
 Frc consts  --      2.5363                 1.5803                 1.5109
 IR Inten    --      9.3380                 9.0198                 6.2827

                     76                     77                     78
                      A                      A                      A
 Frequencies --   1537.9443              1547.3891              1549.0457
 Red. masses --      1.3594                 2.2590                 1.0998
 Frc consts  --      1.8944                 3.1868                 1.5549
 IR Inten    --      0.7717                 8.7857                32.7334

                     79                     80                     81
                      A                      A                      A
 Frequencies --   1649.1665              1668.2949              1739.7264
 Red. masses --      5.5985                 5.6070                 8.7429
 Frc consts  --      8.9713                 9.1945                15.5908
 IR Inten    --      1.0160                 2.6501               651.2557

                     82                     83                     84
                      A                      A                      A
 Frequencies --   2939.6939              2995.1495              3026.5711
 Red. masses --      1.0738                 1.0838                 1.0595
 Frc consts  --      5.4673                 5.7285                 5.7184
 IR Inten    --     77.9675                42.1692                32.1028

                     85                     86                     87
                      A                      A                      A
 Frequencies --   3059.5025              3084.3688              3095.2276
 Red. masses --      1.1003                 1.0908                 1.0601
 Frc consts  --      6.0682                 6.1142                 5.9838
 IR Inten    --     13.9841                81.3270                17.7955

                     88                     89                     90
                      A                      A                      A
 Frequencies --   3137.7160              3142.7986              3160.8762
 Red. masses --      1.0511                 1.0588                 1.1069
 Frc consts  --      6.0973                 6.1615                 6.5160
 IR Inten    --     25.3540                16.8694                 5.7386

                     91                     92                     93
                      A                      A                      A
 Frequencies --   3175.5013              3177.1956              3187.6111
 Red. masses --      1.0897                 1.0871                 1.0866
 Frc consts  --      6.4740                 6.4658                 6.5052
 IR Inten    --      7.8078                 7.7047                 0.1484

                     94                     95                     96
                      A                      A                      A
 Frequencies --   3197.5629              3207.1363              3211.9844
 Red. masses --      1.0906                 1.0934                 1.1186
 Frc consts  --      6.5697                 6.6263                 6.7994
 IR Inten    --     18.0115                27.6667                 0.8433

                     97                     98                     99
                      A                      A                      A
 Frequencies --   3214.1961              3227.0790              3575.7850
 Red. masses --      1.0976                 1.1150                 1.0754
 Frc consts  --      6.6808                 6.8412                 8.1018
 IR Inten    --     15.8141                30.2853                 9.4831

 - Thermochemistry -
 -------------------
 Temperature   298.150 Kelvin.  Pressure   1.00000 Atm.
 Atom     1 has atomic number  6 and mass  12.00000

 Molecular mass:   246.11907 amu.
 Principal axes and moments of inertia in atomic units:
                           1         2         3
     Eigenvalues --  2630.600018770.37586**********
           X            0.99989  -0.01449  -0.00000
           Y            0.01449   0.99981   0.01337
           Z           -0.00019  -0.01337   0.99991
 This molecule is an asymmetric top.
 Rotational symmetry number  1.
 Warning -- assumption of classical behavior for rotation
           may cause significant error
 Rotational temperatures (Kelvin)      0.03293     0.00988     0.00829
 Rotational constants (GHZ):           0.68606     0.20578     0.17269
 Zero-point vibrational energy     781706.2 (Joules/Mol)
                                  186.83227 (Kcal/Mol)
 Warning -- explicit consideration of  22 degrees of freedom as
           vibrations may cause significant error
 Vibrational temperatures:     29.87    45.44    70.93    90.25   106.17
          (Kelvin)            129.43   177.63   194.34   274.45   331.12
                              378.37   410.53   439.36   490.06   552.02
                              600.53   624.20   705.00   726.79   765.13
                              775.34   890.83   911.32   937.50   981.48
                             1027.46  1064.37  1081.41  1107.31  1126.89
                             1146.12  1203.86  1242.52  1245.69  1265.84
                             1320.75  1341.80  1354.90  1362.23  1401.66
                             1414.49  1427.64  1441.17  1470.76  1521.16
                             1525.52  1536.27  1552.54  1585.23  1597.10
                             1637.20  1657.95  1675.65  1694.90  1718.79
                             1736.21  1742.05  1742.59  1780.95  1785.99
                             1824.27  1841.79  1855.20  1916.75  1958.50
                             1965.93  1967.99  2001.59  2024.69  2069.71
                             2074.38  2151.74  2165.52  2176.05  2176.65
                             2212.76  2226.35  2228.73  2372.78  2400.30
                             2503.08  4229.56  4309.35  4354.56  4401.94
                             4437.72  4453.34  4514.47  4521.79  4547.80
                             4568.84  4571.28  4586.26  4600.58  4614.35
                             4621.33  4624.51  4643.05  5144.76

 Zero-point correction=                           0.297736 (Hartree/Particle)
 Thermal correction to Energy=                    0.313612
 Thermal correction to Enthalpy=                  0.314556
 Thermal correction to Gibbs Free Energy=         0.251728
 Sum of electronic and zero-point Energies=          -1051.756492
 Sum of electronic and thermal Energies=             -1051.740616
 Sum of electronic and thermal Enthalpies=           -1051.739672
 Sum of electronic and thermal Free Energies=        -1051.802500

                     E (Thermal)             CV                S
                      KCal/Mol        Cal/Mol-Kelvin    Cal/Mol-Kelvin
 Total                  196.795             61.071            132.233
 Electronic               0.000              0.000              0.000
 Translational            0.889              2.981             42.403
 Rotational               0.889              2.981             33.844
 Vibrational            195.017             55.110             55.987
 Vibration     1          0.593              1.986              6.560
 Vibration     2          0.594              1.983              5.728
 Vibration     3          0.595              1.978              4.845
 Vibration     4          0.597              1.972              4.370
 Vibration     5          0.599              1.966              4.050
 Vibration     6          0.602              1.956              3.661
 Vibration     7          0.610              1.929              3.045
 Vibration     8          0.613              1.918              2.873
 Vibration     9          0.634              1.853              2.221
 Vibration    10          0.652              1.795              1.878
 Vibration    11          0.670              1.741              1.642
 Vibration    12          0.683              1.701              1.502
 Vibration    13          0.696              1.664              1.387
 Vibration    14          0.720              1.594              1.209
 Vibration    15          0.753              1.505              1.025
 Vibration    16          0.780              1.432              0.901
 Vibration    17          0.795              1.396              0.846
 Vibration    18          0.846              1.272              0.684
 Vibration    19          0.860              1.239              0.645
 Vibration    20          0.887              1.180              0.583
 Vibration    21          0.894              1.164              0.568
 Vibration    22          0.979              0.991              0.418

                           ! Non-Optimized Parameters !
 Normal termination of Gaussian 16 at Fri Dec 11 11:56:00 2020.

 ----------------------------------------------------------------------
 # B3LYP/6-311++G(d,p) empiricaldispersion=gd3bj scf=xqc pop=npa geom=c
 heck
 ----------------------------------------------------------------------

 ---------------------------------------
 CID_136251200_JID_7018_Energie_neutraal
 ---------------------------------------
 Structure from the checkpoint file:  "JID_7018.chk"
 Charge =  0 Multiplicity = 1

 SCF Done:  E(RB3LYP) =  -1052.25542340     A.U. after   15 cycles
 Normal termination of Gaussian 16 at Fri Dec 11 12:04:43 2020.

 ----------------------------------------------------------------------
 # B3LYP/6-311++G(d,p) empiricaldispersion=gd3bj scf=xqc pop=npa geom=c
 heck
 ----------------------------------------------------------------------

 -------------------------------------
 CID_136251200_JID_7018_Energie_kation
 -------------------------------------
 Structure from the checkpoint file:  "JID_7018.chk"
 Charge =  1 Multiplicity = 2

 SCF Done:  E(UB3LYP) =  -1051.96361282     A.U. after   33 cycles
 SCF Done:  E(UB3LYP) =  -1051.96361282     a.u. after    1 cycles
 Normal termination of Gaussian 16 at Fri Dec 11 12:23:31 2020.
 Gaussian 16:  ES64L-G16RevA.03 25-Dec-2016

 ----------------------------------------------------------------------
 # B3LYP/6-311++G(d,p) empiricaldispersion=gd3bj scf=xqc pop=npa geom=c
 heck
 ----------------------------------------------------------------------

 ------------------------------------
 CID_136251200_JID_7018_Energie_anion
 ------------------------------------
 Structure from the checkpoint file:  "JID_7018.chk"
 Charge = -1 Multiplicity = 2

                         Standard orientation:
 ---------------------------------------------------------------------
 Center     Atomic      Atomic             Coordinates (Angstroms)
 Number     Number       Type             X           Y           Z
 ---------------------------------------------------------------------
      1          6           0        5.326914   -1.023589   -0.022810
      2          6           0        4.686134   -2.052140   -0.926349
      3          6           0        3.875769   -0.890446   -0.412390
      4          6           0        2.796859   -1.110839    0.625489
      5          6           0        2.506815    0.154968    1.450637
      6          7           0        2.064008    1.263843    0.615250
      7          6           0        0.845968    1.312640    0.261925
      8          7           0       -0.199579    0.429214    0.525892
      9          6           0       -1.539788    0.981348    0.342850
     10          6           0       -1.407088    1.867617   -0.908882
     11         16           0        0.238784    2.664343   -0.756689
     12          6           0       -2.588893   -0.095165    0.178517
     13          6           0       -2.318005   -1.255222   -0.556966
     14          6           0       -3.308298   -2.218294   -0.741995
     15          6           0       -4.580792   -2.031268   -0.197524
     16          6           0       -4.856627   -0.877506    0.536585
     17          6           0       -3.862806    0.083356    0.725279
     18          1           0        6.045988   -0.332043   -0.452306
     19          1           0        5.552798   -1.318839    0.999436
     20          1           0        4.968013   -2.065784   -1.975638
     21          1           0        4.484264   -3.036455   -0.510039
     22          1           0        3.646142   -0.103332   -1.126030
     23          1           0        1.871312   -1.444413    0.136321
     24          1           0        3.102520   -1.915381    1.309211
     25          1           0        1.780502   -0.087557    2.249050
     26          1           0        3.427272    0.467304    1.956061
     27          1           0       -0.070069   -0.175943    1.328764
     28          1           0       -1.816566    1.626631    1.191523
     29          1           0       -1.446523    1.255823   -1.814004
     30          1           0       -2.193341    2.623170   -0.948497
     31          1           0       -1.324455   -1.398102   -0.971159
     32          1           0       -3.086760   -3.117030   -1.310775
     33          1           0       -5.351299   -2.783356   -0.341136
     34          1           0       -5.842143   -0.727641    0.968277
     35          1           0       -4.076167    0.979304    1.303789
 ---------------------------------------------------------------------

 SCF Done:  E(UB3LYP) =  -1052.24615704     A.U. after   33 cycles
 SCF Done:  E(UB3LYP) =  -1052.24615704     a.u. after    1 cycles

 The electronic state is 2-A.
 Alpha  occ. eigenvalues --  -88.75737 -14.24352 -14.18935 -10.16874 -10.13312
 Alpha  occ. eigenvalues --  -10.11387 -10.10313 -10.09121 -10.09040 -10.08993
 Alpha  occ. eigenvalues --  -10.08989 -10.08244 -10.08107 -10.08096 -10.08044
 Alpha  occ. eigenvalues --  -10.08005 -10.07961  -7.84380  -5.80741  -5.80415
 Alpha  occ. eigenvalues --   -5.79777  -0.88322  -0.80648  -0.77763  -0.76364
 Alpha  occ. eigenvalues --   -0.70382  -0.68493  -0.65842  -0.65425  -0.60965
 Alpha  occ. eigenvalues --   -0.55493  -0.53033  -0.52083  -0.51708  -0.49396
 Alpha  occ. eigenvalues --   -0.48682  -0.47582  -0.42863  -0.42019  -0.41443
 Alpha  occ. eigenvalues --   -0.40152  -0.37648  -0.37061  -0.35274  -0.34667
 Alpha  occ. eigenvalues --   -0.33890  -0.32941  -0.32389  -0.31554  -0.31074
 Alpha  occ. eigenvalues --   -0.30647  -0.28745  -0.28061  -0.27276  -0.26771
 Alpha  occ. eigenvalues --   -0.26571  -0.25333  -0.24908  -0.23719  -0.21157
 Alpha  occ. eigenvalues --   -0.20300  -0.16545  -0.16367  -0.15988  -0.14978
 Alpha  occ. eigenvalues --   -0.13444   0.03992
 Alpha virt. eigenvalues --    0.05984   0.06496   0.06920   0.07029   0.07360
 Alpha virt. eigenvalues --    0.07687   0.08067   0.08299   0.08929   0.09305
 Alpha virt. eigenvalues --    0.09867   0.10388   0.10817   0.10951   0.11600

  Beta  occ. eigenvalues --  -88.75726 -14.24334 -14.18936 -10.16859 -10.13299
  Beta  occ. eigenvalues --  -10.11344 -10.10298 -10.09121 -10.09036 -10.08989
  Beta  occ. eigenvalues --  -10.08958 -10.08238 -10.08094 -10.08075 -10.08021
  Beta  occ. eigenvalues --  -10.07984 -10.07922  -7.84371  -5.80711  -5.80408
  Beta  occ. eigenvalues --   -5.79769  -0.88283  -0.80629  -0.77757  -0.76310
  Beta  occ. eigenvalues --   -0.70314  -0.68434  -0.65799  -0.65370  -0.60907
  Beta  occ. eigenvalues --   -0.55452  -0.52962  -0.52067  -0.51653  -0.49322
  Beta  occ. eigenvalues --   -0.48651  -0.47535  -0.42804  -0.41965  -0.41435
  Beta  occ. eigenvalues --   -0.40113  -0.37619  -0.36996  -0.35230  -0.34622
  Beta  occ. eigenvalues --   -0.33847  -0.32898  -0.32355  -0.31488  -0.31027
  Beta  occ. eigenvalues --   -0.30592  -0.28733  -0.27997  -0.27219  -0.26717
  Beta  occ. eigenvalues --   -0.26527  -0.25293  -0.24865  -0.23646  -0.21147
  Beta  occ. eigenvalues --   -0.20290  -0.16437  -0.16297  -0.15971  -0.14897
  Beta  occ. eigenvalues --   -0.13420
  Beta virt. eigenvalues --    0.06001   0.06498   0.07067   0.07183   0.07531
  Beta virt. eigenvalues --    0.07702   0.07746   0.08264   0.08622   0.09468
  Beta virt. eigenvalues --    0.09711   0.10037   0.10430   0.10948   0.11214

 Mulliken charges and spin densities:
               1          2
     1  C   -0.240060  -0.231414
     2  C   -0.250933  -0.109982
     3  C   -0.153986   0.350534
     4  C    0.035324  -0.241447
     5  C    0.151623  -0.561124
     6  N    0.030642   0.053701
     7  C   -0.033807  -0.039146
     8  N    0.061526   0.011439
     9  C    2.242156  -2.694019
    10  C    0.140662  -0.868897
    11  S    0.116601  -0.320887
    12  C   -0.858685   1.698117
    13  C   -1.010949   1.040527
    14  C    0.017218  -0.372038
    15  C    1.248686  -1.570690
    16  C    0.785324  -1.114680
    17  C   -1.444820   1.013799
    18  H    0.134386  -0.004189
    19  H    0.057967   0.073141
    20  H    0.103702   0.020568
    21  H    0.052559   0.079583
    22  H    0.193376   0.035325
    23  H   -0.095079   0.236862
    24  H   -0.137819   0.263105
    25  H   -0.346762   0.478783
    26  H    0.197975  -0.024546
    27  H    0.200820   0.057439
    28  H   -0.301060   0.559553
    29  H    0.121430   0.108255
    30  H   -0.185771   0.382014
    31  H    0.244251  -0.055091
    32  H   -0.493890   0.668657
    33  H   -0.284382   0.434989
    34  H   -0.622210   0.802078
    35  H   -0.676016   0.839680
 Sum of Mulliken charges =  -1.00000   1.00000

 Dipole moment (field-independent basis, Debye):
    X=              7.3186    Y=              0.3648    Z=             -2.8531  Tot=              7.8635
 Quadrupole moment (field-independent basis, Debye-Ang):
   XX=           -206.1021   YY=           -160.7406   ZZ=           -142.5995
   XY=             -7.3176   XZ=              4.4294   YZ=             -1.3528

 Summary of Natural Population Analysis:

                                       Natural Population
                Natural  -----------------------------------------------
    Atom  No    Charge         Core      Valence    Rydberg      Total
 -----------------------------------------------------------------------
      C    1   -0.20051      0.99963     2.19432    0.00657     3.20051
      C    2   -0.19923      0.99963     2.19316    0.00644     3.19923
      C    3   -0.11453      0.99959     2.10406    0.01088     3.11453
      C    4   -0.19526      0.99960     2.18549    0.01017     3.19526
      C    5   -0.09614      0.99960     2.08264    0.01390     3.09614
      N    6   -0.28901      0.99961     2.77834    0.01106     3.78901
      C    7    0.16958      0.99955     1.80800    0.02287     2.83042
      N    8   -0.33717      0.99965     2.82592    0.01160     3.83717
      C    9   -0.01579      0.99955     2.00130    0.01494     3.01579
      C   10   -0.23977      0.99957     2.22978    0.01042     3.23977
      S   11    0.11775      4.99956     2.86456    0.01813     7.88225
      C   12   -0.02397      0.99949     2.01127    0.01322     3.02397
      C   13   -0.09849      0.99950     2.08847    0.01051     3.09849
      C   14   -0.09835      0.99956     2.08898    0.00981     3.09835
      C   15   -0.09593      0.99956     2.08646    0.00992     3.09593
      C   16   -0.09636      0.99956     2.08610    0.01070     3.09636
      C   17   -0.09415      0.99951     2.08411    0.01054     3.09415
      H   18    0.09939      0.00000     0.39971    0.00090     0.40061
      H   19    0.09902      0.00000     0.39994    0.00104     0.40098
      H   20    0.09891      0.00000     0.40021    0.00087     0.40109
      H   21    0.10002      0.00000     0.39897    0.00100     0.39998
      H   22    0.11007      0.00000     0.38872    0.00121     0.38993
      H   23    0.10151      0.00000     0.39705    0.00144     0.39849
      H   24    0.09709      0.00000     0.40156    0.00135     0.40291
      H   25    0.08326      0.00000     0.41500    0.00174     0.41674
      H   26    0.09315      0.00000     0.40545    0.00140     0.40685
      H   27    0.19861      0.00000     0.29802    0.00337     0.30139
      H   28    0.09661      0.00000     0.40054    0.00285     0.40339
      H   29    0.10271      0.00000     0.39583    0.00145     0.39729
      H   30    0.11202      0.00000     0.38669    0.00129     0.38798
      H   31    0.10649      0.00000     0.39209    0.00142     0.39351
      H   32    0.10062      0.00000     0.39825    0.00113     0.39938
      H   33    0.10096      0.00000     0.39767    0.00137     0.39904
      H   34    0.10264      0.00000     0.39564    0.00172     0.39736
      H   35    0.10424      0.00000     0.39317    0.00258     0.39576
 =======================================================================
   * Total *    0.00000     20.99271    44.77746    0.22983    66.00000

 Normal termination of Gaussian 16 at Fri Dec 11 12:44:06 2020.
