 Gaussian 16, Revision A.03,

 -----------------------------------------------------------
 # opt freq B3LYP/6-31G(d) empiricaldispersion=gd3bj scf=xqc
 -----------------------------------------------------------

 -------------------------------
 CID_116127245_JID_2821_neutraal
 -------------------------------
 Symbolic Z-matrix:
 Charge =  0 Multiplicity = 1

 SCF Done:  E(RB3LYP) =  -863.919129972     A.U. after   13 cycles
 SCF Done:  E(RB3LYP) =  -863.922048921     A.U. after   12 cycles
 SCF Done:  E(RB3LYP) =  -863.917346835     A.U. after   11 cycles
 SCF Done:  E(RB3LYP) =  -863.923898598     A.U. after   11 cycles
 SCF Done:  E(RB3LYP) =  -863.925431863     A.U. after   11 cycles
 SCF Done:  E(RB3LYP) =  -863.925604812     A.U. after   11 cycles
 SCF Done:  E(RB3LYP) =  -863.926322586     A.U. after   11 cycles
 SCF Done:  E(RB3LYP) =  -863.926520682     A.U. after   10 cycles
 SCF Done:  E(RB3LYP) =  -863.926439713     A.U. after   10 cycles
 SCF Done:  E(RB3LYP) =  -863.926573570     A.U. after   10 cycles
 SCF Done:  E(RB3LYP) =  -863.926611494     A.U. after    9 cycles
 SCF Done:  E(RB3LYP) =  -863.926639822     A.U. after   10 cycles
 SCF Done:  E(RB3LYP) =  -863.926641584     A.U. after    9 cycles
 SCF Done:  E(RB3LYP) =  -863.926645717     A.U. after    9 cycles
 SCF Done:  E(RB3LYP) =  -863.926646429     A.U. after    7 cycles
 SCF Done:  E(RB3LYP) =  -863.926646715     A.U. after    7 cycles
 Optimization completed.
    -- Stationary point found.
 Normal termination of Gaussian 16 at Wed Dec  9 18:24:19 2020.

 --------------------------------------------------------------------
 #N Geom=AllCheck Guess=TCheck SCRF=Check GenChk RB3LYP/6-31G(d) Freq
 --------------------------------------------------------------------

 Structure from the checkpoint file:  "JID_2821.chk"
 -------------------------------
 CID_116127245_JID_2821_neutraal
 -------------------------------
 Charge =  0 Multiplicity = 1

 SCF Done:  E(RB3LYP) =  -863.926646715     A.U. after    1 cycles

  Exact polarizability: 134.413  -1.764 129.336  -0.286   3.390 116.975
 Approx polarizability: 167.992  -0.715 177.022  -1.531   7.224 181.810

                      1                      2                      3
                      A                      A                      A
 Frequencies --     37.2649                46.4586                57.1868
 Red. masses --      3.0450                 2.9542                 2.7290
 Frc consts  --      0.0025                 0.0038                 0.0053
 IR Inten    --      0.1189                 0.7107                 0.0270

                      4                      5                      6
                      A                      A                      A
 Frequencies --     69.7075                91.2658               127.5885
 Red. masses --      4.3385                 4.1236                 3.0861
 Frc consts  --      0.0124                 0.0202                 0.0296
 IR Inten    --      0.0959                 3.7362                 2.3909

                      7                      8                      9
                      A                      A                      A
 Frequencies --    154.1819               195.7170               211.5817
 Red. masses --      2.4800                 1.4081                 2.2872
 Frc consts  --      0.0347                 0.0318                 0.0603
 IR Inten    --      2.7660                 0.4943                 2.6695

                     10                     11                     12
                      A                      A                      A
 Frequencies --    227.0039               254.2907               259.2054
 Red. masses --      2.1476                 1.7957                 1.3045
 Frc consts  --      0.0652                 0.0684                 0.0516
 IR Inten    --      0.2965                 0.5735                 0.9480

                     13                     14                     15
                      A                      A                      A
 Frequencies --    269.9758               299.0729               305.5297
 Red. masses --      1.1557                 1.4718                 1.7294
 Frc consts  --      0.0496                 0.0776                 0.0951
 IR Inten    --      1.8364                 0.1135                 2.8792

                     16                     17                     18
                      A                      A                      A
 Frequencies --    335.3046               356.4519               373.3850
 Red. masses --      2.1764                 2.2783                 2.1534
 Frc consts  --      0.1442                 0.1706                 0.1769
 IR Inten    --      0.9542                 1.2974                 4.7420

                     19                     20                     21
                      A                      A                      A
 Frequencies --    389.6910               431.7538               456.8829
 Red. masses --      2.0947                 2.0167                 2.2379
 Frc consts  --      0.1874                 0.2215                 0.2752
 IR Inten    --      1.8257                 0.8236                 5.7411

                     22                     23                     24
                      A                      A                      A
 Frequencies --    528.1937               584.1792               629.4760
 Red. masses --      1.9338                 2.2679                 3.8617
 Frc consts  --      0.3179                 0.4560                 0.9016
 IR Inten    --      8.4595                 1.1954                 3.8694

                     25                     26                     27
                      A                      A                      A
 Frequencies --    724.6574               750.1327               795.9541
 Red. masses --      5.0294                 2.2701                 2.9949
 Frc consts  --      1.5561                 0.7526                 1.1179
 IR Inten    --      2.4517                31.3014                22.6307

                     28                     29                     30
                      A                      A                      A
 Frequencies --    810.0235               877.0074               907.5155
 Red. masses --      2.0278                 1.5866                 1.8778
 Frc consts  --      0.7839                 0.7190                 0.9112
 IR Inten    --     16.4069                 9.6353                 1.9880

                     31                     32                     33
                      A                      A                      A
 Frequencies --    913.9102               964.9691               975.7129
 Red. masses --      2.1349                 1.9479                 2.1584
 Frc consts  --      1.0506                 1.0687                 1.2107
 IR Inten    --      3.2307                 2.7568                22.0925

                     34                     35                     36
                      A                      A                      A
 Frequencies --   1002.6070              1009.7712              1022.3280
 Red. masses --      1.2024                 1.6177                 1.5653
 Frc consts  --      0.7121                 0.9718                 0.9639
 IR Inten    --     10.4920                 5.6601                22.9231

                     37                     38                     39
                      A                      A                      A
 Frequencies --   1061.9985              1073.4717              1083.5499
 Red. masses --      1.8080                 1.7472                 1.8904
 Frc consts  --      1.2015                 1.1862                 1.3077
 IR Inten    --      7.8008                30.1021                11.3669

                     40                     41                     42
                      A                      A                      A
 Frequencies --   1094.0820              1118.4471              1133.0625
 Red. masses --      2.1428                 1.9078                 1.2658
 Frc consts  --      1.5112                 1.4061                 0.9575
 IR Inten    --      5.6470                 7.9561                 4.3515

                     43                     44                     45
                      A                      A                      A
 Frequencies --   1156.2285              1181.9806              1212.0465
 Red. masses --      2.3179                 1.5115                 1.8212
 Frc consts  --      1.8257                 1.2441                 1.5763
 IR Inten    --     43.4495                 6.5480                 3.7465

                     46                     47                     48
                      A                      A                      A
 Frequencies --   1231.4505              1237.3026              1288.4718
 Red. masses --      1.4070                 1.9916                 1.1470
 Frc consts  --      1.2571                 1.7964                 1.1219
 IR Inten    --     11.9381                 9.4111                 5.2061

                     49                     50                     51
                      A                      A                      A
 Frequencies --   1307.6700              1321.9772              1341.6474
 Red. masses --      1.4247                 1.9769                 1.2432
 Frc consts  --      1.4354                 2.0355                 1.3185
 IR Inten    --     15.1619                 9.4100                18.1186

                     52                     53                     54
                      A                      A                      A
 Frequencies --   1359.4795              1366.2205              1383.9108
 Red. masses --      1.2581                 1.2361                 1.1770
 Frc consts  --      1.3700                 1.3594                 1.3281
 IR Inten    --     11.0090                15.8138                10.3471

                     55                     56                     57
                      A                      A                      A
 Frequencies --   1404.9270              1417.6020              1428.0340
 Red. masses --      1.3622                 1.2825                 1.3326
 Frc consts  --      1.5841                 1.5185                 1.6012
 IR Inten    --      1.2939                41.9057                 0.7688

                     58                     59                     60
                      A                      A                      A
 Frequencies --   1433.0144              1440.1454              1465.0831
 Red. masses --      1.3098                 1.3061                 1.1557
 Frc consts  --      1.5847                 1.5960                 1.4616
 IR Inten    --     11.7219                11.2798                 2.8789

                     61                     62                     63
                      A                      A                      A
 Frequencies --   1487.5817              1493.5170              1495.3604
 Red. masses --      1.0782                 1.0964                 1.1271
 Frc consts  --      1.4058                 1.4409                 1.4849
 IR Inten    --      3.1645                 6.5792                 0.3152

                     64                     65                     66
                      A                      A                      A
 Frequencies --   1499.9751              1509.7479              1513.2471
 Red. masses --      1.0880                 1.0755                 1.0740
 Frc consts  --      1.4423                 1.4443                 1.4490
 IR Inten    --      5.6552                 6.4198                 4.7856

                     67                     68                     69
                      A                      A                      A
 Frequencies --   1516.5312              1521.8413              1526.3444
 Red. masses --      1.0737                 1.1545                 1.1015
 Frc consts  --      1.4549                 1.5753                 1.5120
 IR Inten    --      6.1214                 3.5961                 2.7039

                     70                     71                     72
                      A                      A                      A
 Frequencies --   1530.3582              1533.4058              1537.5690
 Red. masses --      1.0611                 1.0858                 1.0564
 Frc consts  --      1.4641                 1.5042                 1.4715
 IR Inten    --     11.0544                14.7824                15.1726

                     73                     74                     75
                      A                      A                      A
 Frequencies --   1541.2382              1543.3021              2918.1334
 Red. masses --      1.0639                 1.0628                 1.0692
 Frc consts  --      1.4889                 1.4915                 5.3645
 IR Inten    --      1.2908                16.1303                42.2016

                     76                     77                     78
                      A                      A                      A
 Frequencies --   2926.1317              2933.0759              2943.3471
 Red. masses --      1.0645                 1.0732                 1.0645
 Frc consts  --      5.3702                 5.4398                 5.4336
 IR Inten    --     58.5240               105.2933               117.7997

                     79                     80                     81
                      A                      A                      A
 Frequencies --   2971.3325              3017.4086              3047.8055
 Red. masses --      1.0825                 1.0725                 1.0362
 Frc consts  --      5.6309                 5.7534                 5.6709
 IR Inten    --     40.5804                48.1447                10.5376

                     82                     83                     84
                      A                      A                      A
 Frequencies --   3054.8291              3065.3886              3065.9543
 Red. masses --      1.0343                 1.0596                 1.0846
 Frc consts  --      5.6869                 5.8660                 6.0067
 IR Inten    --     39.6785                32.0190                25.2920

                     85                     86                     87
                      A                      A                      A
 Frequencies --   3072.6285              3083.6027              3093.1201
 Red. masses --      1.0706                 1.0780                 1.0888
 Frc consts  --      5.9550                 6.0390                 6.1377
 IR Inten    --     55.1774                48.1834                32.2885

                     88                     89                     90
                      A                      A                      A
 Frequencies --   3103.5525              3114.0310              3117.0028
 Red. masses --      1.1027                 1.1002                 1.1037
 Frc consts  --      6.2577                 6.2860                 6.3181
 IR Inten    --     11.4384                29.5720                39.9090

                     91                     92                     93
                      A                      A                      A
 Frequencies --   3118.4709              3121.0551              3137.3827
 Red. masses --      1.0944                 1.1018                 1.1014
 Frc consts  --      6.2706                 6.3236                 6.3875
 IR Inten    --     22.5718                26.3816                13.6346

                     94                     95                     96
                      A                      A                      A
 Frequencies --   3171.7508              3193.9374              3507.7359
 Red. masses --      1.1050                 1.0945                 1.0749
 Frc consts  --      6.5493                 6.5786                 7.7923
 IR Inten    --      0.4961                 3.4980                 0.0381

 - Thermochemistry -
 -------------------
 Temperature   298.150 Kelvin.  Pressure   1.00000 Atm.
 Atom     1 has atomic number  6 and mass  12.00000

 Molecular mass:   190.15037 amu.
 Principal axes and moments of inertia in atomic units:
                           1         2         3
     Eigenvalues --  1886.680883602.722634554.59667
           X            0.99913  -0.03988   0.01212
           Y            0.03980   0.99919   0.00660
           Z           -0.01238  -0.00611   0.99990
 This molecule is an asymmetric top.
 Rotational symmetry number  1.
 Warning -- assumption of classical behavior for rotation
           may cause significant error
 Rotational temperatures (Kelvin)      0.04591     0.02404     0.01902
 Rotational constants (GHZ):           0.95657     0.50094     0.39625
 Zero-point vibrational energy     819534.3 (Joules/Mol)
                                  195.87340 (Kcal/Mol)
 Warning -- explicit consideration of  23 degrees of freedom as
           vibrations may cause significant error
 Vibrational temperatures:     53.62    66.84    82.28   100.29   131.31
          (Kelvin)            183.57   221.83   281.59   304.42   326.61
                              365.87   372.94   388.43   430.30   439.59
                              482.43   512.85   537.22   560.68   621.20
                              657.35   759.95   840.50   905.68  1042.62
                             1079.27  1145.20  1165.44  1261.82  1305.71
                             1314.91  1388.38  1403.83  1442.53  1452.84
                             1470.90  1527.98  1544.49  1558.99  1574.14
                             1609.20  1630.22  1663.55  1700.61  1743.86
                             1771.78  1780.20  1853.82  1881.45  1902.03
                             1930.33  1955.99  1965.69  1991.14  2021.38
                             2039.61  2054.62  2061.79  2072.05  2107.93
                             2140.30  2148.84  2151.49  2158.13  2172.19
                             2177.23  2181.95  2189.59  2196.07  2201.84
                             2206.23  2212.22  2217.50  2220.47  4198.54
                             4210.05  4220.04  4234.82  4275.08  4341.38
                             4385.11  4395.22  4410.41  4411.22  4420.83
                             4436.62  4450.31  4465.32  4480.40  4484.67
                             4486.78  4490.50  4513.99  4563.44  4595.36
                             5046.85

 Zero-point correction=                           0.312144 (Hartree/Particle)
 Thermal correction to Energy=                    0.327797
 Thermal correction to Enthalpy=                  0.328742
 Thermal correction to Gibbs Free Energy=         0.268872
 Sum of electronic and zero-point Energies=           -863.614503
 Sum of electronic and thermal Energies=              -863.598849
 Sum of electronic and thermal Enthalpies=            -863.597905
 Sum of electronic and thermal Free Energies=         -863.657775

                     E (Thermal)             CV                S
                      KCal/Mol        Cal/Mol-Kelvin    Cal/Mol-Kelvin
 Total                  205.696             57.279            126.006
 Electronic               0.000              0.000              0.000
 Translational            0.889              2.981             41.634
 Rotational               0.889              2.981             31.804
 Vibrational            203.919             51.317             52.568
 Vibration     1          0.594              1.982              5.399
 Vibration     2          0.595              1.979              4.963
 Vibration     3          0.596              1.975              4.552
 Vibration     4          0.598              1.969              4.162
 Vibration     5          0.602              1.955              3.633
 Vibration     6          0.611              1.926              2.982
 Vibration     7          0.620              1.898              2.620
 Vibration     8          0.636              1.846              2.173
 Vibration     9          0.643              1.823              2.030
 Vibration    10          0.651              1.800              1.903
 Vibration    11          0.665              1.756              1.701
 Vibration    12          0.668              1.747              1.667
 Vibration    13          0.674              1.728              1.596
 Vibration    14          0.692              1.675              1.422
 Vibration    15          0.696              1.663              1.386
 Vibration    16          0.716              1.605              1.234
 Vibration    17          0.732              1.562              1.138
 Vibration    18          0.745              1.527              1.066
 Vibration    19          0.758              1.492              1.001
 Vibration    20          0.793              1.401              0.853
 Vibration    21          0.815              1.346              0.775
 Vibration    22          0.883              1.188              0.591
 Vibration    23          0.941              1.066              0.478

 Optimization completed.
    -- Stationary point found.
 Normal termination of Gaussian 16 at Wed Dec  9 18:33:49 2020.

 ----------------------------------------------------------------------
 # B3LYP/6-311++G(d,p) empiricaldispersion=gd3bj scf=xqc pop=npa geom=c
 heck
 ----------------------------------------------------------------------

 ---------------------------------------
 CID_116127245_JID_2821_Energie_neutraal
 ---------------------------------------
 Structure from the checkpoint file:  "JID_2821.chk"
 Charge =  0 Multiplicity = 1

 SCF Done:  E(RB3LYP) =  -864.089792544     A.U. after   13 cycles
 Normal termination of Gaussian 16 at Wed Dec  9 18:38:15 2020.

 ----------------------------------------------------------------------
 # B3LYP/6-311++G(d,p) empiricaldispersion=gd3bj scf=xqc pop=npa geom=c
 heck
 ----------------------------------------------------------------------

 -------------------------------------
 CID_116127245_JID_2821_Energie_kation
 -------------------------------------
 Structure from the checkpoint file:  "JID_2821.chk"
 Charge =  1 Multiplicity = 2

 SCF Done:  E(UB3LYP) =  -863.817527278     A.U. after   23 cycles
 Normal termination of Gaussian 16 at Wed Dec  9 18:48:28 2020.
 Gaussian 16:  ES64L-G16RevA.03 25-Dec-2016

 ----------------------------------------------------------------------
 # B3LYP/6-311++G(d,p) empiricaldispersion=gd3bj scf=xqc pop=npa geom=c
 heck
 ----------------------------------------------------------------------

 ------------------------------------
 CID_116127245_JID_2821_Energie_anion
 ------------------------------------
 Structure from the checkpoint file:  "JID_2821.chk"
 Charge = -1 Multiplicity = 2

                         Standard orientation:
 ---------------------------------------------------------------------
 Center     Atomic      Atomic             Coordinates (Angstroms)
 Number     Number       Type             X           Y           Z
 ---------------------------------------------------------------------
      1          6           0       -2.004130    2.402143   -0.162726
      2          6           0       -0.762759    1.664316    0.348876
      3          6           0       -1.109699    0.590678    1.404898
      4          6           0       -2.284219   -0.368098    1.144942
      5         16           0       -1.996488   -1.874552    0.137653
      6          6           0       -2.111047   -1.240122   -1.567589
      7          7           0        0.027100    1.148870   -0.787070
      8          6           0        1.433773    1.569019   -0.801905
      9          6           0        2.360282    0.846525    0.183376
     10          7           0        2.800937   -0.472466   -0.259034
     11          6           0        3.982968   -0.902254    0.472366
     12          6           0        1.751339   -1.481660   -0.169709
     13          1           0       -2.609236    1.755766   -0.808840
     14          1           0       -1.715280    3.284997   -0.744413
     15          1           0       -2.640415    2.735303    0.664342
     16          1           0       -0.144514    2.405705    0.881981
     17          1           0       -0.212806    0.005081    1.625980
     18          1           0       -1.361025    1.138367    2.325890
     19          1           0       -2.599344   -0.781562    2.108893
     20          1           0       -3.155951    0.158037    0.741094
     21          1           0       -3.062555   -0.722349   -1.729325
     22          1           0       -1.273215   -0.576179   -1.784490
     23          1           0       -2.072348   -2.110483   -2.228417
     24          1           0       -0.395026    1.478292   -1.650877
     25          1           0        1.826613    1.388847   -1.808273
     26          1           0        1.522446    2.653720   -0.599603
     27          1           0        3.258012    1.469480    0.277073
     28          1           0        1.900622    0.818742    1.192391
     29          1           0        3.803932   -1.025228    1.559874
     30          1           0        4.322738   -1.866943    0.080103
     31          1           0        4.792636   -0.175816    0.340593
     32          1           0        1.451982   -1.692732    0.875821
     33          1           0        0.862806   -1.147981   -0.702308
     34          1           0        2.108429   -2.418339   -0.612379
 ---------------------------------------------------------------------

 SCF Done:  E(UB3LYP) =  -864.075422501     A.U. after   29 cycles

 The electronic state is 2-A.
 Alpha  occ. eigenvalues --  -88.73436 -14.20679 -14.19378 -10.09740 -10.09610
 Alpha  occ. eigenvalues --  -10.09288 -10.09155 -10.09010 -10.08694 -10.07655
 Alpha  occ. eigenvalues --  -10.06601 -10.05617  -7.82044  -5.78453  -5.78077
 Alpha  occ. eigenvalues --   -5.77401  -0.82791  -0.80254  -0.70748  -0.66958
 Alpha  occ. eigenvalues --   -0.63735  -0.61214  -0.60508  -0.56425  -0.53617
 Alpha  occ. eigenvalues --   -0.50672  -0.47436  -0.45095  -0.39516  -0.38524
 Alpha  occ. eigenvalues --   -0.37712  -0.36473  -0.35389  -0.35099  -0.33395
 Alpha  occ. eigenvalues --   -0.32602  -0.31831  -0.30141  -0.29969  -0.29494
 Alpha  occ. eigenvalues --   -0.29410  -0.28443  -0.26879  -0.26519  -0.25624
 Alpha  occ. eigenvalues --   -0.25160  -0.24379  -0.22816  -0.22510  -0.20457
 Alpha  occ. eigenvalues --   -0.13164  -0.12192  -0.11688   0.04485
 Alpha virt. eigenvalues --    0.06408   0.06976   0.07445   0.08634   0.08873
 Alpha virt. eigenvalues --    0.09172   0.09655   0.09996   0.10839   0.11188
 Alpha virt. eigenvalues --    0.11667   0.12329   0.12790   0.12922   0.13339

  Beta  occ. eigenvalues --  -88.73434 -14.20672 -14.19357 -10.09728 -10.09594
  Beta  occ. eigenvalues --  -10.09272 -10.09144 -10.08987 -10.08672 -10.07650
  Beta  occ. eigenvalues --  -10.06587 -10.05563  -7.82042  -5.78451  -5.78071
  Beta  occ. eigenvalues --   -5.77400  -0.82774  -0.80225  -0.70721  -0.66922
  Beta  occ. eigenvalues --   -0.63700  -0.61162  -0.60485  -0.56363  -0.53568
  Beta  occ. eigenvalues --   -0.50627  -0.47393  -0.45037  -0.39463  -0.38486
  Beta  occ. eigenvalues --   -0.37674  -0.36446  -0.35361  -0.35065  -0.33369
  Beta  occ. eigenvalues --   -0.32575  -0.31803  -0.30102  -0.29934  -0.29472
  Beta  occ. eigenvalues --   -0.29365  -0.28407  -0.26850  -0.26503  -0.25592
  Beta  occ. eigenvalues --   -0.25127  -0.24339  -0.22766  -0.22476  -0.20428
  Beta  occ. eigenvalues --   -0.13115  -0.12175  -0.11650
  Beta virt. eigenvalues --    0.06537   0.07187   0.07578   0.08069   0.09077
  Beta virt. eigenvalues --    0.09232   0.09546   0.10037   0.10451   0.11225
  Beta virt. eigenvalues --    0.11576   0.12046   0.12505   0.12924   0.13126

 Mulliken charges and spin densities:
               1          2
     1  C    2.366462  -3.166094
     2  C   -2.109630   2.134916
     3  C    0.936928  -0.980185
     4  C   -0.457701  -0.233625
     5  S   -0.126856   0.490230
     6  C    0.029550  -0.777046
     7  N   -0.067909   0.016124
     8  C    0.602072  -1.050106
     9  C   -0.305082  -0.063786
    10  N    0.038680   0.101846
    11  C    0.088020  -0.352167
    12  C   -0.300176  -0.155560
    13  H   -0.099048   0.247500
    14  H   -0.614683   0.776179
    15  H   -0.514248   0.671180
    16  H   -0.075124   0.237479
    17  H    0.392435  -0.309541
    18  H   -0.469848   0.643772
    19  H   -0.015608   0.252622
    20  H    0.194033  -0.020607
    21  H   -0.198234   0.368118
    22  H   -0.076689   0.215549
    23  H    0.084115   0.086433
    24  H    0.060467   0.191068
    25  H   -0.055988   0.200118
    26  H   -0.294339   0.456000
    27  H   -0.191790   0.342490
    28  H   -0.072456   0.170188
    29  H    0.033816   0.069849
    30  H   -0.025753   0.143613
    31  H   -0.176487   0.300555
    32  H   -0.017427   0.112793
    33  H    0.285893  -0.094114
    34  H    0.152608  -0.025793
 Sum of Mulliken charges =  -1.00000   1.00000

 Dipole moment (field-independent basis, Debye):
    X=              1.9918    Y=             -6.0043    Z=              0.0457  Tot=              6.3262
 Quadrupole moment (field-independent basis, Debye-Ang):
   XX=           -151.0172   YY=           -144.0622   ZZ=           -122.6517
   XY=              4.9124   XZ=              1.7009   YZ=              1.0482

 Summary of Natural Population Analysis:

                                       Natural Population
                Natural  -----------------------------------------------
    Atom  No    Charge         Core      Valence    Rydberg      Total
 -----------------------------------------------------------------------
      C    1   -0.29278      0.99964     2.28661    0.00653     3.29278
      C    2   -0.01237      0.99959     1.99769    0.01509     3.01237
      C    3   -0.19801      0.99958     2.18697    0.01146     3.19801
      C    4   -0.25223      0.99957     2.24099    0.01167     3.25223
      S    5    0.07863      4.99963     2.90395    0.01779     7.92137
      C    6   -0.35426      0.99962     2.34728    0.00737     3.35426
      N    7   -0.35166      0.99972     2.83794    0.01400     3.85166
      C    8   -0.08722      0.99961     2.07487    0.01275     3.08722
      C    9   -0.09027      0.99960     2.07743    0.01324     3.09027
      N   10   -0.27683      0.99973     2.76583    0.01127     3.77683
      C   11   -0.17351      0.99965     2.16704    0.00682     3.17351
      C   12   -0.18060      0.99964     2.17338    0.00759     3.18060
      H   13    0.09705      0.00000     0.40114    0.00181     0.40295
      H   14    0.10487      0.00000     0.39301    0.00212     0.39513
      H   15    0.10491      0.00000     0.39311    0.00198     0.39509
      H   16    0.08691      0.00000     0.41031    0.00278     0.41309
      H   17    0.10248      0.00000     0.39551    0.00201     0.39752
      H   18    0.09935      0.00000     0.39918    0.00147     0.40065
      H   19    0.10568      0.00000     0.39316    0.00116     0.39432
      H   20    0.10303      0.00000     0.39548    0.00149     0.39697
      H   21    0.09961      0.00000     0.39870    0.00169     0.40039
      H   22    0.11108      0.00000     0.38691    0.00201     0.38892
      H   23    0.10251      0.00000     0.39651    0.00098     0.39749
      H   24    0.17678      0.00000     0.31959    0.00363     0.32322
      H   25    0.09716      0.00000     0.40094    0.00190     0.40284
      H   26    0.08244      0.00000     0.41574    0.00182     0.41756
      H   27    0.09615      0.00000     0.40213    0.00171     0.40385
      H   28    0.08019      0.00000     0.41806    0.00175     0.41981
      H   29    0.07710      0.00000     0.42103    0.00187     0.42290
      H   30    0.09184      0.00000     0.40703    0.00113     0.40816
      H   31    0.09379      0.00000     0.40486    0.00135     0.40621
      H   32    0.07810      0.00000     0.42035    0.00155     0.42190
      H   33    0.11170      0.00000     0.38639    0.00191     0.38830
      H   34    0.08839      0.00000     0.41049    0.00112     0.41161
 =======================================================================
   * Total *   -0.00000     15.99557    36.82961    0.17483    53.00000

 Normal termination of Gaussian 16 at Wed Dec  9 19:00:44 2020.
