 Gaussian 16, Revision A.03,

 -----------------------------------------------------------
 # opt freq B3LYP/6-31G(d) empiricaldispersion=gd3bj scf=xqc
 -----------------------------------------------------------

 -------------------------------
 CID_105147560_JID_3019_neutraal
 -------------------------------
 Symbolic Z-matrix:
 Charge =  0 Multiplicity = 1

 SCF Done:  E(RB3LYP) =  -590.241499846     A.U. after   14 cycles
 SCF Done:  E(RB3LYP) =  -590.244739434     A.U. after   12 cycles
 SCF Done:  E(RB3LYP) =  -590.244992863     A.U. after   12 cycles
 SCF Done:  E(RB3LYP) =  -590.245064719     A.U. after   12 cycles
 SCF Done:  E(RB3LYP) =  -590.245093614     A.U. after   11 cycles
 SCF Done:  E(RB3LYP) =  -590.245143261     A.U. after   12 cycles
 SCF Done:  E(RB3LYP) =  -590.245205043     A.U. after   12 cycles
 SCF Done:  E(RB3LYP) =  -590.245230399     A.U. after   10 cycles
 SCF Done:  E(RB3LYP) =  -590.245236859     A.U. after   11 cycles
 SCF Done:  E(RB3LYP) =  -590.245238103     A.U. after    9 cycles
 SCF Done:  E(RB3LYP) =  -590.245463726     A.U. after   11 cycles
 SCF Done:  E(RB3LYP) =  -590.245466622     A.U. after   10 cycles
 SCF Done:  E(RB3LYP) =  -590.245466745     A.U. after    9 cycles
 SCF Done:  E(RB3LYP) =  -590.245466771     A.U. after    7 cycles
 SCF Done:  E(RB3LYP) =  -590.245466780     A.U. after    7 cycles
 Optimization completed.
    -- Stationary point found.
 Normal termination of Gaussian 16 at Wed Dec  9 23:07:23 2020.

 --------------------------------------------------------------------
 #N Geom=AllCheck Guess=TCheck SCRF=Check GenChk RB3LYP/6-31G(d) Freq
 --------------------------------------------------------------------

 Structure from the checkpoint file:  "JID_3019.chk"
 -------------------------------
 CID_105147560_JID_3019_neutraal
 -------------------------------
 Charge =  0 Multiplicity = 1

 SCF Done:  E(RB3LYP) =  -590.245466780     A.U. after    1 cycles

  Exact polarizability: 130.134  10.494  93.504  -4.000   6.409 102.512
 Approx polarizability: 184.043  27.960 139.514  -8.283  18.481 180.535

                      1                      2                      3
                      A                      A                      A
 Frequencies --     19.2490                25.2364                60.4245
 Red. masses --      2.6236                 4.1738                 4.8708
 Frc consts  --      0.0006                 0.0016                 0.0105
 IR Inten    --      0.7963                 1.8160                 1.8013

                      4                      5                      6
                      A                      A                      A
 Frequencies --     93.1401               196.0005               211.8264
 Red. masses --      3.9124                 4.3172                 3.4903
 Frc consts  --      0.0200                 0.0977                 0.0923
 IR Inten    --      2.4582                 4.5719                 1.1077

                      7                      8                      9
                      A                      A                      A
 Frequencies --    239.7910               274.5601               309.5131
 Red. masses --      2.8021                 1.3054                 2.9996
 Frc consts  --      0.0949                 0.0580                 0.1693
 IR Inten    --      2.5175                35.7760                12.2505

                     10                     11                     12
                      A                      A                      A
 Frequencies --    335.5458               378.6195               383.6669
 Red. masses --      2.5203                 3.2723                 2.9459
 Frc consts  --      0.1672                 0.2764                 0.2555
 IR Inten    --      8.4679                 3.9731                 2.4064

                     13                     14                     15
                      A                      A                      A
 Frequencies --    466.1292               574.1995               627.3023
 Red. masses --      3.2324                 4.4277                 4.6535
 Frc consts  --      0.4138                 0.8601                 1.0789
 IR Inten    --      6.4784                 3.9117                10.9881

                     16                     17                     18
                      A                      A                      A
 Frequencies --    654.9822               687.6368               739.7149
 Red. masses --      2.5225                 6.8979                 4.8270
 Frc consts  --      0.6376                 1.9217                 1.5562
 IR Inten    --      3.4170                 3.8895                 2.6344

                     19                     20                     21
                      A                      A                      A
 Frequencies --    774.9943               828.3005               850.1092
 Red. masses --      3.7640                 2.7544                 2.0191
 Frc consts  --      1.3320                 1.1134                 0.8597
 IR Inten    --      4.1417                41.4766                41.4495

                     22                     23                     24
                      A                      A                      A
 Frequencies --    870.3573               885.7607               934.5466
 Red. masses --      1.6074                 1.7056                 2.1051
 Frc consts  --      0.7174                 0.7884                 1.0832
 IR Inten    --      5.9125                40.3048                78.0958

                     25                     26                     27
                      A                      A                      A
 Frequencies --    943.4352               954.8665               964.1378
 Red. masses --      2.2714                 1.4098                 3.4390
 Frc consts  --      1.1911                 0.7574                 1.8835
 IR Inten    --     19.8444                 4.9488                24.2968

                     28                     29                     30
                      A                      A                      A
 Frequencies --    986.3986               988.6492              1001.0907
 Red. masses --      1.9531                 1.4937                 2.3513
 Frc consts  --      1.1196                 0.8602                 1.3884
 IR Inten    --     12.3741                 4.8686                20.7181

                     31                     32                     33
                      A                      A                      A
 Frequencies --   1039.5577              1073.3253              1080.3678
 Red. masses --      6.5369                 2.1968                 1.9709
 Frc consts  --      4.1622                 1.4911                 1.3553
 IR Inten    --      3.6746                 9.5556                14.5178

                     34                     35                     36
                      A                      A                      A
 Frequencies --   1105.3042              1128.0984              1133.1825
 Red. masses --      2.4247                 2.3976                 2.4403
 Frc consts  --      1.7453                 1.7977                 1.8462
 IR Inten    --     27.8879                36.2130                32.0227

                     37                     38                     39
                      A                      A                      A
 Frequencies --   1145.4063              1194.2721              1205.9804
 Red. masses --      2.2238                 1.3184                 3.9136
 Frc consts  --      1.7190                 1.1079                 3.3535
 IR Inten    --      8.2862                 2.6316                 2.2359

                     40                     41                     42
                      A                      A                      A
 Frequencies --   1241.6000              1242.7408              1262.9596
 Red. masses --      2.0155                 1.4485                 1.5498
 Frc consts  --      1.8307                 1.3180                 1.4565
 IR Inten    --      1.9880                12.9991                 5.6427

                     43                     44                     45
                      A                      A                      A
 Frequencies --   1282.9767              1299.7436              1319.5743
 Red. masses --      1.3123                 1.3550                 1.4482
 Frc consts  --      1.2727                 1.3487                 1.4858
 IR Inten    --      0.9586                 7.4075                12.1613

                     46                     47                     48
                      A                      A                      A
 Frequencies --   1325.0249              1340.2702              1366.7995
 Red. masses --      1.4557                 1.2940                 1.2448
 Frc consts  --      1.5059                 1.3695                 1.3701
 IR Inten    --      1.4456                12.0875                 1.8647

                     49                     50                     51
                      A                      A                      A
 Frequencies --   1389.8137              1413.7986              1421.7345
 Red. masses --      1.5837                 1.4016                 1.4579
 Frc consts  --      1.8024                 1.6506                 1.7363
 IR Inten    --      2.8040                 4.8289                 7.7599

                     52                     53                     54
                      A                      A                      A
 Frequencies --   1434.4594              1499.4665              1525.1782
 Red. masses --      1.4177                 2.2243                 1.0896
 Frc consts  --      1.7188                 2.9466                 1.4933
 IR Inten    --     10.1022                 0.2319                 2.3478

                     55                     56                     57
                      A                      A                      A
 Frequencies --   1537.8308              1553.4916              1602.4192
 Red. masses --      1.0829                 1.1043                 5.2608
 Frc consts  --      1.5088                 1.5702                 7.9590
 IR Inten    --      1.6048                 1.0427                 0.7952

                     58                     59                     60
                      A                      A                      A
 Frequencies --   1635.1781              1695.6497              2985.6670
 Red. masses --      5.1487                 1.0919                 1.0728
 Frc consts  --      8.1110                 1.8498                 5.6343
 IR Inten    --     21.8506                26.4514                32.4476

                     61                     62                     63
                      A                      A                      A
 Frequencies --   2992.5640              3045.4177              3060.9946
 Red. masses --      1.0737                 1.0833                 1.0865
 Frc consts  --      5.6654                 5.9194                 5.9980
 IR Inten    --    127.1344                 5.4474                40.3716

                     64                     65                     66
                      A                      A                      A
 Frequencies --   3081.5376              3119.6764              3130.0670
 Red. masses --      1.0619                 1.0961                 1.1016
 Frc consts  --      5.9412                 6.2855                 6.3590
 IR Inten    --     18.1285                21.6778                35.7169

                     67                     68                     69
                      A                      A                      A
 Frequencies --   3154.2135              3176.8769              3182.9308
 Red. masses --      1.0925                 1.0906                 1.0878
 Frc consts  --      6.4043                 6.4853                 6.4930
 IR Inten    --      9.1524                14.9697                 7.3675

                     70                     71                     72
                      A                      A                      A
 Frequencies --   3201.7071              3461.0342              3549.0383
 Red. masses --      1.0953                 1.0498                 1.0922
 Frc consts  --      6.6152                 7.4094                 8.1055
 IR Inten    --     19.1874                 0.8539                 0.0462

 - Thermochemistry -
 -------------------
 Temperature   298.150 Kelvin.  Pressure   1.00000 Atm.
 Atom     1 has atomic number  6 and mass  12.00000

 Molecular mass:   179.10586 amu.
 Principal axes and moments of inertia in atomic units:
                           1         2         3
     Eigenvalues --  1077.216403885.858104233.43013
           X            0.99994  -0.01108   0.00032
           Y            0.01108   0.99991  -0.00799
           Z           -0.00023   0.00799   0.99997
 This molecule is an asymmetric top.
 Rotational symmetry number  1.
 Warning -- assumption of classical behavior for rotation
           may cause significant error
 Rotational temperatures (Kelvin)      0.08041     0.02229     0.02046
 Rotational constants (GHZ):           1.67537     0.46444     0.42631
 Zero-point vibrational energy     579579.4 (Joules/Mol)
                                  138.52281 (Kcal/Mol)
 Warning -- explicit consideration of  14 degrees of freedom as
           vibrations may cause significant error
 Vibrational temperatures:     27.70    36.31    86.94   134.01   282.00
          (Kelvin)            304.77   345.01   395.03   445.32   482.78
                              544.75   552.01   670.66   826.15   902.55
                              942.37   989.36  1064.28  1115.04  1191.74
                             1223.12  1252.25  1274.41  1344.60  1357.39
                             1373.84  1387.18  1419.21  1422.45  1440.35
                             1495.69  1544.28  1554.41  1590.29  1623.08
                             1630.40  1647.98  1718.29  1735.14  1786.39
                             1788.03  1817.12  1845.92  1870.04  1898.57
                             1906.42  1928.35  1966.52  1999.63  2034.14
                             2045.56  2063.87  2157.40  2194.39  2212.60
                             2235.13  2305.52  2352.66  2439.66  4295.71
                             4305.63  4381.68  4404.09  4433.65  4488.52
                             4503.47  4538.21  4570.82  4579.53  4606.54
                             4979.66  5106.27

 Zero-point correction=                           0.220750 (Hartree/Particle)
 Thermal correction to Energy=                    0.232355
 Thermal correction to Enthalpy=                  0.233299
 Thermal correction to Gibbs Free Energy=         0.180559
 Sum of electronic and zero-point Energies=           -590.024717
 Sum of electronic and thermal Energies=              -590.013112
 Sum of electronic and thermal Enthalpies=            -590.012168
 Sum of electronic and thermal Free Energies=         -590.064908

                     E (Thermal)             CV                S
                      KCal/Mol        Cal/Mol-Kelvin    Cal/Mol-Kelvin
 Total                  145.805             43.595            111.000
 Electronic               0.000              0.000              0.000
 Translational            0.889              2.981             41.455
 Rotational               0.889              2.981             31.250
 Vibrational            144.027             37.633             38.295
 Vibration     1          0.593              1.986              6.710
 Vibration     2          0.593              1.985              6.173
 Vibration     3          0.597              1.973              4.443
 Vibration     4          0.602              1.954              3.593
 Vibration     5          0.636              1.845              2.170
 Vibration     6          0.643              1.823              2.028
 Vibration     7          0.657              1.780              1.804
 Vibration     8          0.677              1.720              1.567
 Vibration     9          0.699              1.656              1.365
 Vibration    10          0.717              1.605              1.233
 Vibration    11          0.749              1.516              1.045
 Vibration    12          0.753              1.505              1.025
 Vibration    13          0.823              1.325              0.748
 Vibration    14          0.931              1.087              0.496

 Optimization completed.
    -- Stationary point found.
 Normal termination of Gaussian 16 at Wed Dec  9 23:13:57 2020.

 ----------------------------------------------------------------------
 # B3LYP/6-311++G(d,p) empiricaldispersion=gd3bj scf=xqc pop=npa geom=c
 heck
 ----------------------------------------------------------------------

 ---------------------------------------
 CID_105147560_JID_3019_Energie_neutraal
 ---------------------------------------
 Structure from the checkpoint file:  "JID_3019.chk"
 Charge =  0 Multiplicity = 1

 SCF Done:  E(RB3LYP) =  -590.412617528     A.U. after   16 cycles
 Normal termination of Gaussian 16 at Wed Dec  9 23:16:30 2020.

 ----------------------------------------------------------------------
 # B3LYP/6-311++G(d,p) empiricaldispersion=gd3bj scf=xqc pop=npa geom=c
 heck
 ----------------------------------------------------------------------

 -------------------------------------
 CID_105147560_JID_3019_Energie_kation
 -------------------------------------
 Structure from the checkpoint file:  "JID_3019.chk"
 Charge =  1 Multiplicity = 2

 SCF Done:  E(UB3LYP) =  -590.096423310     A.U. after   30 cycles
 Normal termination of Gaussian 16 at Wed Dec  9 23:22:55 2020.
 Gaussian 16:  ES64L-G16RevA.03 25-Dec-2016

 ----------------------------------------------------------------------
 # B3LYP/6-311++G(d,p) empiricaldispersion=gd3bj scf=xqc pop=npa geom=c
 heck
 ----------------------------------------------------------------------

 ------------------------------------
 CID_105147560_JID_3019_Energie_anion
 ------------------------------------
 Structure from the checkpoint file:  "JID_3019.chk"
 Charge = -1 Multiplicity = 2

                         Standard orientation:
 ---------------------------------------------------------------------
 Center     Atomic      Atomic             Coordinates (Angstroms)
 Number     Number       Type             X           Y           Z
 ---------------------------------------------------------------------
      1          6           0        1.423119   -1.266446    0.537429
      2          6           0        2.868701   -1.563805    0.089986
      3          8           0        3.297471   -0.396398   -0.599079
      4          6           0        2.804964    0.689565    0.175454
      5          6           0        1.369167    0.286723    0.578950
      6          6           0        0.337097    0.870703   -0.403070
      7          6           0       -1.055907    0.308280   -0.177503
      8          6           0       -1.762672   -0.339575   -1.200394
      9          7           0       -2.998757   -0.830649   -1.081551
     10          7           0       -3.639494   -0.717642    0.083178
     11          6           0       -3.021680   -0.112001    1.103615
     12          6           0       -1.734210    0.419044    1.030473
     13          7           0        0.384639    2.338953   -0.342235
     14          1           0        0.706200   -1.659176   -0.189874
     15          1           0        1.185500   -1.720360    1.503410
     16          1           0        3.515654   -1.750338    0.963368
     17          1           0        2.955945   -2.411261   -0.594413
     18          1           0        2.836829    1.595445   -0.431326
     19          1           0        3.428986    0.834672    1.072802
     20          1           0        1.136323    0.650141    1.587615
     21          1           0        0.657585    0.585456   -1.413308
     22          1           0       -1.309030   -0.474640   -2.180776
     23          1           0       -3.600426   -0.058955    2.022379
     24          1           0       -1.287222    0.898320    1.897896
     25          1           0       -0.247818    2.734871   -1.035970
     26          1           0        0.045519    2.657433    0.565439
 ---------------------------------------------------------------------

 SCF Done:  E(UB3LYP) =  -590.417461710     A.U. after   33 cycles
 SCF Done:  E(UB3LYP) =  -590.417461710     a.u. after    1 cycles

 The electronic state is 2-A.
 Alpha  occ. eigenvalues --  -19.01958 -14.18686 -14.16905 -14.16803 -10.11164
 Alpha  occ. eigenvalues --  -10.10132 -10.08863 -10.06609 -10.06134 -10.06009
 Alpha  occ. eigenvalues --  -10.05996 -10.03691 -10.03212  -0.93893  -0.85248
 Alpha  occ. eigenvalues --   -0.78455  -0.68437  -0.66678  -0.66257  -0.63313
 Alpha  occ. eigenvalues --   -0.55949  -0.50671  -0.49570  -0.48990  -0.45564
 Alpha  occ. eigenvalues --   -0.40163  -0.39330  -0.37110  -0.36857  -0.35237
 Alpha  occ. eigenvalues --   -0.34380  -0.33711  -0.32310  -0.29695  -0.28312
 Alpha  occ. eigenvalues --   -0.27186  -0.27134  -0.25360  -0.24086  -0.23661
 Alpha  occ. eigenvalues --   -0.22091  -0.21217  -0.16742  -0.15695  -0.15319
 Alpha  occ. eigenvalues --   -0.14650  -0.13161  -0.07894   0.04685
 Alpha virt. eigenvalues --    0.06963   0.08287   0.08883   0.09268   0.10647
 Alpha virt. eigenvalues --    0.10890   0.11054   0.11346   0.12012   0.12579
 Alpha virt. eigenvalues --    0.13553   0.14348   0.15185   0.15550   0.15698

  Beta  occ. eigenvalues --  -19.01957 -14.18644 -14.16451 -14.16353 -10.11154
  Beta  occ. eigenvalues --  -10.10121 -10.08881 -10.06581 -10.06233 -10.06096
  Beta  occ. eigenvalues --  -10.05998 -10.03414 -10.02941  -0.93888  -0.84460
  Beta  occ. eigenvalues --   -0.78329  -0.68234  -0.66192  -0.65793  -0.63279
  Beta  occ. eigenvalues --   -0.55697  -0.50324  -0.49522  -0.48753  -0.45386
  Beta  occ. eigenvalues --   -0.40105  -0.39255  -0.36975  -0.36791  -0.35031
  Beta  occ. eigenvalues --   -0.34334  -0.33518  -0.32144  -0.29653  -0.28095
  Beta  occ. eigenvalues --   -0.27031  -0.25805  -0.25243  -0.24022  -0.23526
  Beta  occ. eigenvalues --   -0.21998  -0.21155  -0.16031  -0.15250  -0.14842
  Beta  occ. eigenvalues --   -0.13506  -0.11991  -0.07277
  Beta virt. eigenvalues --    0.07235   0.08369   0.09011   0.09440   0.10635
  Beta virt. eigenvalues --    0.10766   0.11094   0.11358   0.11550   0.12144
  Beta virt. eigenvalues --    0.12648   0.13641   0.14359   0.15164   0.15512

 Mulliken charges and spin densities:
               1          2
     1  C   -0.335446  -0.171677
     2  C    0.190151  -0.574372
     3  O   -0.108071   0.018590
     4  C   -0.140510  -0.470868
     5  C    0.010456   0.776284
     6  C   -0.512965  -0.992200
     7  C    0.801609   0.393247
     8  C   -0.897324   0.101865
     9  N   -0.053616   0.206302
    10  N   -0.143135   0.197201
    11  C   -0.405441  -0.246788
    12  C    0.200699   0.218070
    13  N   -0.253618  -0.020562
    14  H    0.204992  -0.026388
    15  H   -0.054009   0.210470
    16  H   -0.118049   0.244053
    17  H    0.112840   0.038539
    18  H    0.141107   0.058976
    19  H   -0.191997   0.319172
    20  H   -0.192431   0.398844
    21  H    0.221104   0.006636
    22  H    0.118014   0.015661
    23  H    0.101176   0.034710
    24  H   -0.048670   0.156029
    25  H    0.183815   0.044230
    26  H    0.169318   0.063978
 Sum of Mulliken charges =  -1.00000   1.00000

 Dipole moment (field-independent basis, Debye):
    X=              4.0885    Y=              1.6809    Z=             -0.0823  Tot=              4.4213
 Quadrupole moment (field-independent basis, Debye-Ang):
   XX=           -148.9291   YY=            -95.4667   ZZ=            -97.1922
   XY=            -12.3913   XZ=             -8.2596   YZ=             -0.2062

 Summary of Natural Population Analysis:

                                       Natural Population
                Natural  -----------------------------------------------
    Atom  No    Charge         Core      Valence    Rydberg      Total
 -----------------------------------------------------------------------
      C    1   -0.20485      0.99962     2.19665    0.00858     3.20485
      C    2   -0.01220      0.99961     2.00012    0.01247     3.01220
      O    3   -0.30111      0.99990     3.29271    0.00851     4.30111
      C    4   -0.01317      0.99957     1.99951    0.01409     3.01317
      C    5   -0.11857      0.99958     2.10599    0.01300     3.11857
      C    6   -0.01920      0.99954     2.00611    0.01355     3.01920
      C    7    0.00758      0.99947     1.98045    0.01249     2.99242
      C    8   -0.01881      0.99954     2.00345    0.01582     3.01881
      N    9   -0.07588      0.99973     2.55995    0.01621     3.57588
      N   10   -0.08077      0.99973     2.56506    0.01597     3.58077
      C   11   -0.01646      0.99961     2.00074    0.01611     3.01646
      C   12   -0.07348      0.99950     2.06308    0.01090     3.07348
      N   13   -0.42005      0.99977     2.91078    0.00949     3.92005
      H   14    0.10574      0.00000     0.39302    0.00124     0.39426
      H   15    0.10394      0.00000     0.39508    0.00098     0.39606
      H   16    0.07459      0.00000     0.42380    0.00161     0.42541
      H   17    0.08703      0.00000     0.41200    0.00097     0.41297
      H   18    0.10072      0.00000     0.39785    0.00143     0.39928
      H   19    0.07600      0.00000     0.42238    0.00162     0.42400
      H   20    0.10004      0.00000     0.39807    0.00188     0.39996
      H   21    0.09293      0.00000     0.40500    0.00208     0.40707
      H   22    0.08313      0.00000     0.41466    0.00221     0.41687
      H   23    0.08398      0.00000     0.41413    0.00190     0.41602
      H   24    0.09145      0.00000     0.40687    0.00168     0.40855
      H   25    0.17587      0.00000     0.32282    0.00131     0.32413
      H   26    0.17154      0.00000     0.32674    0.00172     0.32846
 =======================================================================
   * Total *    0.00000     12.99517    34.81701    0.18782    48.00000

 Normal termination of Gaussian 16 at Wed Dec  9 23:29:59 2020.
