 Gaussian 16, Revision A.03,

 -----------------------------------------------------------
 # opt freq B3LYP/6-31G(d) empiricaldispersion=gd3bj scf=xqc
 -----------------------------------------------------------

 -------------------------------
 CID_150774462_JID_1056_neutraal
 -------------------------------
 Symbolic Z-matrix:
 Charge =  0 Multiplicity = 1

 SCF Done:  E(RB3LYP) =  -562.095983445     A.U. after   16 cycles
 SCF Done:  E(RB3LYP) =  -562.102556868     A.U. after   17 cycles
 SCF Done:  E(RB3LYP) =  -562.107659629     A.U. after   15 cycles
 SCF Done:  E(RB3LYP) =  -562.110506714     A.U. after   17 cycles
 SCF Done:  E(RB3LYP) =  -562.112005963     A.U. after   14 cycles
 SCF Done:  E(RB3LYP) =  -562.112804221     A.U. after   14 cycles
 SCF Done:  E(RB3LYP) =  -562.113122401     A.U. after   16 cycles
 SCF Done:  E(RB3LYP) =  -562.113616135     A.U. after   14 cycles
 SCF Done:  E(RB3LYP) =  -562.113844642     A.U. after   15 cycles
 SCF Done:  E(RB3LYP) =  -562.113940271     A.U. after   13 cycles
 SCF Done:  E(RB3LYP) =  -562.113995848     A.U. after    9 cycles
 SCF Done:  E(RB3LYP) =  -562.113996299     A.U. after    8 cycles
 SCF Done:  E(RB3LYP) =  -562.113996890     A.U. after    9 cycles
 SCF Done:  E(RB3LYP) =  -562.113997172     A.U. after    9 cycles
 SCF Done:  E(RB3LYP) =  -562.113997630     A.U. after    8 cycles
 SCF Done:  E(RB3LYP) =  -562.113997846     A.U. after    8 cycles
 Optimization completed.
    -- Stationary point found.
 Normal termination of Gaussian 16 at Tue Dec  8 19:13:40 2020.

 --------------------------------------------------------------------
 #N Geom=AllCheck Guess=TCheck SCRF=Check GenChk RB3LYP/6-31G(d) Freq
 --------------------------------------------------------------------

 Structure from the checkpoint file:  "JID_1056.chk"
 -------------------------------
 CID_150774462_JID_1056_neutraal
 -------------------------------
 Charge =  0 Multiplicity = 1

 SCF Done:  E(RB3LYP) =  -562.113997846     A.U. after    1 cycles

  Exact polarizability: 113.922   0.248  69.671   7.258   5.033  77.189
 Approx polarizability: 170.898   8.395  99.531  31.698  15.326 135.501

                      1                      2                      3
                      A                      A                      A
 Frequencies --     30.7873                47.1559                73.6695
 Red. masses --      7.8067                 4.6260                 4.0995
 Frc consts  --      0.0044                 0.0061                 0.0131
 IR Inten    --      0.0784                 8.6965                 6.3738

                      4                      5                      6
                      A                      A                      A
 Frequencies --    116.0906               166.6646               193.4487
 Red. masses --      3.8197                 4.3754                 1.3571
 Frc consts  --      0.0303                 0.0716                 0.0299
 IR Inten    --     13.5929                 1.3300               201.9834

                      7                      8                      9
                      A                      A                      A
 Frequencies --    198.8775               213.8963               259.8374
 Red. masses --      5.9470                 5.8901                 1.0935
 Frc consts  --      0.1386                 0.1588                 0.0435
 IR Inten    --      6.5212                 2.3524                 0.2724

                     10                     11                     12
                      A                      A                      A
 Frequencies --    296.9820               329.8763               354.7141
 Red. masses --      3.5313                 4.1583                 1.5419
 Frc consts  --      0.1835                 0.2666                 0.1143
 IR Inten    --      5.7523                 0.0619                31.2788

                     13                     14                     15
                      A                      A                      A
 Frequencies --    370.5100               415.6397               477.9049
 Red. masses --      3.3063                 2.0168                 2.5146
 Frc consts  --      0.2674                 0.2053                 0.3384
 IR Inten    --      1.4919                17.9359                 6.3940

                     16                     17                     18
                      A                      A                      A
 Frequencies --    566.1594               581.8126               585.6762
 Red. masses --     10.3848                 1.5867                 3.5601
 Frc consts  --      1.9612                 0.3164                 0.7195
 IR Inten    --      6.2802                 1.6447                 9.8439

                     19                     20                     21
                      A                      A                      A
 Frequencies --    647.0158               701.1744               740.4878
 Red. masses --      2.7327                 3.0934                 3.3107
 Frc consts  --      0.6740                 0.8961                 1.0696
 IR Inten    --     37.6852                48.4203                 3.1126

                     22                     23                     24
                      A                      A                      A
 Frequencies --    812.5837               900.1765               901.2104
 Red. masses --      3.7530                 2.5745                 3.7858
 Frc consts  --      1.4600                 1.2291                 1.8116
 IR Inten    --     50.6794                44.0022               108.3639

                     25                     26                     27
                      A                      A                      A
 Frequencies --    920.5005               940.8581               998.6462
 Red. masses --      1.6672                 2.0985                 2.4191
 Frc consts  --      0.8323                 1.0945                 1.4214
 IR Inten    --    131.3482                10.4792                34.5666

                     28                     29                     30
                      A                      A                      A
 Frequencies --   1037.1740              1090.1791              1113.8038
 Red. masses --      1.3377                 1.6671                 2.0217
 Frc consts  --      0.8478                 1.1674                 1.4777
 IR Inten    --      2.5275                17.2740                24.7209

                     31                     32                     33
                      A                      A                      A
 Frequencies --   1148.7707              1176.2629              1248.3894
 Red. masses --      3.0837                 2.4152                 1.9052
 Frc consts  --      2.3976                 1.9688                 1.7494
 IR Inten    --     19.8473                 4.2870                30.6076

                     34                     35                     36
                      A                      A                      A
 Frequencies --   1252.1498              1308.8283              1331.2609
 Red. masses --      2.2085                 1.5994                 1.4859
 Frc consts  --      2.0402                 1.6142                 1.5515
 IR Inten    --     54.8506                21.0598                58.2311

                     37                     38                     39
                      A                      A                      A
 Frequencies --   1346.6552              1425.7852              1438.2347
 Red. masses --      1.3910                 1.6876                 1.4149
 Frc consts  --      1.4863                 2.0213                 1.7244
 IR Inten    --      0.0202                68.4305                38.4651

                     40                     41                     42
                      A                      A                      A
 Frequencies --   1451.8516              1516.8126              1521.0437
 Red. masses --      1.3687                 1.0725                 1.1905
 Frc consts  --      1.6999                 1.4538                 1.6228
 IR Inten    --      6.3355                 5.7938                12.7939

                     43                     44                     45
                      A                      A                      A
 Frequencies --   1533.1031              1644.2786              1706.7653
 Red. masses --      1.0482                 1.2854                 1.0936
 Frc consts  --      1.4516                 2.0476                 1.8769
 IR Inten    --      4.1420               112.9902                27.9257

                     46                     47                     48
                      A                      A                      A
 Frequencies --   1779.9860              2231.7557              3044.5492
 Red. masses --      7.4993                13.9439                 1.0670
 Frc consts  --     13.9993                40.9193                 5.8272
 IR Inten    --    251.3692               533.0776                 6.3680

                     49                     50                     51
                      A                      A                      A
 Frequencies --   3051.0623              3079.6907              3113.3151
 Red. masses --      1.0558                 1.0862                 1.0998
 Frc consts  --      5.7905                 6.0699                 6.2805
 IR Inten    --     49.5145                11.3344                39.0222

                     52                     53                     54
                      A                      A                      A
 Frequencies --   3144.3606              3471.4871              3479.7917
 Red. masses --      1.1005                 1.0494                 1.0737
 Frc consts  --      6.4109                 7.4512                 7.6601
 IR Inten    --     21.7209                 1.5234                21.9515

                     55                     56                     57
                      A                      A                      A
 Frequencies --   3562.4166              3593.9772              3724.1977
 Red. masses --      1.0929                 1.0456                 1.1050
 Frc consts  --      8.1717                 7.9572                 9.0295
 IR Inten    --      4.7794                48.6182                36.0597

 - Thermochemistry -
 -------------------
 Temperature   298.150 Kelvin.  Pressure   1.00000 Atm.
 Atom     1 has atomic number  6 and mass  12.00000

 Molecular mass:   158.09161 amu.
 Principal axes and moments of inertia in atomic units:
                           1         2         3
     Eigenvalues --  1108.668112592.282692967.07523
           X            0.99974   0.00563  -0.02205
           Y           -0.00552   0.99997   0.00493
           Z            0.02208  -0.00480   0.99974
 This molecule is an asymmetric top.
 Rotational symmetry number  1.
 Warning -- assumption of classical behavior for rotation
           may cause significant error
 Rotational temperatures (Kelvin)      0.07812     0.03341     0.02919
 Rotational constants (GHZ):           1.62785     0.69620     0.60826
 Zero-point vibrational energy     445072.4 (Joules/Mol)
                                  106.37486 (Kcal/Mol)
 Warning -- explicit consideration of  18 degrees of freedom as
           vibrations may cause significant error
 Vibrational temperatures:     44.30    67.85   105.99   167.03   239.79
          (Kelvin)            278.33   286.14   307.75   373.85   427.29
                              474.62   510.35   533.08   598.01   687.60
                              814.58   837.10   842.66   930.91  1008.83
                             1065.40  1169.13  1295.15  1296.64  1324.39
                             1353.68  1436.83  1492.26  1568.52  1602.52
                             1652.82  1692.38  1796.15  1801.56  1883.11
                             1915.39  1937.54  2051.39  2069.30  2088.89
                             2182.36  2188.44  2205.79  2365.75  2455.65
                             2561.00  3211.00  4380.43  4389.80  4430.99
                             4479.37  4524.03  4994.70  5006.64  5125.52
                             5170.93  5358.29

 Zero-point correction=                           0.169519 (Hartree/Particle)
 Thermal correction to Energy=                    0.181754
 Thermal correction to Enthalpy=                  0.182698
 Thermal correction to Gibbs Free Energy=         0.130281
 Sum of electronic and zero-point Energies=           -561.944479
 Sum of electronic and thermal Energies=              -561.932244
 Sum of electronic and thermal Enthalpies=            -561.931300
 Sum of electronic and thermal Free Energies=         -561.983717

                     E (Thermal)             CV                S
                      KCal/Mol        Cal/Mol-Kelvin    Cal/Mol-Kelvin
 Total                  114.052             43.481            110.320
 Electronic               0.000              0.000              0.000
 Translational            0.889              2.981             41.083
 Rotational               0.889              2.981             30.523
 Vibrational            112.275             37.520             38.714
 Vibration     1          0.594              1.984              5.778
 Vibration     2          0.595              1.979              4.933
 Vibration     3          0.599              1.966              4.053
 Vibration     4          0.608              1.936              3.164
 Vibration     5          0.624              1.883              2.473
 Vibration     6          0.635              1.849              2.195
 Vibration     7          0.637              1.841              2.143
 Vibration     8          0.644              1.820              2.010
 Vibration     9          0.668              1.746              1.663
 Vibration    10          0.691              1.679              1.434
 Vibration    11          0.713              1.616              1.261
 Vibration    12          0.731              1.566              1.145
 Vibration    13          0.743              1.533              1.078
 Vibration    14          0.779              1.436              0.907
 Vibration    15          0.834              1.299              0.716
 Vibration    16          0.922              1.104              0.512
 Vibration    17          0.939              1.071              0.482
 Vibration    18          0.943              1.062              0.475

                           ! Non-Optimized Parameters !
 Normal termination of Gaussian 16 at Tue Dec  8 19:17:30 2020.

 ----------------------------------------------------------------------
 # B3LYP/6-311++G(d,p) empiricaldispersion=gd3bj scf=xqc pop=npa geom=c
 heck
 ----------------------------------------------------------------------

 ---------------------------------------
 CID_150774462_JID_1056_Energie_neutraal
 ---------------------------------------
 Structure from the checkpoint file:  "JID_1056.chk"
 Charge =  0 Multiplicity = 1

 SCF Done:  E(RB3LYP) =  -562.295270103     A.U. after   16 cycles
 Normal termination of Gaussian 16 at Tue Dec  8 19:18:55 2020.

 ----------------------------------------------------------------------
 # B3LYP/6-311++G(d,p) empiricaldispersion=gd3bj scf=xqc pop=npa geom=c
 heck
 ----------------------------------------------------------------------

 -------------------------------------
 CID_150774462_JID_1056_Energie_kation
 -------------------------------------
 Structure from the checkpoint file:  "JID_1056.chk"
 Charge =  1 Multiplicity = 2

 SCF Done:  E(UB3LYP) =  -561.980970561     A.U. after   26 cycles
 Normal termination of Gaussian 16 at Tue Dec  8 19:22:03 2020.
 Gaussian 16:  ES64L-G16RevA.03 25-Dec-2016

 ----------------------------------------------------------------------
 # B3LYP/6-311++G(d,p) empiricaldispersion=gd3bj scf=xqc pop=npa geom=c
 heck
 ----------------------------------------------------------------------

 ------------------------------------
 CID_150774462_JID_1056_Energie_anion
 ------------------------------------
 Structure from the checkpoint file:  "JID_1056.chk"
 Charge = -1 Multiplicity = 2

                         Standard orientation:
 ---------------------------------------------------------------------
 Center     Atomic      Atomic             Coordinates (Angstroms)
 Number     Number       Type             X           Y           Z
 ---------------------------------------------------------------------
      1          6           0        1.782558    1.655043   -1.086922
      2          6           0        0.536796    1.296061   -0.274014
      3          6           0        0.225190   -0.239243   -0.361595
      4          6           0        1.425862   -1.043601    0.131620
      5          8           0        1.700876   -1.085711    1.328673
      6          7           0        2.177309   -1.656361   -0.817424
      7          7           0       -0.895660   -0.695198    0.479471
      8          7           0       -1.985772    0.269587    0.453143
      9          7           0       -2.976276   -0.189813   -0.151541
     10          7           0       -3.954568   -0.451123   -0.674831
     11          7           0        0.663183    1.807911    1.084912
     12          1           0        2.686931    1.233285   -0.633998
     13          1           0        1.898197    2.741413   -1.114552
     14          1           0        1.714113    1.283592   -2.116917
     15          1           0       -0.327045    1.797642   -0.722327
     16          1           0       -0.007996   -0.489804   -1.404365
     17          1           0        1.925426   -1.648060   -1.793410
     18          1           0        2.996185   -2.172579   -0.526605
     19          1           0       -0.558681   -0.664818    1.442598
     20          1           0       -0.244085    1.789767    1.545931
     21          1           0        1.290002    1.210670    1.623618
 ---------------------------------------------------------------------

 SCF Done:  E(UB3LYP) =  -562.297544991     A.U. after   32 cycles

 The electronic state is 2-A.
 Alpha  occ. eigenvalues --  -18.99074 -14.31886 -14.23841 -14.23181 -14.23122
 Alpha  occ. eigenvalues --  -14.21897 -14.17825 -10.17324 -10.09751 -10.09291
 Alpha  occ. eigenvalues --  -10.05277  -0.99734  -0.94101  -0.86862  -0.80614
 Alpha  occ. eigenvalues --   -0.78418  -0.74366  -0.64166  -0.58649  -0.50750
 Alpha  occ. eigenvalues --   -0.47662  -0.43616  -0.43300  -0.40177  -0.38463
 Alpha  occ. eigenvalues --   -0.37064  -0.36345  -0.34900  -0.32568  -0.31862
 Alpha  occ. eigenvalues --   -0.30793  -0.29717  -0.29156  -0.27157  -0.26169
 Alpha  occ. eigenvalues --   -0.24043  -0.22148  -0.17627  -0.16554  -0.14658
 Alpha  occ. eigenvalues --   -0.12476  -0.11367   0.04255
 Alpha virt. eigenvalues --    0.06012   0.08577   0.09263   0.09998   0.10801
 Alpha virt. eigenvalues --    0.12183   0.12417   0.12634   0.13263   0.14027
 Alpha virt. eigenvalues --    0.14457   0.15085   0.16563   0.17638   0.17854

  Beta  occ. eigenvalues --  -18.99062 -14.31556 -14.23895 -14.23047 -14.22693
  Beta  occ. eigenvalues --  -14.21779 -14.17810 -10.17318 -10.09732 -10.09281
  Beta  occ. eigenvalues --  -10.05257  -0.99078  -0.94069  -0.86557  -0.80507
  Beta  occ. eigenvalues --   -0.78328  -0.74127  -0.64082  -0.58502  -0.50675
  Beta  occ. eigenvalues --   -0.47484  -0.43405  -0.43192  -0.40087  -0.37924
  Beta  occ. eigenvalues --   -0.36663  -0.35895  -0.34436  -0.32413  -0.31560
  Beta  occ. eigenvalues --   -0.30073  -0.29591  -0.29082  -0.27004  -0.26125
  Beta  occ. eigenvalues --   -0.23990  -0.21283  -0.17558  -0.16521  -0.14560
  Beta  occ. eigenvalues --   -0.12350  -0.11206
  Beta virt. eigenvalues --    0.07454   0.08887   0.09453   0.09784   0.10484
  Beta virt. eigenvalues --    0.11417   0.12410   0.12727   0.12991   0.13286
  Beta virt. eigenvalues --    0.14146   0.14805   0.15263   0.16733   0.17644

 Mulliken charges and spin densities:
               1          2
     1  C    0.455362  -1.170021
     2  C   -0.898115   0.971785
     3  C    0.621296  -1.129354
     4  C    0.235241  -0.398870
     5  O   -0.373096  -0.001649
     6  N   -0.336011   0.063100
     7  N   -0.057985  -0.017270
     8  N   -0.696804   0.353562
     9  N    0.333369  -0.023641
    10  N    0.010938   0.095625
    11  N   -0.275172  -0.044203
    12  H   -0.030832   0.208804
    13  H    0.069604   0.084042
    14  H   -0.189617   0.328317
    15  H    0.080884   0.136558
    16  H   -0.052455   0.285074
    17  H   -0.406158   0.675507
    18  H   -0.187313   0.478355
    19  H    0.250451   0.027839
    20  H    0.178677   0.101535
    21  H    0.267735  -0.025095
 Sum of Mulliken charges =  -1.00000   1.00000

 Dipole moment (field-independent basis, Debye):
    X=              0.2266    Y=              2.2298    Z=              2.5132  Tot=              3.3674
 Quadrupole moment (field-independent basis, Debye-Ang):
   XX=           -119.9650   YY=            -94.2102   ZZ=            -93.3052
   XY=              2.5651   XZ=              2.1377   YZ=             -5.7852

 Summary of Natural Population Analysis:

                                       Natural Population
                Natural  -----------------------------------------------
    Atom  No    Charge         Core      Valence    Rydberg      Total
 -----------------------------------------------------------------------
      C    1   -0.28970      0.99964     2.28339    0.00667     3.28970
      C    2   -0.02138      0.99960     2.00867    0.01310     3.02138
      C    3   -0.05228      0.99953     2.03718    0.01557     3.05228
      C    4    0.33808      0.99966     1.63625    0.02601     2.66192
      O    5   -0.33744      0.99988     3.33170    0.00587     4.33744
      N    6   -0.39066      0.99970     2.88189    0.00907     3.89066
      N    7   -0.24328      0.99972     2.72971    0.01385     3.74328
      N    8   -0.16625      0.99973     2.65021    0.01632     3.66625
      N    9    0.14111      0.99971     2.34389    0.01529     3.35889
      N   10    0.01312      0.99982     2.47304    0.01402     3.48688
      N   11   -0.42965      0.99976     2.92036    0.00953     3.92965
      H   12    0.09826      0.00000     0.40074    0.00100     0.40174
      H   13    0.10147      0.00000     0.39751    0.00102     0.39853
      H   14    0.09957      0.00000     0.39922    0.00121     0.40043
      H   15    0.09958      0.00000     0.39870    0.00173     0.40042
      H   16    0.09885      0.00000     0.39892    0.00223     0.40115
      H   17    0.20310      0.00000     0.28184    0.01506     0.29690
      H   18    0.19600      0.00000     0.30111    0.00289     0.30400
      H   19    0.17941      0.00000     0.31768    0.00290     0.32059
      H   20    0.18147      0.00000     0.31651    0.00202     0.31853
      H   21    0.18061      0.00000     0.31743    0.00196     0.31939
 =======================================================================
   * Total *   -0.00000     10.99675    30.82594    0.17731    42.00000

 Normal termination of Gaussian 16 at Tue Dec  8 19:25:45 2020.
