 Gaussian 16, Revision A.03,

 -----------------------------------------------------------
 # opt freq B3LYP/6-31G(d) empiricaldispersion=gd3bj scf=xqc
 -----------------------------------------------------------

 ----------------------------
 CID_568585_JID_1483_neutraal
 ----------------------------
 Symbolic Z-matrix:
 Charge =  0 Multiplicity = 1

 SCF Done:  E(RB3LYP) =  -545.031371440     A.U. after   16 cycles
 SCF Done:  E(RB3LYP) =  -545.036609737     A.U. after   15 cycles
 SCF Done:  E(RB3LYP) =  -545.029901318     A.U. after   17 cycles
 SCF Done:  E(RB3LYP) =  -545.037730106     A.U. after   15 cycles
 SCF Done:  E(RB3LYP) =  -545.038471976     A.U. after   17 cycles
 SCF Done:  E(RB3LYP) =  -545.039130023     A.U. after   17 cycles
 SCF Done:  E(RB3LYP) =  -545.039394526     A.U. after   15 cycles
 SCF Done:  E(RB3LYP) =  -545.039420656     A.U. after   14 cycles
 SCF Done:  E(RB3LYP) =  -545.039422729     A.U. after   11 cycles
 SCF Done:  E(RB3LYP) =  -545.039423350     A.U. after    9 cycles
 SCF Done:  E(RB3LYP) =  -545.039423425     A.U. after   10 cycles
 Optimization completed.
    -- Stationary point found.
 Normal termination of Gaussian 16 at Tue Dec  8 20:05:50 2020.

 --------------------------------------------------------------------
 #N Geom=AllCheck Guess=TCheck SCRF=Check GenChk RB3LYP/6-31G(d) Freq
 --------------------------------------------------------------------

 Structure from the checkpoint file:  "JID_1483.chk"
 ----------------------------
 CID_568585_JID_1483_neutraal
 ----------------------------
 Charge =  0 Multiplicity = 1

 SCF Done:  E(RB3LYP) =  -545.039423425     A.U. after    1 cycles

  Exact polarizability: 108.520  12.481 104.493   0.009   1.644  33.821
 Approx polarizability: 181.615  36.506 206.660   3.099  10.488  56.555

                      1                      2                      3
                      A                      A                      A
 Frequencies --     33.7576               105.7352               159.0064
 Red. masses --     14.9289                 5.9400                12.9687
 Frc consts  --      0.0100                 0.0391                 0.1932
 IR Inten    --      0.1697                 2.1252                 2.5588

                      4                      5                      6
                      A                      A                      A
 Frequencies --    185.5305               245.8340               371.0724
 Red. masses --      6.8040                 8.4029                11.5986
 Frc consts  --      0.1380                 0.2992                 0.9410
 IR Inten    --      2.3951                 3.2531                 2.4716

                      7                      8                      9
                      A                      A                      A
 Frequencies --    383.7900               416.5796               471.3184
 Red. masses --      6.2823                 6.1570                 6.7476
 Frc consts  --      0.5452                 0.6295                 0.8831
 IR Inten    --      2.8005                 2.8610                 1.6729

                     10                     11                     12
                      A                      A                      A
 Frequencies --    546.3746               585.3308               602.8535
 Red. masses --      8.6258                 6.1536                 6.2428
 Frc consts  --      1.5172                 1.2422                 1.3368
 IR Inten    --      2.0450                 1.3674                 0.9491

                     13                     14                     15
                      A                      A                      A
 Frequencies --    671.0126               704.3429               800.9564
 Red. masses --      8.3128                 5.1255                10.3182
 Frc consts  --      2.2053                 1.4982                 3.9001
 IR Inten    --     14.8821                20.7187                 0.8816

                     16                     17                     18
                      A                      A                      A
 Frequencies --    803.1627               832.1820               872.6142
 Red. masses --      9.6913                 1.3416                 9.7786
 Frc consts  --      3.6833                 0.5474                 4.3870
 IR Inten    --     14.2919                24.4823                32.4020

                     19                     20                     21
                      A                      A                      A
 Frequencies --    976.9906              1008.1720              1092.0673
 Red. masses --      1.3712                 1.3655                 2.7218
 Frc consts  --      0.7712                 0.8177                 1.9125
 IR Inten    --      0.2829                 0.4222                 1.4246

                     22                     23                     24
                      A                      A                      A
 Frequencies --   1117.9855              1179.7778              1245.6118
 Red. masses --      3.3739                 1.6027                 2.9017
 Frc consts  --      2.4846                 1.3144                 2.6526
 IR Inten    --      7.9918                 0.9423                 4.5168

                     25                     26                     27
                      A                      A                      A
 Frequencies --   1290.0463              1349.1593              1401.5763
 Red. masses --      2.6297                 3.0108                13.0572
 Frc consts  --      2.5785                 3.2289                15.1124
 IR Inten    --      2.1440                 9.9957               117.6370

                     28                     29                     30
                      A                      A                      A
 Frequencies --   1461.6317              1500.9304              1606.5636
 Red. masses --      2.9375                 2.4041                 4.7933
 Frc consts  --      3.6975                 3.1910                 7.2892
 IR Inten    --     55.8982                 5.5413                10.2366

                     31                     32                     33
                      A                      A                      A
 Frequencies --   1649.7579              1679.5091              2358.5473
 Red. masses --      7.8590                12.7803                12.6764
 Frc consts  --     12.6025                21.2401                41.5465
 IR Inten    --     92.9896               146.2527                 1.4230

                     34                     35                     36
                      A                      A                      A
 Frequencies --   3204.4477              3225.3848              3237.7903
 Red. masses --      1.0903                 1.0911                 1.0975
 Frc consts  --      6.5965                 6.6877                 6.7785
 IR Inten    --      7.4010                 3.3560                 2.9402

 - Thermochemistry -
 -------------------
 Temperature   298.150 Kelvin.  Pressure   1.00000 Atm.
 Atom     1 has atomic number  6 and mass  12.00000

 Molecular mass:   149.02253 amu.
 Principal axes and moments of inertia in atomic units:
                           1         2         3
     Eigenvalues --  1191.008281428.112702572.20484
           X            0.99991  -0.01340  -0.00069
           Y            0.01340   0.99991  -0.00111
           Z            0.00070   0.00110   1.00000
 This molecule is an asymmetric top.
 Rotational symmetry number  1.
 Warning -- assumption of classical behavior for rotation
           may cause significant error
 Rotational temperatures (Kelvin)      0.07272     0.06065     0.03367
 Rotational constants (GHZ):           1.51531     1.26372     0.70163
 Zero-point vibrational energy     235529.2 (Joules/Mol)
                                   56.29282 (Kcal/Mol)
 Warning -- explicit consideration of  12 degrees of freedom as
           vibrations may cause significant error
 Vibrational temperatures:     48.57   152.13   228.77   266.94   353.70
          (Kelvin)            533.89   552.19   599.37   678.12   786.11
                              842.16   867.37   965.44  1013.39  1152.40
                             1155.57  1197.32  1255.50  1405.67  1450.53
                             1571.24  1608.53  1697.44  1792.16  1856.09
                             1941.14  2016.56  2102.96  2159.50  2311.49
                             2373.63  2416.44  3393.42  4610.49  4640.61
                             4658.46

 Zero-point correction=                           0.089708 (Hartree/Particle)
 Thermal correction to Energy=                    0.098285
 Thermal correction to Enthalpy=                  0.099229
 Thermal correction to Gibbs Free Energy=         0.054846
 Sum of electronic and zero-point Energies=           -544.949715
 Sum of electronic and thermal Energies=              -544.941138
 Sum of electronic and thermal Enthalpies=            -544.940194
 Sum of electronic and thermal Free Energies=         -544.984577

                     E (Thermal)             CV                S
                      KCal/Mol        Cal/Mol-Kelvin    Cal/Mol-Kelvin
 Total                   61.675             30.971             93.412
 Electronic               0.000              0.000              0.000
 Translational            0.889              2.981             40.907
 Rotational               0.889              2.981             29.860
 Vibrational             59.897             25.010             22.645
 Vibration     1          0.594              1.983              5.595
 Vibration     2          0.605              1.945              3.346
 Vibration     3          0.621              1.893              2.562
 Vibration     4          0.632              1.860              2.272
 Vibration     5          0.660              1.770              1.760
 Vibration     6          0.743              1.532              1.075
 Vibration     7          0.753              1.505              1.024
 Vibration     8          0.780              1.434              0.904
 Vibration     9          0.828              1.314              0.734
 Vibration    10          0.902              1.148              0.552
 Vibration    11          0.942              1.063              0.476
 Vibration    12          0.961              1.026              0.445

 Optimization completed.
    -- Stationary point found.
 Normal termination of Gaussian 16 at Tue Dec  8 20:08:10 2020.

 ----------------------------------------------------------------------
 # B3LYP/6-311++G(d,p) empiricaldispersion=gd3bj scf=xqc pop=npa geom=c
 heck
 ----------------------------------------------------------------------

 ------------------------------------
 CID_568585_JID_1483_Energie_neutraal
 ------------------------------------
 Structure from the checkpoint file:  "JID_1483.chk"
 Charge =  0 Multiplicity = 1

 SCF Done:  E(RB3LYP) =  -545.190477600     A.U. after   15 cycles
 Normal termination of Gaussian 16 at Tue Dec  8 20:08:55 2020.

 ----------------------------------------------------------------------
 # B3LYP/6-311++G(d,p) empiricaldispersion=gd3bj scf=xqc pop=npa geom=c
 heck
 ----------------------------------------------------------------------

 ----------------------------------
 CID_568585_JID_1483_Energie_kation
 ----------------------------------
 Structure from the checkpoint file:  "JID_1483.chk"
 Charge =  1 Multiplicity = 2

 SCF Done:  E(UB3LYP) =  -544.805656291     A.U. after   32 cycles
 Normal termination of Gaussian 16 at Tue Dec  8 20:12:20 2020.
 Gaussian 16:  ES64L-G16RevA.03 25-Dec-2016

 ----------------------------------------------------------------------
 # B3LYP/6-311++G(d,p) empiricaldispersion=gd3bj scf=xqc pop=npa geom=c
 heck
 ----------------------------------------------------------------------

 ---------------------------------
 CID_568585_JID_1483_Energie_anion
 ---------------------------------
 Structure from the checkpoint file:  "JID_1483.chk"
 Charge = -1 Multiplicity = 2

                         Standard orientation:
 ---------------------------------------------------------------------
 Center     Atomic      Atomic             Coordinates (Angstroms)
 Number     Number       Type             X           Y           Z
 ---------------------------------------------------------------------
      1          6           0       -2.596497    0.280324    0.021211
      2          6           0       -1.604602    1.251778   -0.027788
      3          6           0       -0.253860    0.863040   -0.016433
      4          6           0       -0.008703   -0.519748    0.022670
      5          7           0       -0.936639   -1.451627    0.058765
      6          6           0       -2.214785   -1.061980    0.067930
      7          7           0        1.393759   -1.031773    0.026480
      8          8           0        1.580935   -2.159977   -0.398613
      9          8           0        2.247617   -0.263402    0.464205
     10          6           0        0.749377    1.880766   -0.080262
     11          7           0        1.456693    2.799739   -0.157681
     12          1           0       -3.645497    0.555712    0.020696
     13          1           0       -1.849204    2.307298   -0.073365
     14          1           0       -2.955996   -1.855436    0.111018
 ---------------------------------------------------------------------

 SCF Done:  E(UB3LYP) =  -545.250685614     A.U. after   25 cycles

 The electronic state is 2-A.
 Alpha  occ. eigenvalues --  -18.96746 -18.96681 -14.34862 -14.19028 -14.16764
 Alpha  occ. eigenvalues --  -10.10488 -10.08883 -10.08320 -10.08206 -10.07381
 Alpha  occ. eigenvalues --  -10.05854  -1.04876  -0.87975  -0.83418  -0.76886
 Alpha  occ. eigenvalues --   -0.69817  -0.66887  -0.57354  -0.53514  -0.47511
 Alpha  occ. eigenvalues --   -0.43347  -0.38952  -0.38169  -0.36214  -0.35344
 Alpha  occ. eigenvalues --   -0.33024  -0.29757  -0.29001  -0.28191  -0.23281
 Alpha  occ. eigenvalues --   -0.23195  -0.20311  -0.17658  -0.15804  -0.14894
 Alpha  occ. eigenvalues --   -0.14757  -0.13240  -0.11709   0.00871
 Alpha virt. eigenvalues --    0.06759   0.07931   0.10042   0.11609   0.11757
 Alpha virt. eigenvalues --    0.14709   0.15029   0.15496   0.16563   0.17330
 Alpha virt. eigenvalues --    0.17553   0.18687   0.18830   0.19441   0.19647

  Beta  occ. eigenvalues --  -18.96383 -18.96253 -14.34494 -14.19014 -14.16552
  Beta  occ. eigenvalues --  -10.10174 -10.08807 -10.08408 -10.07968 -10.07427
  Beta  occ. eigenvalues --  -10.05621  -1.04124  -0.87252  -0.83113  -0.76574
  Beta  occ. eigenvalues --   -0.69507  -0.66220  -0.56445  -0.53320  -0.47112
  Beta  occ. eigenvalues --   -0.43011  -0.38433  -0.37722  -0.35118  -0.34296
  Beta  occ. eigenvalues --   -0.32441  -0.29627  -0.28074  -0.27946  -0.22924
  Beta  occ. eigenvalues --   -0.22377  -0.20145  -0.16794  -0.15428  -0.13350
  Beta  occ. eigenvalues --   -0.12889  -0.12247  -0.11194
  Beta virt. eigenvalues --    0.06988   0.07717   0.07912   0.10016   0.11616
  Beta virt. eigenvalues --    0.14257   0.14882   0.15039   0.15524   0.16647
  Beta virt. eigenvalues --    0.17343   0.17951   0.18714   0.18899   0.19471

 Mulliken charges and spin densities:
               1          2
     1  C   -0.093135   0.180154
     2  C   -0.440559  -0.066272
     3  C    2.247946   0.221564
     4  C   -1.041474   0.173266
     5  N    0.036820   0.001269
     6  C   -0.069788   0.060690
     7  N   -0.332376   0.125169
     8  O   -0.110375   0.155793
     9  O   -0.131553   0.130636
    10  C   -1.230510  -0.075292
    11  N   -0.285084   0.105741
    12  H    0.133476  -0.014332
    13  H    0.158710   0.005838
    14  H    0.157901  -0.004224
 Sum of Mulliken charges =  -1.00000   1.00000

 Dipole moment (field-independent basis, Debye):
    X=             -7.3377    Y=              0.8137    Z=              0.1069  Tot=              7.3835
 Quadrupole moment (field-independent basis, Debye-Ang):
   XX=            -83.0521   YY=            -91.8272   ZZ=            -66.8651
   XY=             -3.3991   XZ=             -0.4026   YZ=             -1.0251

 Summary of Natural Population Analysis:

                                       Natural Population
                Natural  -----------------------------------------------
    Atom  No    Charge         Core      Valence    Rydberg      Total
 -----------------------------------------------------------------------
      C    1   -0.09123      0.99957     2.08301    0.00865     3.09123
      C    2   -0.08243      0.99955     2.07519    0.00769     3.08243
      C    3   -0.06653      0.99938     2.05557    0.01158     3.06653
      C    4    0.23083      0.99940     1.75103    0.01873     2.76917
      N    5   -0.21366      0.99966     2.70465    0.00935     3.71366
      C    6    0.03672      0.99960     1.94945    0.01424     2.96328
      N    7    0.27264      0.99974     2.20005    0.02756     3.22736
      O    8   -0.16671      0.99989     3.15894    0.00788     4.16671
      O    9   -0.18828      0.99990     3.17904    0.00934     4.18828
      C   10    0.14742      0.99963     1.83483    0.01811     2.85258
      N   11   -0.15658      0.99978     2.64600    0.01080     3.65658
      H   12    0.09432      0.00000     0.40455    0.00113     0.40568
      H   13    0.10131      0.00000     0.39778    0.00091     0.39869
      H   14    0.08217      0.00000     0.41654    0.00130     0.41783
 =======================================================================
   * Total *    0.00000     10.99611    26.85663    0.14726    38.00000

 Normal termination of Gaussian 16 at Tue Dec  8 20:14:49 2020.
