 Gaussian 16, Revision A.03,

 -----------------------------------------------------------
 # opt freq B3LYP/6-31G(d) empiricaldispersion=gd3bj scf=xqc
 -----------------------------------------------------------

 ------------------------------
 CID_88783613_JID_1464_neutraal
 ------------------------------
 Symbolic Z-matrix:
 Charge =  0 Multiplicity = 1

 SCF Done:  E(RB3LYP) =  -590.924471618     A.U. after   14 cycles
 SCF Done:  E(RB3LYP) =  -590.930380625     A.U. after   13 cycles
 SCF Done:  E(RB3LYP) =  -590.933937757     A.U. after   13 cycles
 SCF Done:  E(RB3LYP) =  -590.935372090     A.U. after   13 cycles
 SCF Done:  E(RB3LYP) =  -590.935887857     A.U. after   12 cycles
 SCF Done:  E(RB3LYP) =  -590.935979676     A.U. after   12 cycles
 SCF Done:  E(RB3LYP) =  -590.936448937     A.U. after   11 cycles
 SCF Done:  E(RB3LYP) =  -590.936542673     A.U. after   11 cycles
 SCF Done:  E(RB3LYP) =  -590.936619493     A.U. after   12 cycles
 SCF Done:  E(RB3LYP) =  -590.936664998     A.U. after   10 cycles
 SCF Done:  E(RB3LYP) =  -590.937105609     A.U. after   12 cycles
 SCF Done:  E(RB3LYP) =  -590.937112808     A.U. after   10 cycles
 SCF Done:  E(RB3LYP) =  -590.937112891     A.U. after    9 cycles
 SCF Done:  E(RB3LYP) =  -590.937113008     A.U. after    9 cycles
 SCF Done:  E(RB3LYP) =  -590.937113148     A.U. after    8 cycles
 Optimization completed.
    -- Stationary point found.
 Normal termination of Gaussian 16 at Tue Dec  8 20:06:02 2020.

 --------------------------------------------------------------------
 #N Geom=AllCheck Guess=TCheck SCRF=Check GenChk RB3LYP/6-31G(d) Freq
 --------------------------------------------------------------------

 Structure from the checkpoint file:  "JID_1464.chk"
 ------------------------------
 CID_88783613_JID_1464_neutraal
 ------------------------------
 Charge =  0 Multiplicity = 1

 SCF Done:  E(RB3LYP) =  -590.937113148     A.U. after    1 cycles

  Exact polarizability: 124.846  -6.838  85.520   5.659  -0.411  55.626
 Approx polarizability: 166.719  -9.490 128.822  14.869   1.232  80.997

                      1                      2                      3
                      A                      A                      A
 Frequencies --     35.5105                52.2386                84.5416
 Red. masses --      2.9765                 3.7058                 5.3812
 Frc consts  --      0.0022                 0.0060                 0.0227
 IR Inten    --      0.6252                 1.3737                 0.0860

                      4                      5                      6
                      A                      A                      A
 Frequencies --    108.2001               154.2137               166.8605
 Red. masses --     10.6412                 3.1300                 3.4665
 Frc consts  --      0.0734                 0.0439                 0.0569
 IR Inten    --      0.3449                 2.3652                 1.4400

                      7                      8                      9
                      A                      A                      A
 Frequencies --    231.6946               250.1786               333.4272
 Red. masses --      5.8047                 1.2741                 3.6795
 Frc consts  --      0.1836                 0.0470                 0.2410
 IR Inten    --      2.3928                 1.2457                17.1599

                     10                     11                     12
                      A                      A                      A
 Frequencies --    348.6903               367.6296               392.8296
 Red. masses --      2.5229                 1.3855                 5.6702
 Frc consts  --      0.1807                 0.1103                 0.5155
 IR Inten    --     17.7413                79.6724                 3.1174

                     13                     14                     15
                      A                      A                      A
 Frequencies --    403.0272               445.6872               482.9622
 Red. masses --      2.6472                 2.9226                 2.6663
 Frc consts  --      0.2533                 0.3420                 0.3664
 IR Inten    --     10.3436                21.2028                14.5717

                     16                     17                     18
                      A                      A                      A
 Frequencies --    517.8946               567.4432               591.4333
 Red. masses --      1.6512                 2.6997                 1.9929
 Frc consts  --      0.2609                 0.5122                 0.4107
 IR Inten    --     40.0086                69.2523                90.7654

                     19                     20                     21
                      A                      A                      A
 Frequencies --    630.6258               729.0383               745.6155
 Red. masses --      1.9498                 1.3807                 3.4391
 Frc consts  --      0.4569                 0.4324                 1.1265
 IR Inten    --     89.5875                48.5032                45.2405

                     22                     23                     24
                      A                      A                      A
 Frequencies --    784.4679               791.9358               814.6069
 Red. masses --      2.5608                 4.4836                 1.5898
 Frc consts  --      0.9285                 1.6567                 0.6216
 IR Inten    --      6.6115                49.9179                13.0908

                     25                     26                     27
                      A                      A                      A
 Frequencies --    918.0369               984.8020              1032.3361
 Red. masses --      2.0359                 1.3269                 5.0227
 Frc consts  --      1.0110                 0.7582                 3.1538
 IR Inten    --      3.1399                46.3548                83.6569

                     28                     29                     30
                      A                      A                      A
 Frequencies --   1067.1260              1071.7410              1123.5759
 Red. masses --      3.9702                 3.5478                 1.7621
 Frc consts  --      2.6637                 2.4010                 1.3107
 IR Inten    --    112.0811                35.9831                 6.0233

                     31                     32                     33
                      A                      A                      A
 Frequencies --   1148.2210              1189.6017              1218.1362
 Red. masses --      2.9473                 1.8602                 2.1207
 Frc consts  --      2.2894                 1.5510                 1.8540
 IR Inten    --    415.0136               305.8609                50.0743

                     34                     35                     36
                      A                      A                      A
 Frequencies --   1270.7414              1312.4664              1322.0616
 Red. masses --      1.2177                 1.2650                 1.5970
 Frc consts  --      1.1585                 1.2839                 1.6446
 IR Inten    --     83.0865                15.0913                53.8610

                     37                     38                     39
                      A                      A                      A
 Frequencies --   1341.5598              1382.7637              1409.6026
 Red. masses --      1.4323                 1.5080                 1.3889
 Frc consts  --      1.5188                 1.6989                 1.6259
 IR Inten    --     15.0252                79.4946                16.0303

                     40                     41                     42
                      A                      A                      A
 Frequencies --   1414.6762              1439.5715              1441.2156
 Red. masses --      1.4472                 1.2694                 1.5667
 Frc consts  --      1.7064                 1.5500                 1.9173
 IR Inten    --     16.8104                 5.2106                94.7575

                     43                     44                     45
                      A                      A                      A
 Frequencies --   1498.0799              1515.7852              1520.2050
 Red. masses --      1.6539                 1.0601                 1.0867
 Frc consts  --      2.1869                 1.4351                 1.4797
 IR Inten    --    114.7394                 4.3676                13.8868

                     46                     47                     48
                      A                      A                      A
 Frequencies --   1528.2486              1537.1572              1707.0327
 Red. masses --      1.8530                 1.1605                 3.0582
 Frc consts  --      2.5499                 1.6156                 5.2505
 IR Inten    --    103.7057                17.3125               404.1821

                     49                     50                     51
                      A                      A                      A
 Frequencies --   1768.6841              3017.6524              3053.2791
 Red. masses --      7.5289                 1.0855                 1.0355
 Frc consts  --     13.8766                 5.8240                 5.6874
 IR Inten    --    381.0865                64.0054                22.5014

                     52                     53                     54
                      A                      A                      A
 Frequencies --   3056.5734              3095.6273              3125.3135
 Red. masses --      1.0597                 1.1053                 1.1024
 Frc consts  --      5.8334                 6.2407                 6.3443
 IR Inten    --     43.6091                 8.7251                38.4617

                     55                     56                     57
                      A                      A                      A
 Frequencies --   3133.1149              3169.1915              3484.8884
 Red. masses --      1.1046                 1.0894                 1.0773
 Frc consts  --      6.3886                 6.4466                 7.7083
 IR Inten    --     35.4895                13.1008                74.0106

                     58                     59                     60
                      A                      A                      A
 Frequencies --   3688.1926              3703.3795              3712.8744
 Red. masses --      1.0648                 1.0638                 1.0648
 Frc consts  --      8.5342                 8.5963                 8.6486
 IR Inten    --    113.0452                36.3207                 8.3307

 - Thermochemistry -
 -------------------
 Temperature   298.150 Kelvin.  Pressure   1.00000 Atm.
 Atom     1 has atomic number  6 and mass  12.00000

 Molecular mass:   161.06881 amu.
 Principal axes and moments of inertia in atomic units:
                           1         2         3
     Eigenvalues --  1016.502712991.501363510.86894
           X            0.99993  -0.00921  -0.00680
           Y            0.00916   0.99993  -0.00777
           Z            0.00687   0.00770   0.99995
 This molecule is an asymmetric top.
 Rotational symmetry number  1.
 Warning -- assumption of classical behavior for rotation
           may cause significant error
 Rotational temperatures (Kelvin)      0.08521     0.02895     0.02467
 Rotational constants (GHZ):           1.77544     0.60329     0.51404
 Zero-point vibrational energy     475122.4 (Joules/Mol)
                                  113.55699 (Kcal/Mol)
 Warning -- explicit consideration of  18 degrees of freedom as
           vibrations may cause significant error
 Vibrational temperatures:     51.09    75.16   121.64   155.68   221.88
          (Kelvin)            240.08   333.36   359.95   479.73   501.69
                              528.94   565.19   579.87   641.24   694.87
                              745.13   816.42   850.94   907.33  1048.92
                             1072.77  1128.67  1139.42  1172.04  1320.85
                             1416.91  1485.30  1535.36  1542.00  1616.58
                             1652.03  1711.57  1752.63  1828.31  1888.35
                             1902.15  1930.21  1989.49  2028.10  2035.40
                             2071.22  2073.59  2155.40  2180.88  2187.24
                             2198.81  2211.63  2456.04  2544.74  4341.73
                             4392.99  4397.73  4453.92  4496.63  4507.85
                             4559.76  5013.98  5306.49  5328.34  5342.00

 Zero-point correction=                           0.180965 (Hartree/Particle)
 Thermal correction to Energy=                    0.192931
 Thermal correction to Enthalpy=                  0.193875
 Thermal correction to Gibbs Free Energy=         0.142143
 Sum of electronic and zero-point Energies=           -590.756149
 Sum of electronic and thermal Energies=              -590.744182
 Sum of electronic and thermal Enthalpies=            -590.743238
 Sum of electronic and thermal Free Energies=         -590.794970

                     E (Thermal)             CV                S
                      KCal/Mol        Cal/Mol-Kelvin    Cal/Mol-Kelvin
 Total                  121.066             43.529            108.879
 Electronic               0.000              0.000              0.000
 Translational            0.889              2.981             41.139
 Rotational               0.889              2.981             30.746
 Vibrational            119.288             37.567             36.993
 Vibration     1          0.594              1.982              5.495
 Vibration     2          0.596              1.977              4.731
 Vibration     3          0.601              1.960              3.783
 Vibration     4          0.606              1.943              3.301
 Vibration     5          0.620              1.898              2.620
 Vibration     6          0.624              1.883              2.471
 Vibration     7          0.653              1.793              1.866
 Vibration     8          0.663              1.762              1.729
 Vibration     9          0.715              1.609              1.243
 Vibration    10          0.726              1.578              1.172
 Vibration    11          0.740              1.539              1.090
 Vibration    12          0.760              1.486              0.989
 Vibration    13          0.768              1.464              0.952
 Vibration    14          0.805              1.370              0.809
 Vibration    15          0.839              1.288              0.702
 Vibration    16          0.873              1.210              0.615
 Vibration    17          0.923              1.102              0.509
 Vibration    18          0.949              1.050              0.465

 Optimization completed.
    -- Stationary point found.
 Normal termination of Gaussian 16 at Tue Dec  8 20:09:39 2020.

 ----------------------------------------------------------------------
 # B3LYP/6-311++G(d,p) empiricaldispersion=gd3bj scf=xqc pop=npa geom=c
 heck
 ----------------------------------------------------------------------

 --------------------------------------
 CID_88783613_JID_1464_Energie_neutraal
 --------------------------------------
 Structure from the checkpoint file:  "JID_1464.chk"
 Charge =  0 Multiplicity = 1

 SCF Done:  E(RB3LYP) =  -591.143522024     A.U. after   15 cycles
 Normal termination of Gaussian 16 at Tue Dec  8 20:11:20 2020.

 ----------------------------------------------------------------------
 # B3LYP/6-311++G(d,p) empiricaldispersion=gd3bj scf=xqc pop=npa geom=c
 heck
 ----------------------------------------------------------------------

 ------------------------------------
 CID_88783613_JID_1464_Energie_kation
 ------------------------------------
 Structure from the checkpoint file:  "JID_1464.chk"
 Charge =  1 Multiplicity = 2

 SCF Done:  E(UB3LYP) =  -590.844223129     A.U. after   20 cycles
 Normal termination of Gaussian 16 at Tue Dec  8 20:14:36 2020.
 Gaussian 16:  ES64L-G16RevA.03 25-Dec-2016

 ----------------------------------------------------------------------
 # B3LYP/6-311++G(d,p) empiricaldispersion=gd3bj scf=xqc pop=npa geom=c
 heck
 ----------------------------------------------------------------------

 -----------------------------------
 CID_88783613_JID_1464_Energie_anion
 -----------------------------------
 Structure from the checkpoint file:  "JID_1464.chk"
 Charge = -1 Multiplicity = 2

                         Standard orientation:
 ---------------------------------------------------------------------
 Center     Atomic      Atomic             Coordinates (Angstroms)
 Number     Number       Type             X           Y           Z
 ---------------------------------------------------------------------
      1          6           0        3.921121   -0.282106   -0.850208
      2          6           0        3.193928   -0.485139    0.481730
      3          7           0        1.846883    0.058766    0.480324
      4          6           0        0.744110   -0.664595    0.234337
      5          6           0       -0.529526   -0.186923    0.044507
      6          6           0       -1.664088   -1.166673   -0.127536
      7          8           0       -2.415496   -1.177199    1.078025
      8          8           0       -2.498464   -0.912756   -1.234036
      9          6           0       -0.752316    1.239374    0.062206
     10          8           0        0.095768    2.111528    0.258921
     11          8           0       -2.045207    1.609104   -0.203682
     12          1           0        3.384778   -0.782998   -1.662997
     13          1           0        4.937559   -0.688727   -0.800477
     14          1           0        3.991440    0.782916   -1.096701
     15          1           0        3.124418   -1.552639    0.719657
     16          1           0        3.755839   -0.013654    1.296469
     17          1           0        1.701830    1.067781    0.487318
     18          1           0        0.904188   -1.741644    0.200296
     19          1           0       -1.247141   -2.164894   -0.326119
     20          1           0       -3.220821   -1.683335    0.876568
     21          1           0       -2.785844    0.013508   -1.141462
     22          1           0       -2.046608    2.583286   -0.178871
 ---------------------------------------------------------------------

 SCF Done:  E(UB3LYP) =  -591.132328696     A.U. after   33 cycles
 SCF Done:  E(UB3LYP) =  -591.132328696     a.u. after    1 cycles

 The electronic state is 2-A.
 Alpha  occ. eigenvalues --  -19.05275 -19.02108 -19.01945 -18.97796 -14.21389
 Alpha  occ. eigenvalues --  -10.16507 -10.16478 -10.09271 -10.09110 -10.04842
 Alpha  occ. eigenvalues --  -10.04187  -0.98627  -0.95836  -0.89058  -0.88666
 Alpha  occ. eigenvalues --   -0.82657  -0.68067  -0.63292  -0.55346  -0.54850
 Alpha  occ. eigenvalues --   -0.50585  -0.47108  -0.44636  -0.40300  -0.38067
 Alpha  occ. eigenvalues --   -0.37675  -0.34870  -0.34204  -0.33045  -0.32493
 Alpha  occ. eigenvalues --   -0.31164  -0.30287  -0.29749  -0.28146  -0.26385
 Alpha  occ. eigenvalues --   -0.24078  -0.23143  -0.22461  -0.20633  -0.19925
 Alpha  occ. eigenvalues --   -0.17952  -0.15979  -0.09877   0.05163
 Alpha virt. eigenvalues --    0.07558   0.07781   0.08288   0.09497   0.09644
 Alpha virt. eigenvalues --    0.10873   0.11924   0.12251   0.13224   0.14749
 Alpha virt. eigenvalues --    0.15008   0.15998   0.16714   0.17666   0.17869

  Beta  occ. eigenvalues --  -19.05237 -19.02109 -19.01947 -18.97656 -14.21334
  Beta  occ. eigenvalues --  -10.16475 -10.16311 -10.09077 -10.08997 -10.04792
  Beta  occ. eigenvalues --  -10.04232  -0.98466  -0.95830  -0.88984  -0.88526
  Beta  occ. eigenvalues --   -0.82443  -0.67880  -0.63202  -0.55240  -0.54488
  Beta  occ. eigenvalues --   -0.50432  -0.47004  -0.44608  -0.40174  -0.37971
  Beta  occ. eigenvalues --   -0.37524  -0.34815  -0.34104  -0.32533  -0.32361
  Beta  occ. eigenvalues --   -0.31033  -0.30101  -0.29609  -0.27969  -0.26287
  Beta  occ. eigenvalues --   -0.24018  -0.23103  -0.21891  -0.20536  -0.19311
  Beta  occ. eigenvalues --   -0.17921  -0.15863  -0.09478
  Beta virt. eigenvalues --    0.07472   0.08321   0.08596   0.09664   0.10148
  Beta virt. eigenvalues --    0.10411   0.11678   0.11901   0.12795   0.13560
  Beta virt. eigenvalues --    0.14997   0.15436   0.16051   0.16750   0.17626

 Mulliken charges and spin densities:
               1          2
     1  C    1.335329  -1.776120
     2  C   -0.048921  -0.085586
     3  N   -0.190464   0.107049
     4  C   -1.631858   0.734710
     5  C    1.957326  -0.957237
     6  C   -0.317645  -0.478201
     7  O   -0.197417   0.010630
     8  O   -0.230845   0.005609
     9  C    0.029066   0.218483
    10  O   -0.430961   0.044715
    11  O   -0.238385   0.007223
    12  H   -0.108906   0.242598
    13  H   -0.818707   0.970790
    14  H   -0.036734   0.162291
    15  H   -0.616697   0.758703
    16  H   -0.539528   0.699925
    17  H    0.434583  -0.104307
    18  H   -0.175885   0.289055
    19  H    0.082282   0.123430
    20  H    0.219830   0.009992
    21  H    0.255119   0.004502
    22  H    0.269417   0.011748
 Sum of Mulliken charges =  -1.00000   1.00000

 Dipole moment (field-independent basis, Debye):
    X=            -10.5654    Y=              3.0443    Z=             -1.2431  Tot=             11.0653
 Quadrupole moment (field-independent basis, Debye-Ang):
   XX=           -145.8828   YY=            -91.4972   ZZ=            -90.4482
   XY=             11.2083   XZ=             -2.0499   YZ=             -1.0497

 Summary of Natural Population Analysis:

                                       Natural Population
                Natural  -----------------------------------------------
    Atom  No    Charge         Core      Valence    Rydberg      Total
 -----------------------------------------------------------------------
      C    1   -0.28856      0.99966     2.28361    0.00528     3.28856
      C    2   -0.08531      0.99964     2.07393    0.01174     3.08531
      N    3   -0.28613      0.99968     2.77642    0.01003     3.78613
      C    4    0.12189      0.99954     1.86545    0.01312     2.87811
      C    5   -0.17982      0.99944     2.16696    0.01342     3.17982
      C    6    0.21001      0.99960     1.77079    0.01960     2.78999
      O    7   -0.37193      0.99989     3.36522    0.00682     4.37193
      O    8   -0.38083      0.99989     3.37503    0.00590     4.38083
      C    9    0.41152      0.99961     1.56557    0.02330     2.58848
      O   10   -0.34037      0.99987     3.33416    0.00634     4.34037
      O   11   -0.36710      0.99987     3.36122    0.00601     4.36710
      H   12    0.09648      0.00000     0.40247    0.00105     0.40352
      H   13    0.10563      0.00000     0.38857    0.00581     0.39437
      H   14    0.09530      0.00000     0.40368    0.00103     0.40470
      H   15    0.09760      0.00000     0.39817    0.00424     0.40240
      H   16    0.09515      0.00000     0.40278    0.00206     0.40485
      H   17    0.21093      0.00000     0.28692    0.00215     0.28907
      H   18    0.08795      0.00000     0.41067    0.00138     0.41205
      H   19    0.06883      0.00000     0.42905    0.00212     0.43117
      H   20    0.22268      0.00000     0.27418    0.00315     0.27732
      H   21    0.23959      0.00000     0.25729    0.00311     0.26041
      H   22    0.23649      0.00000     0.25950    0.00401     0.26351
 =======================================================================
   * Total *   -0.00000     10.99669    31.85163    0.15168    43.00000

 Normal termination of Gaussian 16 at Tue Dec  8 20:19:32 2020.
