 Gaussian 16, Revision A.03,

 -----------------------------------------------------------
 # opt freq B3LYP/6-31G(d) empiricaldispersion=gd3bj scf=xqc
 -----------------------------------------------------------

 ------------------------------
 CID_79960912_JID_7841_neutraal
 ------------------------------
 Symbolic Z-matrix:
 Charge =  0 Multiplicity = 1

 SCF Done:  E(RB3LYP) =  -1104.06475802     A.U. after   15 cycles
 SCF Done:  E(RB3LYP) =  -1104.07150155     A.U. after   12 cycles
 SCF Done:  E(RB3LYP) =  -1104.07247762     A.U. after   12 cycles
 SCF Done:  E(RB3LYP) =  -1104.07250172     A.U. after   11 cycles
 SCF Done:  E(RB3LYP) =  -1104.07262798     A.U. after   10 cycles
 SCF Done:  E(RB3LYP) =  -1104.07264116     A.U. after   10 cycles
 SCF Done:  E(RB3LYP) =  -1104.07264682     A.U. after    9 cycles
 SCF Done:  E(RB3LYP) =  -1104.07264760     A.U. after    8 cycles
 SCF Done:  E(RB3LYP) =  -1104.07264789     A.U. after    8 cycles
 Optimization completed.
    -- Stationary point found.
 Normal termination of Gaussian 16 at Fri Dec 11 13:14:44 2020.

 --------------------------------------------------------------------
 #N Geom=AllCheck Guess=TCheck SCRF=Check GenChk RB3LYP/6-31G(d) Freq
 --------------------------------------------------------------------

 Structure from the checkpoint file:  "JID_7841.chk"
 ------------------------------
 CID_79960912_JID_7841_neutraal
 ------------------------------
 Charge =  0 Multiplicity = 1

 SCF Done:  E(RB3LYP) =  -1104.07264789     A.U. after    1 cycles

  Exact polarizability: 187.702   5.992 138.946   7.644   8.418 133.319
 Approx polarizability: 300.425  17.831 215.789  29.023  21.031 207.188

                      1                      2                      3
                      A                      A                      A
 Frequencies --     50.5049                59.7635                70.0509
 Red. masses --      4.8722                 4.7431                 4.5255
 Frc consts  --      0.0073                 0.0100                 0.0131
 IR Inten    --      0.7188                 4.0260                 1.4555

                      4                      5                      6
                      A                      A                      A
 Frequencies --     91.6402                96.5724               186.1811
 Red. masses --      2.6252                 4.0313                 3.2408
 Frc consts  --      0.0130                 0.0222                 0.0662
 IR Inten    --      1.7399                 1.4662                 0.1587

                      7                      8                      9
                      A                      A                      A
 Frequencies --    187.0438               207.9963               216.8170
 Red. masses --      2.3562                 6.3164                 2.0835
 Frc consts  --      0.0486                 0.1610                 0.0577
 IR Inten    --      1.3541                 0.7284                 0.5919

                     10                     11                     12
                      A                      A                      A
 Frequencies --    239.2602               274.1177               298.0802
 Red. masses --      3.7623                 2.1328                 2.5259
 Frc consts  --      0.1269                 0.0944                 0.1322
 IR Inten    --      1.5897                 1.3631                 0.8019

                     13                     14                     15
                      A                      A                      A
 Frequencies --    318.8129               333.7379               344.0053
 Red. masses --      2.0811                 4.6416                 4.2757
 Frc consts  --      0.1246                 0.3046                 0.2981
 IR Inten    --      5.8648                 5.8632                 5.5043

                     16                     17                     18
                      A                      A                      A
 Frequencies --    390.6763               416.2025               471.1620
 Red. masses --      4.9334                 4.1446                 2.9206
 Frc consts  --      0.4436                 0.4230                 0.3820
 IR Inten    --      3.0327                 1.5502                 5.4395

                     19                     20                     21
                      A                      A                      A
 Frequencies --    474.2950               483.8931               515.9012
 Red. masses --      1.7253                 2.9081                 2.1783
 Frc consts  --      0.2287                 0.4012                 0.3416
 IR Inten    --     21.2059                28.7074                51.3342

                     22                     23                     24
                      A                      A                      A
 Frequencies --    568.3684               589.2863               615.8603
 Red. masses --      2.0818                 3.0621                 4.0424
 Frc consts  --      0.3962                 0.6265                 0.9034
 IR Inten    --    137.2978                18.8981                 2.7792

                     25                     26                     27
                      A                      A                      A
 Frequencies --    620.7925               668.7339               705.6877
 Red. masses --      2.4590                 2.8988                 3.3199
 Frc consts  --      0.5583                 0.7638                 0.9741
 IR Inten    --     33.2119                11.0247                 8.3627

                     28                     29                     30
                      A                      A                      A
 Frequencies --    720.1088               723.7594               752.1431
 Red. masses --      2.2618                 3.5530                 2.9398
 Frc consts  --      0.6910                 1.0966                 0.9799
 IR Inten    --     49.4809                 4.1374                 1.3409

                     31                     32                     33
                      A                      A                      A
 Frequencies --    775.0100               790.5012               795.5155
 Red. masses --      8.6803                 4.0505                 1.4017
 Frc consts  --      3.0719                 1.4913                 0.5226
 IR Inten    --     28.9456                 1.0695                 6.4020

                     34                     35                     36
                      A                      A                      A
 Frequencies --    841.0067               875.1923               888.4672
 Red. masses --      3.0574                 2.2179                 3.1854
 Frc consts  --      1.2741                 1.0009                 1.4815
 IR Inten    --      7.3145                 9.0190                15.5091

                     37                     38                     39
                      A                      A                      A
 Frequencies --    897.3833               915.3361               929.7113
 Red. masses --      1.3330                 2.3077                 2.0521
 Frc consts  --      0.6325                 1.1392                 1.0450
 IR Inten    --      1.2411                 2.3366                 1.6193

                     40                     41                     42
                      A                      A                      A
 Frequencies --    978.4996               998.4888              1045.5288
 Red. masses --      2.4156                 2.6889                 2.4710
 Frc consts  --      1.3627                 1.5795                 1.5914
 IR Inten    --     22.5043                10.9665                 3.6620

                     43                     44                     45
                      A                      A                      A
 Frequencies --   1089.9544              1105.9131              1113.7943
 Red. masses --      2.8257                 1.3283                 2.5442
 Frc consts  --      1.9778                 0.9571                 1.8595
 IR Inten    --     18.1085                 3.9830                15.0422

                     46                     47                     48
                      A                      A                      A
 Frequencies --   1123.0589              1127.1748              1140.4704
 Red. masses --      1.9379                 2.1923                 2.3541
 Frc consts  --      1.4400                 1.6411                 1.8040
 IR Inten    --      8.0051                12.0163                14.2491

                     49                     50                     51
                      A                      A                      A
 Frequencies --   1177.2984              1191.7393              1208.3365
 Red. masses --      1.9351                 2.7718                 1.4697
 Frc consts  --      1.5802                 2.3194                 1.2643
 IR Inten    --     14.6703                38.0309                 3.7540

                     52                     53                     54
                      A                      A                      A
 Frequencies --   1227.1975              1260.1522              1282.7729
 Red. masses --      1.5396                 2.0951                 1.6819
 Frc consts  --      1.3661                 1.9602                 1.6306
 IR Inten    --      5.6783                18.2006                24.6698

                     55                     56                     57
                      A                      A                      A
 Frequencies --   1310.6445              1361.7409              1379.3246
 Red. masses --      1.4689                 3.2431                 1.5255
 Frc consts  --      1.4867                 3.5433                 1.7100
 IR Inten    --     17.5783               121.5246                16.0176

                     58                     59                     60
                      A                      A                      A
 Frequencies --   1383.7980              1391.1903              1400.6663
 Red. masses --      1.6019                 1.5127                 1.6372
 Frc consts  --      1.8073                 1.7249                 1.8924
 IR Inten    --     47.6545                16.0951                80.9725

                     61                     62                     63
                      A                      A                      A
 Frequencies --   1412.6713              1419.3917              1437.3052
 Red. masses --      1.3417                 2.9932                 2.7416
 Frc consts  --      1.5776                 3.5529                 3.3370
 IR Inten    --      3.3705                 4.9496                67.3266

                     64                     65                     66
                      A                      A                      A
 Frequencies --   1439.0915              1503.7353              1507.5910
 Red. masses --      1.4088                 1.5884                 1.3821
 Frc consts  --      1.7190                 2.1162                 1.8508
 IR Inten    --     14.0535                 7.0192                10.5040

                     67                     68                     69
                      A                      A                      A
 Frequencies --   1513.2450              1520.1913              1521.9570
 Red. masses --      1.2723                 1.1721                 1.1622
 Frc consts  --      1.7166                 1.5959                 1.5861
 IR Inten    --      5.7819                 3.9387                12.3176

                     70                     71                     72
                      A                      A                      A
 Frequencies --   1533.8746              1540.6568              1609.0871
 Red. masses --      1.1029                 1.0548                 6.5511
 Frc consts  --      1.5288                 1.4752                 9.9937
 IR Inten    --      4.8248                 4.2615                 2.2729

                     73                     74                     75
                      A                      A                      A
 Frequencies --   1641.0921              1707.6524              1840.3994
 Red. masses --      1.5284                 3.4570                11.7768
 Frc consts  --      2.4253                 5.9395                23.5019
 IR Inten    --     69.1598               504.3427               385.0983

                     76                     77                     78
                      A                      A                      A
 Frequencies --   3026.1485              3056.2422              3060.5151
 Red. masses --      1.0683                 1.0422                 1.0582
 Frc consts  --      5.7638                 5.7355                 5.8402
 IR Inten    --     24.8886                 8.4502                32.2157

                     79                     80                     81
                      A                      A                      A
 Frequencies --   3062.6373              3065.2307              3077.3290
 Red. masses --      1.0595                 1.0673                 1.0878
 Frc consts  --      5.8551                 5.9085                 6.0694
 IR Inten    --     22.7592                13.2164                36.9552

                     82                     83                     84
                      A                      A                      A
 Frequencies --   3102.2862              3104.9559              3114.3840
 Red. masses --      1.1052                 1.1012                 1.1033
 Frc consts  --      6.2668                 6.2549                 6.3053
 IR Inten    --      6.0921                26.9542                28.7996

                     85                     86                     87
                      A                      A                      A
 Frequencies --   3123.8307              3151.9078              3229.7379
 Red. masses --      1.1019                 1.1024                 1.0909
 Frc consts  --      6.3354                 6.4524                 6.7045
 IR Inten    --     40.5803                13.6363                 0.9100

                     88                     89                     90
                      A                      A                      A
 Frequencies --   3273.4830              3561.7396              3671.6847
 Red. masses --      1.0973                 1.0461                 1.1013
 Frc consts  --      6.9281                 7.8193                 8.7474
 IR Inten    --      0.2971                33.8996                37.8616

 - Thermochemistry -
 -------------------
 Temperature   298.150 Kelvin.  Pressure   1.00000 Atm.
 Atom     1 has atomic number  6 and mass  12.00000

 Molecular mass:   249.09358 amu.
 Principal axes and moments of inertia in atomic units:
                           1         2         3
     Eigenvalues --  2671.834225366.769105516.24016
           X            0.99934   0.02805  -0.02297
           Y           -0.02752   0.99936   0.02298
           Z            0.02360  -0.02234   0.99947
 This molecule is an asymmetric top.
 Rotational symmetry number  1.
 Warning -- assumption of classical behavior for rotation
           may cause significant error
 Rotational temperatures (Kelvin)      0.03242     0.01614     0.01570
 Rotational constants (GHZ):           0.67547     0.33628     0.32717
 Zero-point vibrational energy     691007.2 (Joules/Mol)
                                  165.15468 (Kcal/Mol)
 Warning -- explicit consideration of  24 degrees of freedom as
           vibrations may cause significant error
 Vibrational temperatures:     72.67    85.99   100.79   131.85   138.95
          (Kelvin)            267.87   269.11   299.26   311.95   344.24
                              394.39   428.87   458.70   480.17   494.95
                              562.10   598.82   677.90   682.40   696.21
                              742.27   817.76   847.85   886.09   893.18
                              962.16  1015.33  1036.08  1041.33  1082.17
                             1115.07  1137.35  1144.57  1210.02  1259.21
                             1278.31  1291.13  1316.96  1337.65  1407.84
                             1436.60  1504.28  1568.20  1591.16  1602.50
                             1615.83  1621.75  1640.88  1693.87  1714.65
                             1738.53  1765.66  1813.08  1845.62  1885.73
                             1959.24  1984.54  1990.98  2001.61  2015.25
                             2032.52  2042.19  2067.96  2070.53  2163.54
                             2169.09  2177.22  2187.22  2189.76  2206.90
                             2216.66  2315.12  2361.17  2456.93  2647.92
                             4353.95  4397.25  4403.40  4406.45  4410.18
                             4427.59  4463.50  4467.34  4480.90  4494.50
                             4534.89  4646.87  4709.81  5124.55  5282.74

 Zero-point correction=                           0.263191 (Hartree/Particle)
 Thermal correction to Energy=                    0.278503
 Thermal correction to Enthalpy=                  0.279447
 Thermal correction to Gibbs Free Energy=         0.220778
 Sum of electronic and zero-point Energies=          -1103.809457
 Sum of electronic and thermal Energies=             -1103.794145
 Sum of electronic and thermal Enthalpies=           -1103.793201
 Sum of electronic and thermal Free Energies=        -1103.851870

                     E (Thermal)             CV                S
                      KCal/Mol        Cal/Mol-Kelvin    Cal/Mol-Kelvin
 Total                  174.763             60.047            123.479
 Electronic               0.000              0.000              0.000
 Translational            0.889              2.981             42.438
 Rotational               0.889              2.981             32.736
 Vibrational            172.986             54.085             48.304
 Vibration     1          0.595              1.977              4.798
 Vibration     2          0.597              1.973              4.465
 Vibration     3          0.598              1.968              4.152
 Vibration     4          0.602              1.955              3.625
 Vibration     5          0.603              1.952              3.522
 Vibration     6          0.632              1.859              2.266
 Vibration     7          0.632              1.858              2.257
 Vibration     8          0.641              1.828              2.061
 Vibration     9          0.646              1.815              1.986
 Vibration    10          0.657              1.780              1.808
 Vibration    11          0.676              1.721              1.570
 Vibration    12          0.691              1.677              1.428
 Vibration    13          0.705              1.638              1.316
 Vibration    14          0.715              1.608              1.242
 Vibration    15          0.723              1.587              1.194
 Vibration    16          0.758              1.490              0.998
 Vibration    17          0.779              1.435              0.905
 Vibration    18          0.828              1.314              0.734
 Vibration    19          0.831              1.307              0.726
 Vibration    20          0.840              1.286              0.700
 Vibration    21          0.871              1.215              0.620
 Vibration    22          0.924              1.100              0.507
 Vibration    23          0.947              1.055              0.468
 Vibration    24          0.975              0.998              0.423

                           ! Non-Optimized Parameters !
 Normal termination of Gaussian 16 at Fri Dec 11 13:28:19 2020.

 ----------------------------------------------------------------------
 # B3LYP/6-311++G(d,p) empiricaldispersion=gd3bj scf=xqc pop=npa geom=c
 heck
 ----------------------------------------------------------------------

 --------------------------------------
 CID_79960912_JID_7841_Energie_neutraal
 --------------------------------------
 Structure from the checkpoint file:  "JID_7841.chk"
 Charge =  0 Multiplicity = 1

 SCF Done:  E(RB3LYP) =  -1104.29421520     A.U. after   16 cycles
 Normal termination of Gaussian 16 at Fri Dec 11 13:33:51 2020.

 ----------------------------------------------------------------------
 # B3LYP/6-311++G(d,p) empiricaldispersion=gd3bj scf=xqc pop=npa geom=c
 heck
 ----------------------------------------------------------------------

 ------------------------------------
 CID_79960912_JID_7841_Energie_kation
 ------------------------------------
 Structure from the checkpoint file:  "JID_7841.chk"
 Charge =  1 Multiplicity = 2

 SCF Done:  E(UB3LYP) =  -1103.99504160     A.U. after   29 cycles
 Normal termination of Gaussian 16 at Fri Dec 11 13:47:09 2020.
 Gaussian 16:  ES64L-G16RevA.03 25-Dec-2016

 ----------------------------------------------------------------------
 # B3LYP/6-311++G(d,p) empiricaldispersion=gd3bj scf=xqc pop=npa geom=c
 heck
 ----------------------------------------------------------------------

 -----------------------------------
 CID_79960912_JID_7841_Energie_anion
 -----------------------------------
 Structure from the checkpoint file:  "JID_7841.chk"
 Charge = -1 Multiplicity = 2

                         Standard orientation:
 ---------------------------------------------------------------------
 Center     Atomic      Atomic             Coordinates (Angstroms)
 Number     Number       Type             X           Y           Z
 ---------------------------------------------------------------------
      1          6           0       -2.779584   -1.280232    2.141729
      2          6           0       -1.777181   -1.574374    1.023377
      3          7           0       -1.592214   -0.462879    0.106577
      4          6           0       -2.544102   -0.097059   -0.834009
      5          8           0       -3.613611   -0.653196   -0.992057
      6          7           0       -2.048621    1.004473   -1.595453
      7          6           0       -0.877497    1.278605   -1.127350
      8          6           0       -0.441724    0.424226    0.073896
      9          6           0       -0.324145    1.257827    1.376775
     10          6           0        1.000441    2.016501    1.507940
     11          6           0        2.198359    1.051486    1.506061
     12          6           0        2.036926    0.032302    0.414006
     13          6           0        0.860671   -0.290455   -0.217103
     14          6           0        1.011358   -1.330744   -1.192928
     15          6           0        2.293416   -1.786860   -1.280941
     16         16           0        3.351903   -0.951520   -0.178060
     17          7           0       -0.071242    2.264321   -1.602925
     18          1           0       -2.450442   -0.442763    2.765876
     19          1           0       -2.904212   -2.159919    2.783604
     20          1           0       -3.749647   -1.028464    1.705354
     21          1           0       -0.792783   -1.833414    1.427935
     22          1           0       -2.126069   -2.433379    0.440140
     23          1           0       -0.412847    0.556579    2.215108
     24          1           0       -1.178962    1.938771    1.435159
     25          1           0        1.098095    2.738841    0.690202
     26          1           0        0.998322    2.596703    2.437229
     27          1           0        3.137255    1.605694    1.390358
     28          1           0        2.260522    0.541318    2.478181
     29          1           0        0.188319   -1.712518   -1.786270
     30          1           0        2.687182   -2.560725   -1.925471
     31          1           0        0.924929    2.130302   -1.489914
     32          1           0       -0.358306    2.664114   -2.488185
 ---------------------------------------------------------------------

 SCF Done:  E(UB3LYP) =  -1104.29101243     A.U. after   33 cycles
 SCF Done:  E(UB3LYP) =  -1104.29101243     a.u. after    1 cycles

 The electronic state is 2-A.
 Alpha  occ. eigenvalues --  -88.76841 -18.97519 -14.23441 -14.22654 -14.18460
 Alpha  occ. eigenvalues --  -10.17304 -10.14768 -10.13342 -10.10672 -10.09610
 Alpha  occ. eigenvalues --  -10.09315 -10.07827 -10.07618 -10.07519 -10.07420
 Alpha  occ. eigenvalues --  -10.07159 -10.06430  -7.85468  -5.81761  -5.81397
 Alpha  occ. eigenvalues --   -5.81069  -0.94137  -0.87832  -0.82973  -0.78516
 Alpha  occ. eigenvalues --   -0.76857  -0.71724  -0.67473  -0.64425  -0.62828
 Alpha  occ. eigenvalues --   -0.61102  -0.55275  -0.54648  -0.50948  -0.49416
 Alpha  occ. eigenvalues --   -0.47399  -0.46313  -0.42539  -0.41001  -0.40195
 Alpha  occ. eigenvalues --   -0.39574  -0.37892  -0.35595  -0.34605  -0.34291
 Alpha  occ. eigenvalues --   -0.33391  -0.32186  -0.31831  -0.30323  -0.30049
 Alpha  occ. eigenvalues --   -0.28953  -0.28564  -0.27824  -0.26329  -0.25903
 Alpha  occ. eigenvalues --   -0.25322  -0.25095  -0.24438  -0.23879  -0.22856
 Alpha  occ. eigenvalues --   -0.18125  -0.16037  -0.15512  -0.14848  -0.13615
 Alpha  occ. eigenvalues --   -0.12749   0.04079
 Alpha virt. eigenvalues --    0.06662   0.07026   0.07603   0.07920   0.08781
 Alpha virt. eigenvalues --    0.09075   0.09761   0.10032   0.10657   0.11149
 Alpha virt. eigenvalues --    0.11529   0.12295   0.12634   0.13059   0.13226

  Beta  occ. eigenvalues --  -88.76819 -18.97500 -14.23361 -14.22652 -14.18427
  Beta  occ. eigenvalues --  -10.17288 -10.14671 -10.13353 -10.10661 -10.09492
  Beta  occ. eigenvalues --  -10.09218 -10.07803 -10.07580 -10.07484 -10.07424
  Beta  occ. eigenvalues --  -10.07129 -10.06422  -7.85447  -5.81749  -5.81385
  Beta  occ. eigenvalues --   -5.80999  -0.94093  -0.87750  -0.82903  -0.78389
  Beta  occ. eigenvalues --   -0.76772  -0.71654  -0.67392  -0.64365  -0.62670
  Beta  occ. eigenvalues --   -0.61017  -0.55165  -0.54580  -0.50807  -0.49282
  Beta  occ. eigenvalues --   -0.47301  -0.46222  -0.42425  -0.40932  -0.40118
  Beta  occ. eigenvalues --   -0.39479  -0.37814  -0.35531  -0.34560  -0.34197
  Beta  occ. eigenvalues --   -0.33304  -0.32120  -0.31694  -0.30264  -0.29960
  Beta  occ. eigenvalues --   -0.28817  -0.28488  -0.27751  -0.26227  -0.25726
  Beta  occ. eigenvalues --   -0.25153  -0.24981  -0.24350  -0.23798  -0.22782
  Beta  occ. eigenvalues --   -0.18019  -0.15903  -0.15345  -0.14630  -0.13385
  Beta  occ. eigenvalues --   -0.12324
  Beta virt. eigenvalues --    0.06842   0.07502   0.07622   0.07953   0.08376
  Beta virt. eigenvalues --    0.09063   0.09570   0.10031   0.10408   0.10752
  Beta virt. eigenvalues --    0.11553   0.11777   0.12407   0.12805   0.13101

 Mulliken charges and spin densities:
               1          2
     1  C   -0.393641  -0.125892
     2  C    0.038009  -0.217692
     3  N    0.224997  -0.014409
     4  C    0.407061  -0.216544
     5  O   -0.397232   0.007285
     6  N   -0.130198  -0.027506
     7  C   -0.445091   0.088793
     8  C    0.688257  -0.491049
     9  C   -0.277087  -0.011331
    10  C   -0.735032   0.294030
    11  C    1.832380  -2.281801
    12  C   -0.187714   0.560639
    13  C    0.034716  -0.012444
    14  C   -0.203883   0.166868
    15  C   -0.150150   0.122262
    16  S   -0.421386  -0.181769
    17  N   -0.514427   0.168146
    18  H   -0.038111   0.166964
    19  H    0.017373   0.100974
    20  H    0.165418   0.007093
    21  H    0.065183   0.104395
    22  H    0.200392  -0.022644
    23  H   -0.071856   0.212211
    24  H    0.209587   0.009304
    25  H    0.080724   0.056190
    26  H   -0.658903   0.853983
    27  H   -0.146246   0.311752
    28  H   -0.395441   0.597137
    29  H    0.110178   0.060840
    30  H    0.198373   0.022020
    31  H   -0.084361   0.370865
    32  H   -0.021890   0.321329
 Sum of Mulliken charges =  -1.00000   1.00000

 Dipole moment (field-independent basis, Debye):
    X=              1.6886    Y=             -3.0531    Z=             -1.0367  Tot=              3.6397
 Quadrupole moment (field-independent basis, Debye-Ang):
   XX=           -167.4358   YY=           -136.3868   ZZ=           -154.2953
   XY=             -5.3994   XZ=            -16.8318   YZ=              0.1149

 Summary of Natural Population Analysis:

                                       Natural Population
                Natural  -----------------------------------------------
    Atom  No    Charge         Core      Valence    Rydberg      Total
 -----------------------------------------------------------------------
      C    1   -0.29219      0.99966     2.28751    0.00502     3.29219
      C    2   -0.08678      0.99963     2.07591    0.01124     3.08678
      N    3   -0.27089      0.99961     2.75976    0.01153     3.77089
      C    4    0.40503      0.99966     1.56976    0.02555     2.59497
      O    5   -0.32460      0.99987     3.31945    0.00528     4.32460
      N    6   -0.29520      0.99964     2.78564    0.00993     3.79520
      C    7    0.26300      0.99954     1.71792    0.01954     2.73700
      C    8    0.04952      0.99947     1.93644    0.01457     2.95048
      C    9   -0.18499      0.99960     2.17456    0.01084     3.18499
      C   10   -0.18697      0.99963     2.17863    0.00871     3.18697
      C   11   -0.20404      0.99957     2.19448    0.00998     3.20404
      C   12   -0.06790      0.99939     2.05493    0.01358     3.06790
      C   13   -0.06029      0.99938     2.04766    0.01325     3.06029
      C   14   -0.12437      0.99948     2.11415    0.01074     3.12437
      C   15   -0.17621      0.99954     2.16661    0.01006     3.17621
      S   16    0.20512      4.99941     2.77467    0.02080     7.79488
      N   17   -0.38307      0.99967     2.87402    0.00938     3.88307
      H   18    0.09771      0.00000     0.40125    0.00103     0.40229
      H   19    0.09461      0.00000     0.40465    0.00074     0.40539
      H   20    0.10719      0.00000     0.39191    0.00090     0.39281
      H   21    0.10043      0.00000     0.39835    0.00122     0.39957
      H   22    0.09946      0.00000     0.39951    0.00103     0.40054
      H   23    0.10342      0.00000     0.39487    0.00171     0.39658
      H   24    0.10447      0.00000     0.39426    0.00126     0.39553
      H   25    0.09845      0.00000     0.39958    0.00198     0.40155
      H   26    0.10438      0.00000     0.39406    0.00156     0.39562
      H   27    0.10465      0.00000     0.39424    0.00111     0.39535
      H   28    0.11090      0.00000     0.38455    0.00454     0.38910
      H   29    0.10947      0.00000     0.38943    0.00110     0.39053
      H   30    0.10482      0.00000     0.39452    0.00066     0.39518
      H   31    0.19989      0.00000     0.29663    0.00349     0.30011
      H   32    0.19498      0.00000     0.30235    0.00267     0.30502
 =======================================================================
   * Total *   -0.00000     20.99275    44.77226    0.23499    66.00000

 Normal termination of Gaussian 16 at Fri Dec 11 14:02:30 2020.
