 Gaussian 16, Revision A.03,

 -----------------------------------------------------------
 # opt freq B3LYP/6-31G(d) empiricaldispersion=gd3bj scf=xqc
 -----------------------------------------------------------

 -----------------------------
 CID_62336117_JID_427_neutraal
 -----------------------------
 Symbolic Z-matrix:
 Charge =  0 Multiplicity = 1

 SCF Done:  E(RB3LYP) =  -459.849097574     A.U. after   16 cycles
 SCF Done:  E(RB3LYP) =  -459.867730819     A.U. after   14 cycles
 SCF Done:  E(RB3LYP) =  -459.870437711     A.U. after   14 cycles
 SCF Done:  E(RB3LYP) =  -459.879313022     A.U. after   14 cycles
 SCF Done:  E(RB3LYP) =  -459.882146742     A.U. after   14 cycles
 SCF Done:  E(RB3LYP) =  -459.874067310     A.U. after   15 cycles
 SCF Done:  E(RB3LYP) =  -459.886121547     A.U. after   13 cycles
 SCF Done:  E(RB3LYP) =  -459.887169051     A.U. after   12 cycles
 SCF Done:  E(RB3LYP) =  -459.887864686     A.U. after   12 cycles
 SCF Done:  E(RB3LYP) =  -459.888181762     A.U. after   11 cycles
 SCF Done:  E(RB3LYP) =  -459.894976888     A.U. after   10 cycles
 SCF Done:  E(RB3LYP) =  -459.895025564     A.U. after   10 cycles
 SCF Done:  E(RB3LYP) =  -459.895036572     A.U. after   10 cycles
 SCF Done:  E(RB3LYP) =  -459.895040982     A.U. after   10 cycles
 SCF Done:  E(RB3LYP) =  -459.895042012     A.U. after    9 cycles
 SCF Done:  E(RB3LYP) =  -459.895042135     A.U. after    7 cycles
 Optimization completed.
    -- Stationary point found.
 Normal termination of Gaussian 16 at Tue Dec  8 10:53:35 2020.

 --------------------------------------------------------------------
 #N Geom=AllCheck Guess=TCheck SCRF=Check GenChk RB3LYP/6-31G(d) Freq
 --------------------------------------------------------------------

 Structure from the checkpoint file:  "JID_427.chk"
 -----------------------------
 CID_62336117_JID_427_neutraal
 -----------------------------
 Charge =  0 Multiplicity = 1

 SCF Done:  E(RB3LYP) =  -459.895042135     A.U. after    1 cycles

  Exact polarizability:  95.616   5.797  92.171  -1.455   1.521  71.083
 Approx polarizability: 115.694  10.041 137.846  -4.030  -1.366 106.759

                      1                      2                      3
                      A                      A                      A
 Frequencies --     27.3592                69.1373                79.4016
 Red. masses --      4.0770                 4.4564                 2.8236
 Frc consts  --      0.0018                 0.0126                 0.0105
 IR Inten    --      2.4986                 2.2306                 1.4237

                      4                      5                      6
                      A                      A                      A
 Frequencies --    113.2031               172.7597               182.3319
 Red. masses --      2.9053                 3.6568                 3.2611
 Frc consts  --      0.0219                 0.0643                 0.0639
 IR Inten    --      0.3655                 6.2884                 6.7396

                      7                      8                      9
                      A                      A                      A
 Frequencies --    201.4578               241.2215               273.9525
 Red. masses --      3.6346                 1.2780                 1.7591
 Frc consts  --      0.0869                 0.0438                 0.0778
 IR Inten    --      1.9812                 0.2172                 0.8835

                     10                     11                     12
                      A                      A                      A
 Frequencies --    288.7217               319.9282               341.2460
 Red. masses --      1.3860                 3.3633                 1.6687
 Frc consts  --      0.0681                 0.2028                 0.1145
 IR Inten    --      0.9579                 5.4037                 4.5826

                     13                     14                     15
                      A                      A                      A
 Frequencies --    408.5274               461.0847               521.2274
 Red. masses --      3.0516                 2.7035                 2.2254
 Frc consts  --      0.3001                 0.3386                 0.3562
 IR Inten    --      8.2614                 2.4239                 3.3304

                     16                     17                     18
                      A                      A                      A
 Frequencies --    568.1826               657.0155               724.3078
 Red. masses --      4.8799                 3.6485                 1.7266
 Frc consts  --      0.9282                 0.9279                 0.5337
 IR Inten    --      3.7950                 3.7094               118.0671

                     19                     20                     21
                      A                      A                      A
 Frequencies --    779.8739               788.0618               826.7439
 Red. masses --      2.0676                 1.4634                 1.9082
 Frc consts  --      0.7409                 0.5355                 0.7684
 IR Inten    --      5.4986                 3.0436                 8.7755

                     22                     23                     24
                      A                      A                      A
 Frequencies --    885.5440               918.2888               953.0287
 Red. masses --      1.9308                 2.0128                 2.3315
 Frc consts  --      0.8921                 1.0000                 1.2477
 IR Inten    --      4.9502                 0.6062                26.9167

                     25                     26                     27
                      A                      A                      A
 Frequencies --   1027.6768              1049.5972              1087.8609
 Red. masses --      2.5499                 2.0632                 2.0867
 Frc consts  --      1.5867                 1.3392                 1.4550
 IR Inten    --     21.5427                 1.5400                35.2490

                     28                     29                     30
                      A                      A                      A
 Frequencies --   1093.8289              1118.1399              1134.8681
 Red. masses --      1.8398                 2.0233                 2.0266
 Frc consts  --      1.2970                 1.4904                 1.5378
 IR Inten    --     22.9297                44.1909                 1.5637

                     31                     32                     33
                      A                      A                      A
 Frequencies --   1180.4682              1194.3895              1209.4700
 Red. masses --      3.1925                 2.4663                 2.2778
 Frc consts  --      2.6212                 2.0729                 1.9632
 IR Inten    --    146.2145                33.0894                20.0102

                     34                     35                     36
                      A                      A                      A
 Frequencies --   1285.4332              1297.2377              1353.3152
 Red. masses --      1.1634                 1.2629                 1.3304
 Frc consts  --      1.1326                 1.2522                 1.4356
 IR Inten    --     18.2272                 1.7252                 7.3080

                     37                     38                     39
                      A                      A                      A
 Frequencies --   1371.7102              1390.1382              1397.1020
 Red. masses --      1.1550                 1.2048                 1.2349
 Frc consts  --      1.2804                 1.3718                 1.4202
 IR Inten    --      5.1919                 3.8346                17.0258

                     40                     41                     42
                      A                      A                      A
 Frequencies --   1417.9214              1429.3136              1436.5635
 Red. masses --      1.2802                 1.2567                 1.2605
 Frc consts  --      1.5165                 1.5126                 1.5327
 IR Inten    --      3.4940                 8.5870                11.8767

                     43                     44                     45
                      A                      A                      A
 Frequencies --   1439.1509              1501.2044              1511.4727
 Red. masses --      1.2645                 1.0710                 1.0860
 Frc consts  --      1.5431                 1.4220                 1.4618
 IR Inten    --      2.6478                 5.1514                 2.5075

                     46                     47                     48
                      A                      A                      A
 Frequencies --   1516.3264              1519.5239              1526.3067
 Red. masses --      1.0546                 1.1791                 1.0502
 Frc consts  --      1.4286                 1.6040                 1.4415
 IR Inten    --      6.8470                18.5074                 2.2976

                     49                     50                     51
                      A                      A                      A
 Frequencies --   1529.4935              1537.6816              1545.7683
 Red. masses --      1.0629                 1.1106                 1.0757
 Frc consts  --      1.4650                 1.5472                 1.5144
 IR Inten    --      2.0133                25.4856                 1.1738

                     52                     53                     54
                      A                      A                      A
 Frequencies --   2360.0938              3021.0549              3029.2521
 Red. masses --     12.6701                 1.0637                 1.0646
 Frc consts  --     41.5803                 5.7196                 5.7558
 IR Inten    --      0.7065                25.3435                61.6730

                     55                     56                     57
                      A                      A                      A
 Frequencies --   3035.0764              3044.3537              3071.1824
 Red. masses --      1.0630                 1.0373                 1.0353
 Frc consts  --      5.7694                 5.6640                 5.7536
 IR Inten    --     55.6244                13.8693                 9.1477

                     58                     59                     60
                      A                      A                      A
 Frequencies --   3072.2491              3079.6221              3083.5932
 Red. masses --      1.1016                 1.0849                 1.0963
 Frc consts  --      6.1262                 6.0622                 6.1420
 IR Inten    --     11.8832                10.2971                28.4366

                     61                     62                     63
                      A                      A                      A
 Frequencies --   3092.7869              3108.2102              3127.2923
 Red. masses --      1.1014                 1.1004                 1.1029
 Frc consts  --      6.2071                 6.2636                 6.3552
 IR Inten    --     69.1791                41.1884                28.1758

                     64                     65                     66
                      A                      A                      A
 Frequencies --   3146.8921              3154.7286              3519.2201
 Red. masses --      1.1034                 1.1039                 1.0735
 Frc consts  --      6.4379                 6.4730                 7.8332
 IR Inten    --     14.6629                13.8901                 0.9783

 - Thermochemistry -
 -------------------
 Temperature   298.150 Kelvin.  Pressure   1.00000 Atm.
 Atom     1 has atomic number  6 and mass  12.00000

 Molecular mass:   142.11061 amu.
 Principal axes and moments of inertia in atomic units:
                           1         2         3
     Eigenvalues --   951.933102147.098922750.82503
           X            0.99918   0.04043   0.00129
           Y           -0.04044   0.99916   0.00665
           Z           -0.00102  -0.00670   0.99998
 This molecule is an asymmetric top.
 Rotational symmetry number  1.
 Warning -- assumption of classical behavior for rotation
           may cause significant error
 Rotational temperatures (Kelvin)      0.09099     0.04034     0.03149
 Rotational constants (GHZ):           1.89587     0.84055     0.65607
 Zero-point vibrational energy     555367.4 (Joules/Mol)
                                  132.73599 (Kcal/Mol)
 Warning -- explicit consideration of  16 degrees of freedom as
           vibrations may cause significant error
 Vibrational temperatures:     39.36    99.47   114.24   162.87   248.56
          (Kelvin)            262.33   289.85   347.06   394.16   415.41
                              460.31   490.98   587.78   663.40   749.93
                              817.49   945.30  1042.12  1122.06  1133.85
                             1189.50  1274.10  1321.21  1371.20  1478.60
                             1510.14  1565.19  1573.78  1608.75  1632.82
                             1698.43  1718.46  1740.16  1849.45  1866.44
                             1947.12  1973.59  2000.10  2010.12  2040.07
                             2056.46  2066.89  2070.62  2159.90  2174.67
                             2181.66  2186.26  2196.01  2200.60  2212.38
                             2224.02  3395.65  4346.62  4358.42  4366.80
                             4380.15  4418.75  4420.28  4430.89  4436.60
                             4449.83  4472.02  4499.48  4527.68  4538.95
                             5063.37

 Zero-point correction=                           0.211528 (Hartree/Particle)
 Thermal correction to Energy=                    0.223326
 Thermal correction to Enthalpy=                  0.224270
 Thermal correction to Gibbs Free Energy=         0.173118
 Sum of electronic and zero-point Energies=           -459.683514
 Sum of electronic and thermal Energies=              -459.671716
 Sum of electronic and thermal Enthalpies=            -459.670772
 Sum of electronic and thermal Free Energies=         -459.721924

                     E (Thermal)             CV                S
                      KCal/Mol        Cal/Mol-Kelvin    Cal/Mol-Kelvin
 Total                  140.139             42.085            107.658
 Electronic               0.000              0.000              0.000
 Translational            0.889              2.981             40.766
 Rotational               0.889              2.981             30.109
 Vibrational            138.362             36.124             36.783
 Vibration     1          0.593              1.984              6.012
 Vibration     2          0.598              1.969              4.178
 Vibration     3          0.600              1.963              3.906
 Vibration     4          0.607              1.939              3.213
 Vibration     5          0.626              1.876              2.405
 Vibration     6          0.630              1.864              2.304
 Vibration     7          0.638              1.838              2.120
 Vibration     8          0.658              1.777              1.794
 Vibration     9          0.676              1.721              1.571
 Vibration    10          0.685              1.695              1.481
 Vibration    11          0.706              1.635              1.310
 Vibration    12          0.721              1.593              1.206
 Vibration    13          0.773              1.452              0.932
 Vibration    14          0.819              1.336              0.763
 Vibration    15          0.876              1.203              0.607
 Vibration    16          0.924              1.100              0.508

                           ! Non-Optimized Parameters !
 Normal termination of Gaussian 16 at Tue Dec  8 11:00:37 2020.

 ----------------------------------------------------------------------
 # B3LYP/6-311++G(d,p) empiricaldispersion=gd3bj scf=xqc pop=npa geom=c
 heck
 ----------------------------------------------------------------------

 -------------------------------------
 CID_62336117_JID_427_Energie_neutraal
 -------------------------------------
 Structure from the checkpoint file:  "JID_427.chk"
 Charge =  0 Multiplicity = 1

 SCF Done:  E(RB3LYP) =  -460.032072845     A.U. after   13 cycles
 Normal termination of Gaussian 16 at Tue Dec  8 11:04:01 2020.

 ----------------------------------------------------------------------
 # B3LYP/6-311++G(d,p) empiricaldispersion=gd3bj scf=xqc pop=npa geom=c
 heck
 ----------------------------------------------------------------------

 -----------------------------------
 CID_62336117_JID_427_Energie_kation
 -----------------------------------
 Structure from the checkpoint file:  "JID_427.chk"
 Charge =  1 Multiplicity = 2

 SCF Done:  E(UB3LYP) =  -459.726188257     A.U. after   19 cycles
 Normal termination of Gaussian 16 at Tue Dec  8 11:08:40 2020.
 Gaussian 16:  ES64L-G16RevA.03 25-Dec-2016

 ----------------------------------------------------------------------
 # B3LYP/6-311++G(d,p) empiricaldispersion=gd3bj scf=xqc pop=npa geom=c
 heck
 ----------------------------------------------------------------------

 ----------------------------------
 CID_62336117_JID_427_Energie_anion
 ----------------------------------
 Structure from the checkpoint file:  "JID_427.chk"
 Charge = -1 Multiplicity = 2

                         Standard orientation:
 ---------------------------------------------------------------------
 Center     Atomic      Atomic             Coordinates (Angstroms)
 Number     Number       Type             X           Y           Z
 ---------------------------------------------------------------------
      1          6           0       -2.275997   -1.390909    0.679945
      2          6           0       -2.878403   -0.290751   -0.208210
      3          7           0       -1.978839    0.722377   -0.755554
      4          6           0       -1.260883    1.562771    0.190298
      5          6           0        0.108050    1.038605    0.624902
      6          8           0        0.900179    0.946339   -0.568244
      7          6           0        2.033439    0.104417   -0.500343
      8          6           0        3.061050    0.515955    0.560264
      9          6           0        1.621369   -1.311516   -0.316452
     10          7           0        1.268474   -2.407008   -0.167300
     11          1           0       -1.460835   -1.917111    0.171293
     12          1           0       -3.043657   -2.128940    0.943456
     13          1           0       -1.881134   -0.984542    1.618282
     14          1           0       -3.380588   -0.759069   -1.063771
     15          1           0       -3.662389    0.236879    0.351961
     16          1           0       -1.316532    0.312000   -1.409261
     17          1           0       -1.102044    2.553777   -0.257960
     18          1           0       -1.882977    1.712789    1.081096
     19          1           0        0.579853    1.730154    1.337636
     20          1           0        0.024030    0.052051    1.095073
     21          1           0        2.492497    0.179805   -1.492291
     22          1           0        2.663336    0.393984    1.571132
     23          1           0        3.962930   -0.097189    0.471154
     24          1           0        3.326887    1.565680    0.405710
 ---------------------------------------------------------------------

 SCF Done:  E(UB3LYP) =  -460.019161078     A.U. after   31 cycles

 The electronic state is 2-A.
 Alpha  occ. eigenvalues --  -19.04228 -14.21892 -14.19635 -10.16636 -10.11756
 Alpha  occ. eigenvalues --  -10.11363 -10.09962 -10.09600 -10.06871 -10.06171
 Alpha  occ. eigenvalues --   -0.95632  -0.81345  -0.80659  -0.69542  -0.65423
 Alpha  occ. eigenvalues --   -0.61979  -0.56391  -0.52715  -0.50316  -0.43807
 Alpha  occ. eigenvalues --   -0.42132  -0.38641  -0.37620  -0.35468  -0.33864
 Alpha  occ. eigenvalues --   -0.32226  -0.30940  -0.30378  -0.29730  -0.29074
 Alpha  occ. eigenvalues --   -0.27796  -0.27260  -0.25777  -0.24971  -0.24692
 Alpha  occ. eigenvalues --   -0.23881  -0.22193  -0.18345  -0.12552   0.04614
 Alpha virt. eigenvalues --    0.06651   0.07453   0.08453   0.09245   0.09711
 Alpha virt. eigenvalues --    0.10032   0.10481   0.11065   0.11988   0.12226
 Alpha virt. eigenvalues --    0.12499   0.13177   0.13794   0.14335   0.15844

  Beta  occ. eigenvalues --  -19.04224 -14.21866 -14.19630 -10.16610 -10.11725
  Beta  occ. eigenvalues --  -10.11360 -10.09953 -10.09582 -10.06796 -10.06158
  Beta  occ. eigenvalues --   -0.95614  -0.81305  -0.80642  -0.69482  -0.65387
  Beta  occ. eigenvalues --   -0.61932  -0.56281  -0.52652  -0.50271  -0.43757
  Beta  occ. eigenvalues --   -0.42082  -0.38598  -0.37567  -0.35441  -0.33795
  Beta  occ. eigenvalues --   -0.32188  -0.30882  -0.30334  -0.29694  -0.29013
  Beta  occ. eigenvalues --   -0.27756  -0.27206  -0.25749  -0.24930  -0.24640
  Beta  occ. eigenvalues --   -0.23856  -0.22127  -0.18321  -0.12523
  Beta virt. eigenvalues --    0.06785   0.07852   0.08252   0.08727   0.09882
  Beta virt. eigenvalues --    0.10164   0.10608   0.10733   0.11500   0.12402
  Beta virt. eigenvalues --    0.12721   0.13055   0.13369   0.14070   0.14751

 Mulliken charges and spin densities:
               1          2
     1  C   -0.132271  -0.322354
     2  C   -0.270457  -0.029353
     3  N   -0.192948   0.110238
     4  C    1.192718  -1.807108
     5  C   -0.003034  -0.185009
     6  O   -0.075707  -0.010333
     7  C   -2.499629   2.889766
     8  C    2.413846  -3.002477
     9  C    1.960345  -2.102834
    10  N   -0.347592   0.051305
    11  H    0.178342  -0.035305
    12  H   -0.032142   0.157398
    13  H   -0.062076   0.199783
    14  H    0.019287   0.122247
    15  H    0.037705   0.094731
    16  H    0.175073   0.048269
    17  H    0.031596   0.159287
    18  H   -0.227314   0.378964
    19  H   -0.465275   0.655669
    20  H    0.166418   0.002978
    21  H   -0.955486   1.196286
    22  H   -0.679642   0.842473
    23  H   -0.637859   0.805953
    24  H   -0.593897   0.779423
 Sum of Mulliken charges =  -1.00000   1.00000

 Dipole moment (field-independent basis, Debye):
    X=             -7.3172    Y=             -1.9109    Z=             -1.4665  Tot=              7.7035
 Quadrupole moment (field-independent basis, Debye-Ang):
   XX=           -131.0211   YY=           -106.0115   ZZ=            -97.2212
   XY=             -3.4317   XZ=             -0.4841   YZ=             -2.8042

 Summary of Natural Population Analysis:

                                       Natural Population
                Natural  -----------------------------------------------
    Atom  No    Charge         Core      Valence    Rydberg      Total
 -----------------------------------------------------------------------
      C    1   -0.30047      0.99966     2.29635    0.00446     3.30047
      C    2   -0.08439      0.99964     2.07473    0.01002     3.08439
      N    3   -0.34257      0.99975     2.83127    0.01154     3.84257
      C    4   -0.09721      0.99962     2.08361    0.01398     3.09721
      C    5   -0.02493      0.99956     2.01249    0.01288     3.02493
      O    6   -0.29790      0.99988     3.28783    0.01018     4.29790
      C    7    0.01858      0.99948     1.96532    0.01662     2.98142
      C    8   -0.29197      0.99965     2.28642    0.00591     3.29197
      C    9    0.14902      0.99963     1.83277    0.01857     2.85098
      N   10   -0.18107      0.99979     2.66998    0.01130     3.68107
      H   11    0.10543      0.00000     0.39327    0.00131     0.39457
      H   12    0.09534      0.00000     0.40353    0.00113     0.40466
      H   13    0.09556      0.00000     0.40304    0.00141     0.40444
      H   14    0.08884      0.00000     0.41010    0.00106     0.41116
      H   15    0.08582      0.00000     0.41296    0.00122     0.41418
      H   16    0.17625      0.00000     0.32051    0.00324     0.32375
      H   17    0.09500      0.00000     0.40353    0.00147     0.40500
      H   18    0.09559      0.00000     0.40316    0.00125     0.40441
      H   19    0.08989      0.00000     0.40771    0.00239     0.41011
      H   20    0.08491      0.00000     0.41271    0.00238     0.41509
      H   21    0.11422      0.00000     0.38234    0.00344     0.38578
      H   22    0.10421      0.00000     0.39313    0.00266     0.39579
      H   23    0.11012      0.00000     0.38649    0.00340     0.38988
      H   24    0.11175      0.00000     0.38373    0.00452     0.38825
 =======================================================================
   * Total *   -0.00000      9.99668    28.85699    0.14633    39.00000

 Normal termination of Gaussian 16 at Tue Dec  8 11:14:25 2020.
