 Gaussian 16, Revision A.03,

 -----------------------------------------------------------
 # opt freq B3LYP/6-31G(d) empiricaldispersion=gd3bj scf=xqc
 -----------------------------------------------------------

 ------------------------------
 CID_16782220_JID_2158_neutraal
 ------------------------------
 Symbolic Z-matrix:
 Charge =  0 Multiplicity = 1

 SCF Done:  E(RB3LYP) =  -503.845166221     A.U. after   13 cycles
 SCF Done:  E(RB3LYP) =  -503.849364675     A.U. after   11 cycles
 SCF Done:  E(RB3LYP) =  -503.849751296     A.U. after   11 cycles
 SCF Done:  E(RB3LYP) =  -503.850736535     A.U. after   10 cycles
 SCF Done:  E(RB3LYP) =  -503.851012441     A.U. after   10 cycles
 SCF Done:  E(RB3LYP) =  -503.851054152     A.U. after   10 cycles
 SCF Done:  E(RB3LYP) =  -503.851081829     A.U. after    9 cycles
 SCF Done:  E(RB3LYP) =  -503.851087321     A.U. after    8 cycles
 SCF Done:  E(RB3LYP) =  -503.851090286     A.U. after    8 cycles
 SCF Done:  E(RB3LYP) =  -503.851092054     A.U. after    8 cycles
 SCF Done:  E(RB3LYP) =  -503.851092888     A.U. after    7 cycles
 SCF Done:  E(RB3LYP) =  -503.851093071     A.U. after    7 cycles
 SCF Done:  E(RB3LYP) =  -503.851093123     A.U. after    6 cycles
 Optimization completed.
    -- Stationary point found.
 Normal termination of Gaussian 16 at Wed Dec  9 16:53:05 2020.

 --------------------------------------------------------------------
 #N Geom=AllCheck Guess=TCheck SCRF=Check GenChk RB3LYP/6-31G(d) Freq
 --------------------------------------------------------------------

 Structure from the checkpoint file:  "JID_2158.chk"
 ------------------------------
 CID_16782220_JID_2158_neutraal
 ------------------------------
 Charge =  0 Multiplicity = 1

 SCF Done:  E(RB3LYP) =  -503.851093123     A.U. after    1 cycles

  Exact polarizability: 135.549   4.280 114.967   1.509  -0.665 104.183
 Approx polarizability: 160.184   4.602 161.825   4.674  -1.857 161.051

                      1                      2                      3
                      A                      A                      A
 Frequencies --     36.1868                61.3716                75.8200
 Red. masses --      2.8500                 2.9035                 3.0272
 Frc consts  --      0.0022                 0.0064                 0.0103
 IR Inten    --      0.0809                 0.0538                 0.0530

                      4                      5                      6
                      A                      A                      A
 Frequencies --     99.3086               121.9029               166.7299
 Red. masses --      2.3297                 2.4863                 2.2961
 Frc consts  --      0.0135                 0.0218                 0.0376
 IR Inten    --      0.2499                 0.6665                 0.4277

                      7                      8                      9
                      A                      A                      A
 Frequencies --    210.6673               235.4210               239.9982
 Red. masses --      1.6220                 1.2806                 1.7740
 Frc consts  --      0.0424                 0.0418                 0.0602
 IR Inten    --      0.0676                 0.0425                 0.0661

                     10                     11                     12
                      A                      A                      A
 Frequencies --    272.8175               327.7273               361.4448
 Red. masses --      1.5768                 2.2965                 2.6912
 Frc consts  --      0.0691                 0.1453                 0.2072
 IR Inten    --      0.1969                 5.3316                 6.1078

                     13                     14                     15
                      A                      A                      A
 Frequencies --    371.4451               397.2031               422.4149
 Red. masses --      2.7523                 2.1567                 2.2451
 Frc consts  --      0.2237                 0.2005                 0.2360
 IR Inten    --      1.3782                 1.9474                 3.0388

                     16                     17                     18
                      A                      A                      A
 Frequencies --    434.7735               448.4392               512.7086
 Red. masses --      1.8012                 1.9758                 2.2215
 Frc consts  --      0.2006                 0.2341                 0.3441
 IR Inten    --      0.7840                 9.6391                 2.9538

                     19                     20                     21
                      A                      A                      A
 Frequencies --    566.1187               597.6684               721.5512
 Red. masses --      1.6269                 2.3957                 2.0557
 Frc consts  --      0.3072                 0.5042                 0.6306
 IR Inten    --     10.1548                 2.1456               128.1152

                     22                     23                     24
                      A                      A                      A
 Frequencies --    740.0753               770.1406               778.9507
 Red. masses --      1.8561                 2.2471                 1.7357
 Frc consts  --      0.5990                 0.7853                 0.6205
 IR Inten    --      2.5511                 2.2541                14.9172

                     25                     26                     27
                      A                      A                      A
 Frequencies --    854.7645               875.0108               902.1068
 Red. masses --      2.0159                 2.6243                 1.9753
 Frc consts  --      0.8678                 1.1838                 0.9471
 IR Inten    --     17.0710                 2.3342                13.2009

                     28                     29                     30
                      A                      A                      A
 Frequencies --    919.9832               941.4701               953.0006
 Red. masses --      1.8681                 1.1967                 2.2129
 Frc consts  --      0.9316                 0.6250                 1.1841
 IR Inten    --      1.2079                 1.8592                 7.6164

                     31                     32                     33
                      A                      A                      A
 Frequencies --    972.9153               977.5522              1003.5534
 Red. masses --      1.5913                 1.5520                 1.7406
 Frc consts  --      0.8875                 0.8738                 1.0328
 IR Inten    --      4.2039                 3.0660                 7.6915

                     34                     35                     36
                      A                      A                      A
 Frequencies --   1017.1089              1038.3561              1067.2952
 Red. masses --      2.0781                 2.3039                 2.0625
 Frc consts  --      1.2666                 1.4635                 1.3842
 IR Inten    --      2.6760                 2.7446                 5.3452

                     37                     38                     39
                      A                      A                      A
 Frequencies --   1085.3524              1132.1984              1142.1276
 Red. masses --      2.3111                 2.2474                 2.1095
 Frc consts  --      1.6040                 1.6973                 1.6212
 IR Inten    --     14.6818                 3.5518                48.4937

                     40                     41                     42
                      A                      A                      A
 Frequencies --   1154.9909              1167.2707              1197.5328
 Red. masses --      1.8596                 2.0512                 2.0875
 Frc consts  --      1.4616                 1.6466                 1.7638
 IR Inten    --      3.7548                30.3317                 4.2290

                     43                     44                     45
                      A                      A                      A
 Frequencies --   1204.7847              1212.2964              1253.0703
 Red. masses --      2.5700                 1.9611                 1.2515
 Frc consts  --      2.1979                 1.6982                 1.1578
 IR Inten    --     33.5876                11.3494                 3.2100

                     46                     47                     48
                      A                      A                      A
 Frequencies --   1269.5103              1292.4822              1316.1177
 Red. masses --      1.2360                 1.3867                 1.1810
 Frc consts  --      1.1737                 1.3649                 1.2053
 IR Inten    --     11.0673                 4.2073                 1.0874

                     49                     50                     51
                      A                      A                      A
 Frequencies --   1340.1272              1347.8496              1374.0419
 Red. masses --      1.3047                 1.3717                 1.3597
 Frc consts  --      1.3806                 1.4682                 1.5125
 IR Inten    --     10.8180                 0.4658                 2.6679

                     52                     53                     54
                      A                      A                      A
 Frequencies --   1381.6667              1385.4958              1394.1620
 Red. masses --      1.4089                 1.2854                 1.2956
 Frc consts  --      1.5847                 1.4538                 1.4837
 IR Inten    --      5.9867                18.0334                 0.7169

                     55                     56                     57
                      A                      A                      A
 Frequencies --   1402.4839              1410.9088              1418.5705
 Red. masses --      1.2940                 1.2626                 1.3512
 Frc consts  --      1.4996                 1.4809                 1.6021
 IR Inten    --     11.8207                20.5250                29.6584

                     58                     59                     60
                      A                      A                      A
 Frequencies --   1422.8741              1428.5489              1430.9954
 Red. masses --      1.3403                 1.2959                 1.2852
 Frc consts  --      1.5988                 1.5582                 1.5506
 IR Inten    --      8.3401                10.6746                 3.2732

                     61                     62                     63
                      A                      A                      A
 Frequencies --   1447.3666              1452.9412              1498.3281
 Red. masses --      1.2710                 1.2738                 1.0786
 Frc consts  --      1.5688                 1.5843                 1.4266
 IR Inten    --     11.4295                 0.2726                 4.0988

                     64                     65                     66
                      A                      A                      A
 Frequencies --   1501.4286              1505.9087              1510.0035
 Red. masses --      1.0799                 1.1193                 1.0828
 Frc consts  --      1.4343                 1.4955                 1.4546
 IR Inten    --      3.9768                 6.4001                 1.8350

                     67                     68                     69
                      A                      A                      A
 Frequencies --   1512.6776              1518.3467              1520.2931
 Red. masses --      1.1329                 1.1522                 1.0546
 Frc consts  --      1.5273                 1.5650                 1.4361
 IR Inten    --      9.6654                 5.6020                 2.1835

                     70                     71                     72
                      A                      A                      A
 Frequencies --   1524.4973              1527.1090              1533.3673
 Red. masses --      1.0626                 1.1027                 1.0768
 Frc consts  --      1.4551                 1.5151                 1.4917
 IR Inten    --      6.0893                 1.5819                 7.0550

                     73                     74                     75
                      A                      A                      A
 Frequencies --   1537.0513              1543.9276              2915.3697
 Red. masses --      1.0755                 1.0597                 1.0724
 Frc consts  --      1.4971                 1.4883                 5.3700
 IR Inten    --      2.1901                 3.8518                64.3682

                     76                     77                     78
                      A                      A                      A
 Frequencies --   2951.8499              3008.7336              3020.8125
 Red. masses --      1.0730                 1.0653                 1.0632
 Frc consts  --      5.5084                 5.6817                 5.7162
 IR Inten    --     55.7385                17.9533                22.1828

                     79                     80                     81
                      A                      A                      A
 Frequencies --   3029.8473              3035.3017              3035.8163
 Red. masses --      1.0621                 1.0465                 1.0515
 Frc consts  --      5.7444                 5.6808                 5.7095
 IR Inten    --     75.4312                39.8736                30.6696

                     82                     83                     84
                      A                      A                      A
 Frequencies --   3038.0905              3042.0053              3048.1136
 Red. masses --      1.0671                 1.0511                 1.0776
 Frc consts  --      5.8029                 5.7309                 5.8990
 IR Inten    --    100.4873                21.0010                 6.7297

                     85                     86                     87
                      A                      A                      A
 Frequencies --   3059.1765              3060.4779              3073.5332
 Red. masses --      1.0982                 1.0942                 1.0917
 Frc consts  --      6.0556                 6.0385                 6.0760
 IR Inten    --     13.8285                41.7194                23.8566

                     88                     89                     90
                      A                      A                      A
 Frequencies --   3081.0880              3083.9912              3088.3921
 Red. masses --      1.0980                 1.0925                 1.0965
 Frc consts  --      6.1414                 6.1220                 6.1621
 IR Inten    --     14.5126                34.8958                73.2666

                     91                     92                     93
                      A                      A                      A
 Frequencies --   3098.9364              3100.2252              3106.9118
 Red. masses --      1.1009                 1.0969                 1.1007
 Frc consts  --      6.2291                 6.2117                 6.2601
 IR Inten    --      9.7800                50.3448                64.0376

                     94                     95                     96
                      A                      A                      A
 Frequencies --   3109.6421              3120.4845              3491.6508
 Red. masses --      1.1015                 1.0995                 1.0735
 Frc consts  --      6.2757                 6.3081                 7.7111
 IR Inten    --     63.5128                46.4811                 1.8555

 - Thermochemistry -
 -------------------
 Temperature   298.150 Kelvin.  Pressure   1.00000 Atm.
 Atom     1 has atomic number  6 and mass  12.00000

 Molecular mass:   170.17830 amu.
 Principal axes and moments of inertia in atomic units:
                           1         2         3
     Eigenvalues --  1011.935653925.231744326.02294
           X            0.99997   0.00754  -0.00307
           Y           -0.00747   0.99976   0.02078
           Z            0.00322  -0.02076   0.99978
 This molecule is an asymmetric top.
 Rotational symmetry number  1.
 Warning -- assumption of classical behavior for rotation
           may cause significant error
 Rotational temperatures (Kelvin)      0.08559     0.02207     0.02002
 Rotational constants (GHZ):           1.78345     0.45978     0.41718
 Zero-point vibrational energy     839737.6 (Joules/Mol)
                                  200.70209 (Kcal/Mol)
 Warning -- explicit consideration of  20 degrees of freedom as
           vibrations may cause significant error
 Vibrational temperatures:     52.06    88.30   109.09   142.88   175.39
          (Kelvin)            239.89   303.10   338.72   345.30   392.52
                              471.53   520.04   534.43   571.49   607.76
                              625.54   645.20   737.67   814.52   859.91
                             1038.15  1064.80  1108.06  1120.74  1229.82
                             1258.95  1297.93  1323.65  1354.57  1371.16
                             1399.81  1406.48  1443.89  1463.39  1493.96
                             1535.60  1561.58  1628.98  1643.27  1661.77
                             1679.44  1722.98  1733.42  1744.22  1802.89
                             1826.54  1859.59  1893.60  1928.14  1939.25
                             1976.94  1987.91  1993.42  2005.89  2017.86
                             2029.98  2041.01  2047.20  2055.36  2058.88
                             2082.44  2090.46  2155.76  2160.22  2166.67
                             2172.56  2176.41  2184.56  2187.36  2193.41
                             2197.17  2206.17  2211.47  2221.37  4194.57
                             4247.05  4328.90  4346.28  4359.27  4367.12
                             4367.86  4371.13  4376.77  4385.56  4401.47
                             4403.35  4422.13  4433.00  4437.18  4443.51
                             4458.68  4460.53  4470.15  4474.08  4489.68
                             5023.71

 Zero-point correction=                           0.319839 (Hartree/Particle)
 Thermal correction to Energy=                    0.333220
 Thermal correction to Enthalpy=                  0.334165
 Thermal correction to Gibbs Free Energy=         0.279781
 Sum of electronic and zero-point Energies=           -503.531254
 Sum of electronic and thermal Energies=              -503.517873
 Sum of electronic and thermal Enthalpies=            -503.516929
 Sum of electronic and thermal Free Energies=         -503.571312

                     E (Thermal)             CV                S
                      KCal/Mol        Cal/Mol-Kelvin    Cal/Mol-Kelvin
 Total                  209.099             51.358            114.459
 Electronic               0.000              0.000              0.000
 Translational            0.889              2.981             41.303
 Rotational               0.889              2.981             31.219
 Vibrational            207.321             45.397             41.937
 Vibration     1          0.594              1.982              5.458
 Vibration     2          0.597              1.973              4.413
 Vibration     3          0.599              1.965              3.996
 Vibration     4          0.604              1.950              3.468
 Vibration     5          0.609              1.931              3.070
 Vibration     6          0.624              1.883              2.472
 Vibration     7          0.643              1.825              2.038
 Vibration     8          0.655              1.787              1.837
 Vibration     9          0.657              1.779              1.803
 Vibration    10          0.676              1.723              1.578
 Vibration    11          0.711              1.620              1.271
 Vibration    12          0.736              1.552              1.116
 Vibration    13          0.743              1.531              1.074
 Vibration    14          0.764              1.476              0.973
 Vibration    15          0.785              1.422              0.884
 Vibration    16          0.795              1.394              0.843
 Vibration    17          0.807              1.364              0.801
 Vibration    18          0.868              1.222              0.627
 Vibration    19          0.922              1.105              0.512
 Vibration    20          0.956              1.037              0.454

 Optimization completed.
    -- Stationary point found.
 Normal termination of Gaussian 16 at Wed Dec  9 17:01:30 2020.

 ----------------------------------------------------------------------
 # B3LYP/6-311++G(d,p) empiricaldispersion=gd3bj scf=xqc pop=npa geom=c
 heck
 ----------------------------------------------------------------------

 --------------------------------------
 CID_16782220_JID_2158_Energie_neutraal
 --------------------------------------
 Structure from the checkpoint file:  "JID_2158.chk"
 Charge =  0 Multiplicity = 1

 SCF Done:  E(RB3LYP) =  -503.994127757     A.U. after   13 cycles
 Normal termination of Gaussian 16 at Wed Dec  9 17:05:48 2020.

 ----------------------------------------------------------------------
 # B3LYP/6-311++G(d,p) empiricaldispersion=gd3bj scf=xqc pop=npa geom=c
 heck
 ----------------------------------------------------------------------

 ------------------------------------
 CID_16782220_JID_2158_Energie_kation
 ------------------------------------
 Structure from the checkpoint file:  "JID_2158.chk"
 Charge =  1 Multiplicity = 2

 SCF Done:  E(UB3LYP) =  -503.723269264     A.U. after   18 cycles
 Normal termination of Gaussian 16 at Wed Dec  9 17:14:54 2020.
 Gaussian 16:  ES64L-G16RevA.03 25-Dec-2016

 ----------------------------------------------------------------------
 # B3LYP/6-311++G(d,p) empiricaldispersion=gd3bj scf=xqc pop=npa geom=c
 heck
 ----------------------------------------------------------------------

 -----------------------------------
 CID_16782220_JID_2158_Energie_anion
 -----------------------------------
 Structure from the checkpoint file:  "JID_2158.chk"
 Charge = -1 Multiplicity = 2

                         Standard orientation:
 ---------------------------------------------------------------------
 Center     Atomic      Atomic             Coordinates (Angstroms)
 Number     Number       Type             X           Y           Z
 ---------------------------------------------------------------------
      1          6           0        3.202324    1.243391    0.566824
      2          6           0        2.660624    0.141790   -0.352818
      3          6           0        3.796553   -0.452301   -1.196511
      4          6           0        1.951662   -0.977957    0.430592
      5          6           0        0.706539   -0.597795    1.258279
      6          7           0       -0.515336   -0.221860    0.548248
      7          6           0       -1.065983   -1.252735   -0.328069
      8          6           0       -2.571965   -1.499921   -0.136666
      9          6           0       -3.414065   -0.227306    0.093057
     10          7           0       -3.033363    0.979779   -0.637905
     11          6           0       -1.939175    1.740935   -0.045069
     12          6           0       -0.540283    1.104192   -0.056163
     13          1           0        3.921006    0.827853    1.285365
     14          1           0        2.409101    1.735918    1.138536
     15          1           0        3.720318    2.016662   -0.012027
     16          1           0        1.938100    0.595557   -1.042750
     17          1           0        4.551331   -0.925648   -0.555077
     18          1           0        3.421687   -1.215815   -1.888318
     19          1           0        4.300241    0.321159   -1.787995
     20          1           0        1.677133   -1.777460   -0.271017
     21          1           0        2.681666   -1.426668    1.122310
     22          1           0        0.455287   -1.460046    1.890204
     23          1           0        0.949949    0.217574    1.949054
     24          1           0       -0.538154   -2.196236   -0.151337
     25          1           0       -0.871640   -0.993488   -1.384347
     26          1           0       -2.937996   -2.040163   -1.021500
     27          1           0       -2.730798   -2.168342    0.720115
     28          1           0       -4.463134   -0.458635   -0.136592
     29          1           0       -3.378487    0.034197    1.155469
     30          1           0       -2.847619    0.775275   -1.618029
     31          1           0       -2.220277    1.945996    0.995155
     32          1           0       -1.877651    2.710250   -0.559397
     33          1           0        0.137676    1.761284    0.501041
     34          1           0       -0.174231    1.081582   -1.101994
 ---------------------------------------------------------------------

 SCF Done:  E(UB3LYP) =  -503.978127684     A.U. after   27 cycles

 The electronic state is 2-A.
 Alpha  occ. eigenvalues --  -14.19706 -14.19450 -10.08941 -10.08902 -10.08825
 Alpha  occ. eigenvalues --  -10.08690 -10.08674 -10.06816 -10.06147 -10.05695
 Alpha  occ. eigenvalues --  -10.05369 -10.05236  -0.82731  -0.79300  -0.70437
 Alpha  occ. eigenvalues --   -0.67510  -0.63837  -0.58743  -0.58168  -0.57610
 Alpha  occ. eigenvalues --   -0.52905  -0.49179  -0.46482  -0.44450  -0.39923
 Alpha  occ. eigenvalues --   -0.38226  -0.36928  -0.36510  -0.35397  -0.34107
 Alpha  occ. eigenvalues --   -0.32576  -0.31913  -0.31198  -0.30022  -0.28632
 Alpha  occ. eigenvalues --   -0.28137  -0.27820  -0.26327  -0.25841  -0.25494
 Alpha  occ. eigenvalues --   -0.24597  -0.23823  -0.22712  -0.22481  -0.21905
 Alpha  occ. eigenvalues --   -0.21216  -0.12511  -0.10318   0.04598
 Alpha virt. eigenvalues --    0.06745   0.07235   0.07437   0.08536   0.09012
 Alpha virt. eigenvalues --    0.09197   0.09776   0.10122   0.11047   0.11405
 Alpha virt. eigenvalues --    0.11523   0.11880   0.12454   0.13081   0.13812

  Beta  occ. eigenvalues --  -14.19699 -14.19432 -10.08935 -10.08892 -10.08810
  Beta  occ. eigenvalues --  -10.08667 -10.08659 -10.06808 -10.06129 -10.05675
  Beta  occ. eigenvalues --  -10.05336 -10.05204  -0.82707  -0.79268  -0.70408
  Beta  occ. eigenvalues --   -0.67477  -0.63799  -0.58700  -0.58107  -0.57567
  Beta  occ. eigenvalues --   -0.52855  -0.49131  -0.46420  -0.44391  -0.39890
  Beta  occ. eigenvalues --   -0.38190  -0.36891  -0.36476  -0.35366  -0.34065
  Beta  occ. eigenvalues --   -0.32545  -0.31867  -0.31158  -0.29974  -0.28595
  Beta  occ. eigenvalues --   -0.28110  -0.27789  -0.26299  -0.25813  -0.25459
  Beta  occ. eigenvalues --   -0.24566  -0.23787  -0.22681  -0.22435  -0.21869
  Beta  occ. eigenvalues --   -0.21181  -0.12472  -0.10270
  Beta virt. eigenvalues --    0.06725   0.07443   0.07880   0.07930   0.08985
  Beta virt. eigenvalues --    0.09383   0.09699   0.10274   0.10473   0.11363
  Beta virt. eigenvalues --    0.11670   0.11914   0.12217   0.12784   0.13494

 Mulliken charges and spin densities:
               1          2
     1  C    0.995481  -1.640252
     2  C   -1.196417   1.646800
     3  C    0.080318  -0.588425
     4  C    0.455672  -0.723390
     5  C    0.329255  -0.784561
     6  N   -0.004477   0.213342
     7  C   -0.150887  -0.232084
     8  C    0.474447  -0.799583
     9  C   -0.148587  -0.226851
    10  N   -0.248947   0.155801
    11  C    0.866005  -1.600699
    12  C   -0.520172   0.416150
    13  H   -0.145199   0.280372
    14  H   -0.304197   0.425759
    15  H   -0.208668   0.348280
    16  H    0.077183   0.070177
    17  H   -0.079366   0.205530
    18  H   -0.319311   0.454745
    19  H   -0.303454   0.448990
    20  H    0.300614  -0.177170
    21  H   -0.295119   0.448701
    22  H   -0.177874   0.351551
    23  H    0.192981  -0.045936
    24  H   -0.318243   0.454722
    25  H   -0.137064   0.302459
    26  H   -0.282619   0.419014
    27  H    0.023814   0.113104
    28  H   -0.005219   0.183427
    29  H    0.116016   0.014914
    30  H    0.022554   0.198310
    31  H    0.075589   0.080941
    32  H   -0.152694   0.312723
    33  H    0.217992  -0.091154
    34  H   -0.229406   0.364292
 Sum of Mulliken charges =  -1.00000   1.00000

 Dipole moment (field-independent basis, Debye):
    X=             -3.0896    Y=              0.4101    Z=              2.5906  Tot=              4.0528
 Quadrupole moment (field-independent basis, Debye-Ang):
   XX=           -156.0702   YY=           -121.7310   ZZ=           -115.8264
   XY=             -1.3534   XZ=             -2.4978   YZ=              0.3134

 Summary of Natural Population Analysis:

                                       Natural Population
                Natural  -----------------------------------------------
    Atom  No    Charge         Core      Valence    Rydberg      Total
 -----------------------------------------------------------------------
      C    1   -0.28495      0.99965     2.27914    0.00617     3.28495
      C    2   -0.12181      0.99961     2.11219    0.01001     3.12181
      C    3   -0.27921      0.99965     2.27458    0.00498     3.27921
      C    4   -0.19783      0.99960     2.18918    0.00904     3.19783
      C    5   -0.07496      0.99960     2.06334    0.01202     3.07496
      N    6   -0.28979      0.99970     2.77760    0.01249     3.78979
      C    7   -0.08622      0.99961     2.07438    0.01224     3.08622
      C    8   -0.19947      0.99962     2.19099    0.00886     3.19947
      C    9   -0.08784      0.99962     2.07572    0.01250     3.08784
      N   10   -0.34162      0.99976     2.83009    0.01178     3.84162
      C   11   -0.08651      0.99962     2.07466    0.01223     3.08651
      C   12   -0.09048      0.99960     2.07962    0.01126     3.09048
      H   13    0.09586      0.00000     0.40303    0.00111     0.40414
      H   14    0.09714      0.00000     0.40168    0.00118     0.40286
      H   15    0.10009      0.00000     0.39883    0.00109     0.39991
      H   16    0.09451      0.00000     0.40253    0.00296     0.40549
      H   17    0.09495      0.00000     0.40384    0.00122     0.40505
      H   18    0.09958      0.00000     0.39915    0.00128     0.40042
      H   19    0.09842      0.00000     0.40046    0.00112     0.40158
      H   20    0.09849      0.00000     0.39994    0.00157     0.40151
      H   21    0.09602      0.00000     0.40261    0.00137     0.40398
      H   22    0.09370      0.00000     0.40522    0.00108     0.40630
      H   23    0.09328      0.00000     0.40546    0.00125     0.40672
      H   24    0.09879      0.00000     0.39963    0.00159     0.40121
      H   25    0.08421      0.00000     0.41340    0.00238     0.41579
      H   26    0.09354      0.00000     0.40484    0.00162     0.40646
      H   27    0.09471      0.00000     0.40409    0.00121     0.40529
      H   28    0.08980      0.00000     0.40926    0.00094     0.41020
      H   29    0.09117      0.00000     0.40732    0.00151     0.40883
      H   30    0.17155      0.00000     0.32561    0.00284     0.32845
      H   31    0.08790      0.00000     0.41075    0.00136     0.41210
      H   32    0.09160      0.00000     0.40748    0.00092     0.40840
      H   33    0.09711      0.00000     0.40127    0.00162     0.40289
      H   34    0.07828      0.00000     0.41915    0.00258     0.42172
 =======================================================================
   * Total *   -0.00000     11.99564    35.84702    0.15734    48.00000

 Normal termination of Gaussian 16 at Wed Dec  9 17:30:19 2020.
