 Gaussian 16, Revision A.03,

 -----------------------------------------------------------
 # opt freq B3LYP/6-31G(d) empiricaldispersion=gd3bj scf=xqc
 -----------------------------------------------------------

 ------------------------------
 CID_21514499_JID_2143_neutraal
 ------------------------------
 Symbolic Z-matrix:
 Charge =  0 Multiplicity = 1

 SCF Done:  E(RB3LYP) =  -590.723571108     A.U. after   15 cycles
 SCF Done:  E(RB3LYP) =  -590.728258916     A.U. after   13 cycles
 SCF Done:  E(RB3LYP) =  -590.728244087     A.U. after   13 cycles
 SCF Done:  E(RB3LYP) =  -590.728964022     A.U. after   12 cycles
 SCF Done:  E(RB3LYP) =  -590.729317117     A.U. after   11 cycles
 SCF Done:  E(RB3LYP) =  -590.729511709     A.U. after   11 cycles
 SCF Done:  E(RB3LYP) =  -590.729563808     A.U. after   12 cycles
 SCF Done:  E(RB3LYP) =  -590.729567277     A.U. after    9 cycles
 SCF Done:  E(RB3LYP) =  -590.729568555     A.U. after    9 cycles
 SCF Done:  E(RB3LYP) =  -590.729568793     A.U. after    8 cycles
 Optimization completed.
    -- Stationary point found.
 Normal termination of Gaussian 16 at Wed Dec  9 16:48:41 2020.

 --------------------------------------------------------------------
 #N Geom=AllCheck Guess=TCheck SCRF=Check GenChk RB3LYP/6-31G(d) Freq
 --------------------------------------------------------------------

 Structure from the checkpoint file:  "JID_2143.chk"
 ------------------------------
 CID_21514499_JID_2143_neutraal
 ------------------------------
 Charge =  0 Multiplicity = 1

 SCF Done:  E(RB3LYP) =  -590.729568793     A.U. after    1 cycles

  Exact polarizability: 133.931  -2.566 118.340  -2.641   0.862  44.563
 Approx polarizability: 191.675  -2.108 206.100  -7.638  -1.178  69.447

                      1                      2                      3
                      A                      A                      A
 Frequencies --     50.9829                79.4918               130.3302
 Red. masses --      6.1182                 4.3896                 2.4544
 Frc consts  --      0.0094                 0.0163                 0.0246
 IR Inten    --      3.4644                 0.5861                 2.1147

                      4                      5                      6
                      A                      A                      A
 Frequencies --    153.8984               202.0724               219.6640
 Red. masses --      1.2938                 4.6079                 4.2034
 Frc consts  --      0.0181                 0.1109                 0.1195
 IR Inten    --      0.1950                 5.0332                 1.0885

                      7                      8                      9
                      A                      A                      A
 Frequencies --    259.1516               313.7255               346.5848
 Red. masses --      5.0704                 5.8867                 4.4405
 Frc consts  --      0.2006                 0.3414                 0.3143
 IR Inten    --      4.6783                 3.1584                 8.4281

                     10                     11                     12
                      A                      A                      A
 Frequencies --    383.7291               402.0919               417.4076
 Red. masses --      1.4599                 3.0861                 2.8012
 Frc consts  --      0.1267                 0.2940                 0.2876
 IR Inten    --     88.0324                23.6586                 5.0009

                     13                     14                     15
                      A                      A                      A
 Frequencies --    433.3321               491.2165               540.7742
 Red. masses --      1.1931                 3.9682                 5.5407
 Frc consts  --      0.1320                 0.5642                 0.9547
 IR Inten    --     42.7963                18.7149                22.2179

                     16                     17                     18
                      A                      A                      A
 Frequencies --    558.9067               575.3742               601.4751
 Red. masses --      2.8620                 1.7597                 4.2503
 Frc consts  --      0.5267                 0.3432                 0.9060
 IR Inten    --     67.7431               153.9906                15.0389

                     19                     20                     21
                      A                      A                      A
 Frequencies --    640.3648               702.6596               751.5056
 Red. masses --      3.4658                 3.0149                 1.6354
 Frc consts  --      0.8373                 0.8770                 0.5442
 IR Inten    --     46.3923                11.9800                38.0913

                     22                     23                     24
                      A                      A                      A
 Frequencies --    772.5879               795.2632               818.8915
 Red. masses --      6.0738                 9.0072                 1.5381
 Frc consts  --      2.1360                 3.3563                 0.6077
 IR Inten    --      3.1863                38.7722                 7.2314

                     25                     26                     27
                      A                      A                      A
 Frequencies --    833.1774               952.7811               989.5792
 Red. masses --      5.1721                 1.2551                 6.6706
 Frc consts  --      2.1154                 0.6713                 3.8487
 IR Inten    --     18.1350                 0.0203                21.3314

                     28                     29                     30
                      A                      A                      A
 Frequencies --   1035.8336              1095.1382              1138.9206
 Red. masses --      2.7586                 4.3244                 2.4986
 Frc consts  --      1.7439                 3.0558                 1.9095
 IR Inten    --     28.4030               137.8237               140.4853

                     31                     32                     33
                      A                      A                      A
 Frequencies --   1171.5305              1186.6181              1206.5519
 Red. masses --      1.4602                 1.2799                 1.1442
 Frc consts  --      1.1808                 1.0618                 0.9814
 IR Inten    --     50.5629                 5.2722                 3.0841

                     34                     35                     36
                      A                      A                      A
 Frequencies --   1217.2315              1245.2455              1268.0233
 Red. masses --      1.5321                 1.7764                 3.8152
 Frc consts  --      1.3375                 1.6230                 3.6143
 IR Inten    --     61.1500                65.2445               168.8311

                     37                     38                     39
                      A                      A                      A
 Frequencies --   1333.9786              1387.3652              1389.8267
 Red. masses --      2.0690                 3.8207                 3.2365
 Frc consts  --      2.1692                 4.3328                 3.6833
 IR Inten    --    101.7475                80.9674                63.6250

                     40                     41                     42
                      A                      A                      A
 Frequencies --   1488.4284              1510.1024              1520.5039
 Red. masses --      1.1905                 1.0519                 2.9219
 Frc consts  --      1.5540                 1.4133                 3.9801
 IR Inten    --      3.9081                 7.4207               157.9615

                     43                     44                     45
                      A                      A                      A
 Frequencies --   1527.4745              1546.6555              1640.2560
 Red. masses --      1.0591                 2.6499                 5.2294
 Frc consts  --      1.4559                 3.7348                 8.2894
 IR Inten    --      6.6514                17.8029                71.3781

                     46                     47                     48
                      A                      A                      A
 Frequencies --   1666.7666              1688.4502              1815.3261
 Red. masses --      2.8671                 1.5546                11.4431
 Frc consts  --      4.6928                 2.6112                22.2180
 IR Inten    --    151.1842               187.0925               276.4581

                     49                     50                     51
                      A                      A                      A
 Frequencies --   3076.5074              3153.3062              3176.1929
 Red. masses --      1.0288                 1.1074                 1.0873
 Frc consts  --      5.7370                 6.4876                 6.4625
 IR Inten    --     40.2606                19.9712                 7.1081

                     52                     53                     54
                      A                      A                      A
 Frequencies --   3176.5550              3185.0906              3204.8773
 Red. masses --      1.1077                 1.0895                 1.0965
 Frc consts  --      6.5852                 6.5118                 6.6356
 IR Inten    --     16.7117                22.1920                21.2500

                     55                     56                     57
                      A                      A                      A
 Frequencies --   3572.4040              3681.6232              3746.4380
 Red. masses --      1.0466                 1.1002                 1.0658
 Frc consts  --      7.8698                 8.7861                 8.8141
 IR Inten    --     56.6238                59.0461                40.4225

 - Thermochemistry -
 -------------------
 Temperature   298.150 Kelvin.  Pressure   1.00000 Atm.
 Atom     1 has atomic number  6 and mass  12.00000

 Molecular mass:   167.05824 amu.
 Principal axes and moments of inertia in atomic units:
                           1         2         3
     Eigenvalues --  1186.292162256.440653339.19038
           X            0.99986  -0.01633   0.00291
           Y            0.01632   0.99986   0.00343
           Z           -0.00297  -0.00338   0.99999
 This molecule is an asymmetric top.
 Rotational symmetry number  1.
 Warning -- assumption of classical behavior for rotation
           may cause significant error
 Rotational temperatures (Kelvin)      0.07301     0.03839     0.02594
 Rotational constants (GHZ):           1.52133     0.79982     0.54047
 Zero-point vibrational energy     433468.3 (Joules/Mol)
                                  103.60141 (Kcal/Mol)
 Warning -- explicit consideration of  18 degrees of freedom as
           vibrations may cause significant error
 Vibrational temperatures:     73.35   114.37   187.52   221.43   290.74
          (Kelvin)            316.05   372.86   451.38   498.66   552.10
                              578.52   600.56   623.47   706.75   778.05
                              804.14   827.84   865.39   921.34  1010.97
                             1081.25  1111.58  1144.21  1178.20  1198.76
                             1370.84  1423.78  1490.33  1575.66  1638.65
                             1685.57  1707.28  1735.96  1751.32  1791.63
                             1824.40  1919.30  1996.11  1999.65  2141.52
                             2172.70  2187.67  2197.70  2225.29  2359.96
                             2398.11  2429.30  2611.85  4426.41  4536.90
                             4569.83  4570.35  4582.63  4611.10  5139.89
                             5297.03  5390.29

 Zero-point correction=                           0.165099 (Hartree/Particle)
 Thermal correction to Energy=                    0.176298
 Thermal correction to Enthalpy=                  0.177243
 Thermal correction to Gibbs Free Energy=         0.128159
 Sum of electronic and zero-point Energies=           -590.564469
 Sum of electronic and thermal Energies=              -590.553270
 Sum of electronic and thermal Enthalpies=            -590.552326
 Sum of electronic and thermal Free Energies=         -590.601410

                     E (Thermal)             CV                S
                      KCal/Mol        Cal/Mol-Kelvin    Cal/Mol-Kelvin
 Total                  110.629             42.611            103.306
 Electronic               0.000              0.000              0.000
 Translational            0.889              2.981             41.248
 Rotational               0.889              2.981             30.570
 Vibrational            108.851             36.649             31.488
 Vibration     1          0.595              1.977              4.779
 Vibration     2          0.600              1.963              3.903
 Vibration     3          0.612              1.923              2.941
 Vibration     4          0.619              1.898              2.623
 Vibration     5          0.639              1.837              2.114
 Vibration     6          0.647              1.811              1.962
 Vibration     7          0.668              1.747              1.667
 Vibration     8          0.702              1.647              1.343
 Vibration     9          0.725              1.582              1.182
 Vibration    10          0.753              1.505              1.024
 Vibration    11          0.768              1.466              0.955
 Vibration    12          0.780              1.432              0.901
 Vibration    13          0.794              1.398              0.848
 Vibration    14          0.847              1.270              0.680
 Vibration    15          0.896              1.160              0.564
 Vibration    16          0.914              1.120              0.526
 Vibration    17          0.932              1.085              0.494
 Vibration    18          0.960              1.029              0.447

 Optimization completed.
    -- Stationary point found.
 Normal termination of Gaussian 16 at Wed Dec  9 16:52:54 2020.

 ----------------------------------------------------------------------
 # B3LYP/6-311++G(d,p) empiricaldispersion=gd3bj scf=xqc pop=npa geom=c
 heck
 ----------------------------------------------------------------------

 --------------------------------------
 CID_21514499_JID_2143_Energie_neutraal
 --------------------------------------
 Structure from the checkpoint file:  "JID_2143.chk"
 Charge =  0 Multiplicity = 1

 SCF Done:  E(RB3LYP) =  -590.912582523     A.U. after   15 cycles
 Normal termination of Gaussian 16 at Wed Dec  9 16:54:35 2020.

 ----------------------------------------------------------------------
 # B3LYP/6-311++G(d,p) empiricaldispersion=gd3bj scf=xqc pop=npa geom=c
 heck
 ----------------------------------------------------------------------

 ------------------------------------
 CID_21514499_JID_2143_Energie_kation
 ------------------------------------
 Structure from the checkpoint file:  "JID_2143.chk"
 Charge =  1 Multiplicity = 2

 SCF Done:  E(UB3LYP) =  -590.626416643     A.U. after   23 cycles
 Normal termination of Gaussian 16 at Wed Dec  9 16:58:23 2020.
 Gaussian 16:  ES64L-G16RevA.03 25-Dec-2016

 ----------------------------------------------------------------------
 # B3LYP/6-311++G(d,p) empiricaldispersion=gd3bj scf=xqc pop=npa geom=c
 heck
 ----------------------------------------------------------------------

 -----------------------------------
 CID_21514499_JID_2143_Energie_anion
 -----------------------------------
 Structure from the checkpoint file:  "JID_2143.chk"
 Charge = -1 Multiplicity = 2

                         Standard orientation:
 ---------------------------------------------------------------------
 Center     Atomic      Atomic             Coordinates (Angstroms)
 Number     Number       Type             X           Y           Z
 ---------------------------------------------------------------------
      1          6           0       -3.487990    0.219282   -0.279377
      2          8           0       -2.086946    0.506491   -0.399684
      3          6           0       -1.259123   -0.439101    0.157175
      4          8           0       -1.709455   -1.441416    0.664941
      5          6           0        0.175401   -0.078265    0.040618
      6          6           0        0.645766    1.264790    0.085723
      7          6           0        2.031188    1.513775    0.034953
      8          6           0        2.933078    0.467959   -0.069942
      9          6           0        2.493960   -0.852815   -0.129245
     10          6           0        1.125924   -1.121799   -0.068305
     11          8           0        0.669029   -2.399419   -0.152639
     12          7           0       -0.208907    2.337032    0.254406
     13          1           0       -3.999962    1.058830   -0.751356
     14          1           0       -3.775779    0.131684    0.771503
     15          1           0       -3.730275   -0.715430   -0.790556
     16          1           0        2.382324    2.540702    0.084341
     17          1           0        3.997694    0.680460   -0.113233
     18          1           0        3.201751   -1.672642   -0.223881
     19          1           0        1.434694   -2.985670   -0.256117
     20          1           0       -1.159809    2.194530   -0.056721
     21          1           0        0.181447    3.240107    0.024634
 ---------------------------------------------------------------------

 SCF Done:  E(UB3LYP) =  -590.899669389     A.U. after   33 cycles
 SCF Done:  E(UB3LYP) =  -590.900841495     a.u. after    6 cycles

 The electronic state is 2-A.
 Alpha  occ. eigenvalues --  -19.05555 -19.03984 -18.98790 -14.20440 -10.18069
 Alpha  occ. eigenvalues --  -10.12835 -10.11999 -10.11248 -10.06685 -10.06428
 Alpha  occ. eigenvalues --  -10.05140 -10.05076  -0.99175  -0.95474  -0.90143
 Alpha  occ. eigenvalues --   -0.81378  -0.72667  -0.66013  -0.61733  -0.61102
 Alpha  occ. eigenvalues --   -0.52141  -0.51446  -0.46569  -0.43808  -0.41823
 Alpha  occ. eigenvalues --   -0.41141  -0.37362  -0.36952  -0.35376  -0.34934
 Alpha  occ. eigenvalues --   -0.33678  -0.31729  -0.30707  -0.28470  -0.28204
 Alpha  occ. eigenvalues --   -0.26494  -0.25773  -0.25245  -0.24031  -0.19837
 Alpha  occ. eigenvalues --   -0.19357  -0.16237  -0.12738  -0.09710   0.04585
 Alpha virt. eigenvalues --    0.06355   0.06779   0.07161   0.08568   0.09851
 Alpha virt. eigenvalues --    0.10823   0.11450   0.11693   0.12109   0.13298
 Alpha virt. eigenvalues --    0.14465   0.15288   0.15593   0.16393   0.17015

  Beta  occ. eigenvalues --  -19.05532 -19.03940 -18.98708 -14.20405 -10.17995
  Beta  occ. eigenvalues --  -10.12777 -10.11971 -10.11210 -10.06663 -10.06314
  Beta  occ. eigenvalues --  -10.05138 -10.05074  -0.99082  -0.95377  -0.90019
  Beta  occ. eigenvalues --   -0.81292  -0.72551  -0.65865  -0.61633  -0.61018
  Beta  occ. eigenvalues --   -0.51946  -0.51357  -0.46474  -0.43715  -0.41748
  Beta  occ. eigenvalues --   -0.41061  -0.37227  -0.36873  -0.35268  -0.34857
  Beta  occ. eigenvalues --   -0.33613  -0.31605  -0.30529  -0.28406  -0.27943
  Beta  occ. eigenvalues --   -0.26409  -0.25694  -0.25074  -0.23958  -0.19585
  Beta  occ. eigenvalues --   -0.19081  -0.16160  -0.12425  -0.09577
  Beta virt. eigenvalues --    0.07059   0.07523   0.07714   0.08265   0.09176
  Beta virt. eigenvalues --    0.10405   0.11146   0.11594   0.12042   0.12519
  Beta virt. eigenvalues --    0.13702   0.14802   0.15315   0.15677   0.16629

 Mulliken charges and spin densities:
               1          2
     1  C    0.389334  -0.650006
     2  O   -0.181188   0.036156
     3  C    1.215964  -1.050170
     4  O   -0.266149   0.027574
     5  C    2.518537  -1.447930
     6  C   -1.726273   0.806433
     7  C   -1.583927   1.008057
     8  C    1.728769  -1.667317
     9  C   -1.046180   0.667620
    10  C    0.223163  -0.225776
    11  O   -0.232198   0.046217
    12  N   -0.267908  -0.007991
    13  H   -0.358405   0.497087
    14  H   -0.004590   0.185750
    15  H    0.010964   0.158945
    16  H   -0.430020   0.552221
    17  H    0.068604   0.077323
    18  H   -0.827430   0.942983
    19  H   -0.132922   0.403270
    20  H    0.219080   0.074407
    21  H   -0.317224   0.565149
 Sum of Mulliken charges =  -1.00000   1.00000

 Dipole moment (field-independent basis, Debye):
    X=             -1.2728    Y=              0.0906    Z=             -0.2884  Tot=              1.3082
 Quadrupole moment (field-independent basis, Debye-Ang):
   XX=           -117.4671   YY=           -118.8108   ZZ=            -90.8658
   XY=              6.0279   XZ=              0.4266   YZ=              1.5887

 Summary of Natural Population Analysis:

                                       Natural Population
                Natural  -----------------------------------------------
    Atom  No    Charge         Core      Valence    Rydberg      Total
 -----------------------------------------------------------------------
      C    1   -0.10510      0.99960     2.09590    0.00960     3.10510
      O    2   -0.29478      0.99987     3.28588    0.00903     4.29478
      C    3    0.41265      0.99964     1.56391    0.02380     2.58735
      O    4   -0.29070      0.99987     3.28558    0.00524     4.29070
      C    5   -0.12922      0.99940     2.11990    0.00993     3.12922
      C    6    0.12050      0.99951     1.86815    0.01184     2.87950
      C    7   -0.14883      0.99953     2.13949    0.00981     3.14883
      C    8   -0.05602      0.99957     2.04679    0.00966     3.05602
      C    9   -0.17196      0.99952     2.16180    0.01064     3.17196
      C   10    0.19861      0.99939     1.78813    0.01387     2.80139
      O   11   -0.32725      0.99987     3.32071    0.00666     4.32725
      N   12   -0.39334      0.99970     2.88392    0.00972     3.89334
      H   13    0.08992      0.00000     0.40863    0.00145     0.41008
      H   14    0.09100      0.00000     0.40785    0.00115     0.40900
      H   15    0.09042      0.00000     0.40859    0.00099     0.40958
      H   16    0.09754      0.00000     0.40087    0.00159     0.40246
      H   17    0.09667      0.00000     0.40244    0.00089     0.40333
      H   18    0.09997      0.00000     0.39754    0.00249     0.40003
      H   19    0.23388      0.00000     0.26160    0.00452     0.26612
      H   20    0.20025      0.00000     0.29755    0.00220     0.29975
      H   21    0.18580      0.00000     0.31120    0.00300     0.31420
 =======================================================================
   * Total *   -0.00000     11.99547    31.85644    0.14809    44.00000

 Normal termination of Gaussian 16 at Wed Dec  9 17:25:18 2020.
