 Gaussian 16, Revision A.03,

 -----------------------------------------------------------
 # opt freq B3LYP/6-31G(d) empiricaldispersion=gd3bj scf=xqc
 -----------------------------------------------------------

 ------------------------------
 CID_79358470_JID_6023_neutraal
 ------------------------------
 Symbolic Z-matrix:
 Charge =  0 Multiplicity = 1

 SCF Done:  E(RB3LYP) =  -1016.36967348     A.U. after   15 cycles
 SCF Done:  E(RB3LYP) =  -1016.37422146     A.U. after   12 cycles
 SCF Done:  E(RB3LYP) =  -1016.37516213     A.U. after   12 cycles
 SCF Done:  E(RB3LYP) =  -1016.37565300     A.U. after   11 cycles
 SCF Done:  E(RB3LYP) =  -1016.37589483     A.U. after   11 cycles
 SCF Done:  E(RB3LYP) =  -1016.37604082     A.U. after   10 cycles
 SCF Done:  E(RB3LYP) =  -1016.37612161     A.U. after   10 cycles
 SCF Done:  E(RB3LYP) =  -1016.37613543     A.U. after   10 cycles
 SCF Done:  E(RB3LYP) =  -1016.37614293     A.U. after    9 cycles
 SCF Done:  E(RB3LYP) =  -1016.37614627     A.U. after    8 cycles
 SCF Done:  E(RB3LYP) =  -1016.37614808     A.U. after    8 cycles
 SCF Done:  E(RB3LYP) =  -1016.37614962     A.U. after    9 cycles
 SCF Done:  E(RB3LYP) =  -1016.37615126     A.U. after    9 cycles
 SCF Done:  E(RB3LYP) =  -1016.37615186     A.U. after    9 cycles
 SCF Done:  E(RB3LYP) =  -1016.37615199     A.U. after    7 cycles
 Optimization completed.
    -- Stationary point found.
 Normal termination of Gaussian 16 at Thu Dec 10 21:12:06 2020.

 --------------------------------------------------------------------
 #N Geom=AllCheck Guess=TCheck SCRF=Check GenChk RB3LYP/6-31G(d) Freq
 --------------------------------------------------------------------

 Structure from the checkpoint file:  "JID_6023.chk"
 ------------------------------
 CID_79358470_JID_6023_neutraal
 ------------------------------
 Charge =  0 Multiplicity = 1

 SCF Done:  E(RB3LYP) =  -1016.37615199     A.U. after    1 cycles

  Exact polarizability: 216.988   6.163 161.329   2.370  -6.388 121.121
 Approx polarizability: 270.566   5.288 261.170  -0.140 -22.845 186.937

                      1                      2                      3
                      A                      A                      A
 Frequencies --     19.3741                23.4856                44.6360
 Red. masses --      3.9773                 3.7204                 3.5164
 Frc consts  --      0.0009                 0.0012                 0.0041
 IR Inten    --      0.3634                 0.0270                 0.1290

                      4                      5                      6
                      A                      A                      A
 Frequencies --     67.4794                88.7588               123.1589
 Red. masses --      2.8391                 3.6654                 2.8113
 Frc consts  --      0.0076                 0.0170                 0.0251
 IR Inten    --      0.2202                 3.7517                 0.5439

                      7                      8                      9
                      A                      A                      A
 Frequencies --    142.4186               149.6666               160.9223
 Red. masses --      2.7676                 1.3205                 1.3082
 Frc consts  --      0.0331                 0.0174                 0.0200
 IR Inten    --      0.7395                 0.0510                 0.4123

                     10                     11                     12
                      A                      A                      A
 Frequencies --    173.2755               184.0741               198.4208
 Red. masses --      1.4768                 2.2668                 1.3224
 Frc consts  --      0.0261                 0.0453                 0.0307
 IR Inten    --      0.1184                 0.0160                 0.2964

                     13                     14                     15
                      A                      A                      A
 Frequencies --    208.0461               243.8439               255.8966
 Red. masses --      1.2752                 1.6623                 1.9052
 Frc consts  --      0.0325                 0.0582                 0.0735
 IR Inten    --      0.5938                 0.0577                 2.3119

                     16                     17                     18
                      A                      A                      A
 Frequencies --    266.6007               313.2321               325.0307
 Red. masses --      3.5205                 2.3934                 2.3995
 Frc consts  --      0.1474                 0.1384                 0.1494
 IR Inten    --      1.1751                 5.0508                 2.1172

                     19                     20                     21
                      A                      A                      A
 Frequencies --    338.8999               358.4390               384.0299
 Red. masses --      2.0330                 3.1951                 1.6076
 Frc consts  --      0.1376                 0.2419                 0.1397
 IR Inten    --      2.8813                 9.3325                66.4380

                     22                     23                     24
                      A                      A                      A
 Frequencies --    396.6448               412.1985               436.0911
 Red. masses --      2.2537                 2.2513                 2.9539
 Frc consts  --      0.2089                 0.2254                 0.3310
 IR Inten    --      6.9124                 7.2222                 2.3358

                     25                     26                     27
                      A                      A                      A
 Frequencies --    455.4998               538.2828               541.8093
 Red. masses --      2.5980                 2.7587                 3.8167
 Frc consts  --      0.3176                 0.4709                 0.6601
 IR Inten    --     17.5409                 3.5497                 0.9010

                     28                     29                     30
                      A                      A                      A
 Frequencies --    549.9833               595.2728               656.4411
 Red. masses --      4.5521                 3.8789                 4.3009
 Frc consts  --      0.8113                 0.8098                 1.0919
 IR Inten    --      3.3689                41.1747                 6.0072

                     31                     32                     33
                      A                      A                      A
 Frequencies --    667.0159               680.4743               688.6150
 Red. masses --      3.2066                 3.8755                 1.4959
 Frc consts  --      0.8405                 1.0573                 0.4179
 IR Inten    --      1.0622                 9.5444                13.5448

                     34                     35                     36
                      A                      A                      A
 Frequencies --    715.5346               721.8003               804.6174
 Red. masses --      4.4347                 3.2727                 1.2954
 Frc consts  --      1.3378                 1.0046                 0.4941
 IR Inten    --     16.0647                 2.1202                 0.6680

                     37                     38                     39
                      A                      A                      A
 Frequencies --    830.1966               844.5228               945.4925
 Red. masses --      3.0161                 3.2552                 3.3103
 Frc consts  --      1.2248                 1.3679                 1.7436
 IR Inten    --      2.8610                 6.4938                 7.2386

                     40                     41                     42
                      A                      A                      A
 Frequencies --    962.9278               973.1612               983.4368
 Red. masses --      1.8349                 1.4805                 1.4006
 Frc consts  --      1.0024                 0.8261                 0.7981
 IR Inten    --      8.7885                 1.7251                 0.8982

                     43                     44                     45
                      A                      A                      A
 Frequencies --    989.2137              1009.8981              1016.9609
 Red. masses --      1.3661                 1.6024                 2.0454
 Frc consts  --      0.7876                 0.9629                 1.2463
 IR Inten    --      3.7148                 3.3780                12.7824

                     46                     47                     48
                      A                      A                      A
 Frequencies --   1023.6907              1061.5328              1078.6653
 Red. masses --      1.6177                 1.5661                 1.3588
 Frc consts  --      0.9988                 1.0398                 0.9315
 IR Inten    --      6.1690                 0.9634                 1.6232

                     49                     50                     51
                      A                      A                      A
 Frequencies --   1088.8395              1103.8629              1135.2796
 Red. masses --      1.7964                 1.5272                 2.1062
 Frc consts  --      1.2548                 1.0964                 1.5994
 IR Inten    --     33.6263                 0.0806                 9.7754

                     52                     53                     54
                      A                      A                      A
 Frequencies --   1140.8355              1157.9693              1169.1220
 Red. masses --      2.9545                 1.8500                 1.4428
 Frc consts  --      2.2656                 1.4615                 1.1619
 IR Inten    --     11.1484                10.3403                12.8003

                     55                     56                     57
                      A                      A                      A
 Frequencies --   1181.6156              1213.8936              1246.9053
 Red. masses --      2.2675                 2.5965                 2.6572
 Frc consts  --      1.8653                 2.2543                 2.4341
 IR Inten    --     26.6782                 5.3905                 1.9182

                     58                     59                     60
                      A                      A                      A
 Frequencies --   1281.1178              1292.4712              1310.4739
 Red. masses --      1.3256                 1.3399                 2.9085
 Frc consts  --      1.2818                 1.3188                 2.9429
 IR Inten    --     34.3980                 3.6535                 2.3060

                     61                     62                     63
                      A                      A                      A
 Frequencies --   1323.1782              1350.1427              1363.6108
 Red. masses --      5.7529                 1.3753                 1.7441
 Frc consts  --      5.9344                 1.4771                 1.9107
 IR Inten    --     70.8402                39.4600                52.8891

                     64                     65                     66
                      A                      A                      A
 Frequencies --   1376.6829              1384.2859              1431.9322
 Red. masses --      1.7620                 1.9405                 1.2380
 Frc consts  --      1.9676                 2.1909                 1.4956
 IR Inten    --      5.5031                61.6469                 4.2840

                     67                     68                     69
                      A                      A                      A
 Frequencies --   1435.8392              1443.8538              1447.6529
 Red. masses --      1.3374                 1.2586                 1.2331
 Frc consts  --      1.6245                 1.5459                 1.5226
 IR Inten    --      0.0489                 5.0824                 0.6950

                     70                     71                     72
                      A                      A                      A
 Frequencies --   1453.5573              1472.0189              1482.4158
 Red. masses --      1.5454                 1.3260                 1.8721
 Frc consts  --      1.9238                 1.6928                 2.4239
 IR Inten    --      4.4500                 2.8622                 5.3856

                     73                     74                     75
                      A                      A                      A
 Frequencies --   1507.2709              1508.5967              1514.0945
 Red. masses --      1.0458                 1.0809                 1.0521
 Frc consts  --      1.3998                 1.4494                 1.4211
 IR Inten    --      0.7110                 2.3714                 0.1929

                     76                     77                     78
                      A                      A                      A
 Frequencies --   1522.1163              1524.3428              1527.6131
 Red. masses --      1.0482                 1.0441                 1.0542
 Frc consts  --      1.4308                 1.4294                 1.4495
 IR Inten    --      7.8359                 6.3594                 1.9722

                     79                     80                     81
                      A                      A                      A
 Frequencies --   1528.1723              1532.9881              1538.9149
 Red. masses --      1.0492                 1.0520                 1.0702
 Frc consts  --      1.4437                 1.4566                 1.4933
 IR Inten    --      7.3951                 6.9734                 5.9382

                     82                     83                     84
                      A                      A                      A
 Frequencies --   1545.1833              1551.8610              1561.2599
 Red. masses --      1.0738                 1.0951                 1.1361
 Frc consts  --      1.5105                 1.5539                 1.6316
 IR Inten    --     25.9678                14.6162                18.8637

                     85                     86                     87
                      A                      A                      A
 Frequencies --   1594.8712              1628.7574              2993.1459
 Red. masses --      6.5167                 6.4257                 1.0737
 Frc consts  --      9.7663                10.0435                 5.6677
 IR Inten    --     20.6647               551.1849                35.2088

                     88                     89                     90
                      A                      A                      A
 Frequencies --   3038.5955              3041.5785              3042.0376
 Red. masses --      1.0383                 1.0633                 1.0407
 Frc consts  --      5.6483                 5.7957                 5.6742
 IR Inten    --     20.1647                31.7445                36.9492

                     91                     92                     93
                      A                      A                      A
 Frequencies --   3045.8371              3051.3519              3053.2791
 Red. masses --      1.0404                 1.0424                 1.0354
 Frc consts  --      5.6867                 5.7181                 5.6870
 IR Inten    --     58.3784                29.6848                37.2745

                     94                     95                     96
                      A                      A                      A
 Frequencies --   3078.2014              3086.3871              3091.9506
 Red. masses --      1.0871                 1.0993                 1.1018
 Frc consts  --      6.0688                 6.1695                 6.2063
 IR Inten    --     13.4345                16.5731                14.5325

                     97                     98                     99
                      A                      A                      A
 Frequencies --   3093.6651              3097.6184              3104.7073
 Red. masses --      1.1021                 1.1013                 1.1005
 Frc consts  --      6.2145                 6.2263                 6.2503
 IR Inten    --      5.0961                53.2280                45.3822

                    100                    101                    102
                      A                      A                      A
 Frequencies --   3117.1904              3119.3854              3128.3489
 Red. masses --      1.0876                 1.1032                 1.0995
 Frc consts  --      6.2266                 6.3246                 6.3396
 IR Inten    --     14.3232                45.4907                20.8903

                    103                    104                    105
                      A                      A                      A
 Frequencies --   3137.7837              3145.1941              3146.4067
 Red. masses --      1.1023                 1.0973                 1.0953
 Frc consts  --      6.3943                 6.3952                 6.3885
 IR Inten    --     30.8174                21.7787                40.6703

                    106                    107                    108
                      A                      A                      A
 Frequencies --   3162.4593              3278.3944              3604.1719
 Red. masses --      1.0932                 1.0945                 1.0759
 Frc consts  --      6.4418                 6.9311                 8.2347
 IR Inten    --     39.3334                 1.6403                32.9505

 - Thermochemistry -
 -------------------
 Temperature   298.150 Kelvin.  Pressure   1.00000 Atm.
 Atom     1 has atomic number  6 and mass  12.00000

 Molecular mass:   238.15037 amu.
 Principal axes and moments of inertia in atomic units:
                           1         2         3
     Eigenvalues --  1733.686499184.21025**********
           X            0.99995   0.00974   0.00164
           Y           -0.00975   0.99993   0.00729
           Z           -0.00157  -0.00731   0.99997
 This molecule is an asymmetric top.
 Rotational symmetry number  1.
 Warning -- assumption of classical behavior for rotation
           may cause significant error
 Rotational temperatures (Kelvin)      0.04996     0.00943     0.00860
 Rotational constants (GHZ):           1.04098     0.19650     0.17917
 Zero-point vibrational energy     874356.3 (Joules/Mol)
                                  208.97617 (Kcal/Mol)
 Warning -- explicit consideration of  29 degrees of freedom as
           vibrations may cause significant error
 Vibrational temperatures:     27.87    33.79    64.22    97.09   127.70
          (Kelvin)            177.20   204.91   215.34   231.53   249.30
                              264.84   285.48   299.33   350.84   368.18
                              383.58   450.67   467.65   487.60   515.71
                              552.53   570.68   593.06   627.44   655.36
                              774.47   779.54   791.30   856.46   944.47
                              959.69   979.05   990.76  1029.49  1038.51
                             1157.66  1194.47  1215.08  1360.35  1385.44
                             1400.16  1414.95  1423.26  1453.02  1463.18
                             1472.86  1527.31  1551.96  1566.60  1588.21
                             1633.41  1641.41  1666.06  1682.11  1700.08
                             1746.52  1794.02  1843.24  1859.58  1885.48
                             1903.76  1942.55  1961.93  1980.74  1991.68
                             2060.23  2065.85  2077.38  2082.85  2091.34
                             2117.91  2132.87  2168.63  2170.53  2178.44
                             2189.99  2193.19  2197.89  2198.70  2205.63
                             2214.16  2223.17  2232.78  2246.30  2294.66
                             2343.42  4306.47  4371.86  4376.15  4376.81
                             4382.28  4390.21  4392.99  4428.85  4440.62
                             4448.63  4451.09  4456.78  4466.98  4484.94
                             4488.10  4501.00  4514.57  4525.23  4526.98
                             4550.07  4716.88  5185.60

 Zero-point correction=                           0.333025 (Hartree/Particle)
 Thermal correction to Energy=                    0.351786
 Thermal correction to Enthalpy=                  0.352730
 Thermal correction to Gibbs Free Energy=         0.284944
 Sum of electronic and zero-point Energies=          -1016.043127
 Sum of electronic and thermal Energies=             -1016.024366
 Sum of electronic and thermal Enthalpies=           -1016.023422
 Sum of electronic and thermal Free Energies=        -1016.091208

                     E (Thermal)             CV                S
                      KCal/Mol        Cal/Mol-Kelvin    Cal/Mol-Kelvin
 Total                  220.749             69.631            142.668
 Electronic               0.000              0.000              0.000
 Translational            0.889              2.981             42.305
 Rotational               0.889              2.981             33.439
 Vibrational            218.971             63.669             66.924
 Vibration     1          0.593              1.986              6.697
 Vibration     2          0.593              1.985              6.315
 Vibration     3          0.595              1.980              5.042
 Vibration     4          0.598              1.970              4.226
 Vibration     5          0.602              1.957              3.687
 Vibration     6          0.610              1.930              3.050
 Vibration     7          0.616              1.911              2.771
 Vibration     8          0.618              1.903              2.676
 Vibration     9          0.622              1.890              2.539
 Vibration    10          0.627              1.875              2.400
 Vibration    11          0.631              1.862              2.287
 Vibration    12          0.637              1.842              2.148
 Vibration    13          0.641              1.828              2.061
 Vibration    14          0.659              1.773              1.775
 Vibration    15          0.666              1.753              1.690
 Vibration    16          0.672              1.734              1.618
 Vibration    17          0.701              1.648              1.345
 Vibration    18          0.709              1.625              1.285
 Vibration    19          0.719              1.598              1.217
 Vibration    20          0.733              1.558              1.129
 Vibration    21          0.753              1.504              1.023
 Vibration    22          0.763              1.477              0.975
 Vibration    23          0.776              1.444              0.919
 Vibration    24          0.797              1.392              0.839
 Vibration    25          0.814              1.349              0.779
 Vibration    26          0.893              1.165              0.569
 Vibration    27          0.897              1.158              0.561
 Vibration    28          0.905              1.140              0.544
 Vibration    29          0.953              1.042              0.458

                           ! Non-Optimized Parameters !
 Normal termination of Gaussian 16 at Thu Dec 10 21:23:53 2020.

 ----------------------------------------------------------------------
 # B3LYP/6-311++G(d,p) empiricaldispersion=gd3bj scf=xqc pop=npa geom=c
 heck
 ----------------------------------------------------------------------

 --------------------------------------
 CID_79358470_JID_6023_Energie_neutraal
 --------------------------------------
 Structure from the checkpoint file:  "JID_6023.chk"
 Charge =  0 Multiplicity = 1

 SCF Done:  E(RB3LYP) =  -1016.57174722     A.U. after   16 cycles
 Normal termination of Gaussian 16 at Thu Dec 10 21:31:10 2020.

 ----------------------------------------------------------------------
 # B3LYP/6-311++G(d,p) empiricaldispersion=gd3bj scf=xqc pop=npa geom=c
 heck
 ----------------------------------------------------------------------

 ------------------------------------
 CID_79358470_JID_6023_Energie_kation
 ------------------------------------
 Structure from the checkpoint file:  "JID_6023.chk"
 Charge =  1 Multiplicity = 2

 SCF Done:  E(UB3LYP) =  -1016.30215305     A.U. after   23 cycles
 Normal termination of Gaussian 16 at Thu Dec 10 21:45:26 2020.
 Gaussian 16:  ES64L-G16RevA.03 25-Dec-2016

 ----------------------------------------------------------------------
 # B3LYP/6-311++G(d,p) empiricaldispersion=gd3bj scf=xqc pop=npa geom=c
 heck
 ----------------------------------------------------------------------

 -----------------------------------
 CID_79358470_JID_6023_Energie_anion
 -----------------------------------
 Structure from the checkpoint file:  "JID_6023.chk"
 Charge = -1 Multiplicity = 2

                         Standard orientation:
 ---------------------------------------------------------------------
 Center     Atomic      Atomic             Coordinates (Angstroms)
 Number     Number       Type             X           Y           Z
 ---------------------------------------------------------------------
      1          6           0        5.085306    1.882471    0.484077
      2          6           0        4.966902    0.665598   -0.445319
      3          6           0        3.671378   -0.070899   -0.257268
      4          6           0        3.543520   -1.356387    0.174767
      5         16           0        1.851249   -1.806812    0.268216
      6          6           0        1.455866   -0.168833   -0.290078
      7          7           0        2.486651    0.597369   -0.522519
      8          7           0        0.158833    0.229176   -0.420080
      9          6           0       -0.954655   -0.710953   -0.462760
     10          6           0       -2.243265    0.027861   -0.729455
     11          6           0       -3.581036   -0.359503   -0.116881
     12          6           0       -2.894910    0.938136    0.302698
     13          6           0       -2.281705    1.060260    1.689921
     14          6           0       -3.443260    2.273608   -0.176360
     15          6           0       -4.801651   -0.312325   -1.024360
     16          6           0       -3.678185   -1.521436    0.860437
     17          1           0        4.242553    2.561866    0.325354
     18          1           0        6.015666    2.430185    0.297006
     19          1           0        5.074467    1.571399    1.534566
     20          1           0        5.033528    1.001454   -1.488754
     21          1           0        5.802343   -0.023672   -0.277504
     22          1           0        4.318112   -2.063209    0.434388
     23          1           0        0.046506    1.104437   -0.915312
     24          1           0       -0.793610   -1.475707   -1.239896
     25          1           0       -0.989461   -1.243302    0.493505
     26          1           0       -2.308945    0.387790   -1.757413
     27          1           0       -1.528885    1.856441    1.699270
     28          1           0       -3.052372    1.319039    2.426816
     29          1           0       -1.786454    0.150897    2.033589
     30          1           0       -3.803090    2.241847   -1.207610
     31          1           0       -4.273707    2.608397    0.458189
     32          1           0       -2.661137    3.041528   -0.125173
     33          1           0       -4.942318   -1.283085   -1.515878
     34          1           0       -5.710902   -0.099432   -0.448108
     35          1           0       -4.719283    0.441738   -1.810626
     36          1           0       -2.828096   -1.602021    1.539456
     37          1           0       -4.579266   -1.418154    1.477583
     38          1           0       -3.759854   -2.470850    0.316771
 ---------------------------------------------------------------------

 SCF Done:  E(UB3LYP) =  -1016.55920679     A.U. after   33 cycles
 SCF Done:  E(UB3LYP) =  -1016.55920679     a.u. after    1 cycles

 The electronic state is 2-A.
 Alpha  occ. eigenvalues --  -88.78423 -14.24795 -14.20635 -10.17647 -10.12223
 Alpha  occ. eigenvalues --  -10.11473 -10.09680 -10.09450 -10.09268 -10.08883
 Alpha  occ. eigenvalues --  -10.08466 -10.07559 -10.06867 -10.06688 -10.06674
 Alpha  occ. eigenvalues --  -10.06485  -7.87044  -5.83343  -5.82999  -5.82590
 Alpha  occ. eigenvalues --   -0.89225  -0.83127  -0.78573  -0.70182  -0.70035
 Alpha  occ. eigenvalues --   -0.66132  -0.65142  -0.61454  -0.61034  -0.58556
 Alpha  occ. eigenvalues --   -0.58218  -0.54024  -0.49467  -0.48954  -0.45205
 Alpha  occ. eigenvalues --   -0.42257  -0.41444  -0.39706  -0.38903  -0.37319
 Alpha  occ. eigenvalues --   -0.36757  -0.35175  -0.34330  -0.34064  -0.33089
 Alpha  occ. eigenvalues --   -0.32356  -0.31295  -0.30413  -0.30276  -0.29872
 Alpha  occ. eigenvalues --   -0.29453  -0.29028  -0.28783  -0.28216  -0.27721
 Alpha  occ. eigenvalues --   -0.26522  -0.25724  -0.24780  -0.23579  -0.21492
 Alpha  occ. eigenvalues --   -0.18829  -0.18248  -0.17864  -0.16822  -0.11608
 Alpha  occ. eigenvalues --    0.04028
 Alpha virt. eigenvalues --    0.05325   0.06741   0.07002   0.07205   0.07547
 Alpha virt. eigenvalues --    0.08217   0.08497   0.08989   0.09491   0.09545
 Alpha virt. eigenvalues --    0.09681   0.09940   0.10407   0.10868   0.11235

  Beta  occ. eigenvalues --  -88.78416 -14.24787 -14.20632 -10.17638 -10.12214
  Beta  occ. eigenvalues --  -10.11473 -10.09659 -10.09449 -10.09268 -10.08872
  Beta  occ. eigenvalues --  -10.08452 -10.07546 -10.06833 -10.06662 -10.06642
  Beta  occ. eigenvalues --  -10.06448  -7.87036  -5.83330  -5.82994  -5.82583
  Beta  occ. eigenvalues --   -0.89208  -0.83115  -0.78561  -0.70157  -0.70014
  Beta  occ. eigenvalues --   -0.66095  -0.65117  -0.61421  -0.60984  -0.58510
  Beta  occ. eigenvalues --   -0.58154  -0.53985  -0.49440  -0.48924  -0.45166
  Beta  occ. eigenvalues --   -0.42207  -0.41407  -0.39670  -0.38872  -0.37287
  Beta  occ. eigenvalues --   -0.36737  -0.35142  -0.34299  -0.34042  -0.33059
  Beta  occ. eigenvalues --   -0.32325  -0.31267  -0.30380  -0.30246  -0.29837
  Beta  occ. eigenvalues --   -0.29420  -0.28992  -0.28741  -0.28188  -0.27688
  Beta  occ. eigenvalues --   -0.26502  -0.25693  -0.24749  -0.23549  -0.21462
  Beta  occ. eigenvalues --   -0.18819  -0.18233  -0.17844  -0.16800  -0.11574
  Beta virt. eigenvalues --    0.05737   0.06257   0.07093   0.07491   0.07742
  Beta virt. eigenvalues --    0.08007   0.08236   0.08612   0.09268   0.09706
  Beta virt. eigenvalues --    0.09931   0.10010   0.10183   0.10624   0.11004

 Mulliken charges and spin densities:
               1          2
     1  C   -0.064065  -0.446499
     2  C    0.269083  -0.765610
     3  C   -0.407182  -0.225865
     4  C    0.245714   0.292778
     5  S    0.141572  -0.524667
     6  C   -0.407681   0.375457
     7  N    0.001552   0.019444
     8  N    0.040053   0.043453
     9  C    1.162143  -1.680231
    10  C    0.267067  -0.430964
    11  C   -1.245721   1.688359
    12  C   -0.553346   0.377732
    13  C   -0.246146  -0.272855
    14  C    1.249375  -1.485078
    15  C    0.163646  -0.618229
    16  C   -0.070186  -0.419220
    17  H    0.084815   0.074761
    18  H   -0.055571   0.181163
    19  H    0.061047   0.064440
    20  H    0.035626   0.116280
    21  H   -0.055923   0.201400
    22  H   -0.427212   0.688170
    23  H    0.314543  -0.003703
    24  H   -0.178969   0.372942
    25  H    0.180451  -0.104411
    26  H   -0.097301   0.342568
    27  H    0.110513   0.023788
    28  H   -0.121013   0.290345
    29  H   -0.069273   0.195760
    30  H   -0.194273   0.318419
    31  H   -0.189037   0.352515
    32  H    0.009346   0.128580
    33  H   -0.075453   0.219828
    34  H   -0.201362   0.362435
    35  H   -0.332070   0.466294
    36  H   -0.163404   0.283919
    37  H   -0.147718   0.313654
    38  H   -0.033640   0.182849
 Sum of Mulliken charges =  -1.00000   1.00000

 Dipole moment (field-independent basis, Debye):
    X=              4.2293    Y=             -0.4141    Z=              0.3467  Tot=              4.2636
 Quadrupole moment (field-independent basis, Debye-Ang):
   XX=           -226.7345   YY=           -148.9120   ZZ=           -144.8707
   XY=              2.8397   XZ=             -1.6757   YZ=              0.6237

 Summary of Natural Population Analysis:

                                       Natural Population
                Natural  -----------------------------------------------
    Atom  No    Charge         Core      Valence    Rydberg      Total
 -----------------------------------------------------------------------
      C    1   -0.28142      0.99966     2.27772    0.00404     3.28142
      C    2   -0.19783      0.99960     2.18991    0.00832     3.19783
      C    3    0.07190      0.99948     1.91417    0.01445     2.92810
      C    4   -0.22016      0.99943     2.21062    0.01010     3.22016
      S    5    0.15603      4.99947     2.82507    0.01943     7.84397
      C    6    0.15184      0.99960     1.82993    0.01864     2.84816
      N    7   -0.28353      0.99962     2.77230    0.01160     3.78353
      N    8   -0.31170      0.99964     2.80129    0.01077     3.81170
      C    9   -0.09107      0.99959     2.08004    0.01144     3.09107
      C   10   -0.11334      0.99950     2.10182    0.01202     3.11334
      C   11   -0.03185      0.99951     2.01939    0.01295     3.03185
      C   12   -0.03376      0.99951     2.02132    0.01294     3.03376
      C   13   -0.28458      0.99962     2.27823    0.00672     3.28458
      C   14   -0.28125      0.99962     2.27486    0.00677     3.28125
      C   15   -0.28043      0.99962     2.27445    0.00636     3.28043
      C   16   -0.28414      0.99962     2.27826    0.00626     3.28414
      H   17    0.10388      0.00000     0.39457    0.00155     0.39612
      H   18    0.09434      0.00000     0.40452    0.00113     0.40566
      H   19    0.09608      0.00000     0.40259    0.00133     0.40392
      H   20    0.10172      0.00000     0.39673    0.00155     0.39828
      H   21    0.09868      0.00000     0.39982    0.00150     0.40132
      H   22    0.11126      0.00000     0.38736    0.00139     0.38874
      H   23    0.19639      0.00000     0.30051    0.00310     0.30361
      H   24    0.09589      0.00000     0.40272    0.00140     0.40411
      H   25    0.09858      0.00000     0.39939    0.00203     0.40142
      H   26    0.10319      0.00000     0.39498    0.00183     0.39681
      H   27    0.10200      0.00000     0.39701    0.00099     0.39800
      H   28    0.10178      0.00000     0.39721    0.00101     0.39822
      H   29    0.10093      0.00000     0.39805    0.00102     0.39907
      H   30    0.10229      0.00000     0.39647    0.00124     0.39771
      H   31    0.10137      0.00000     0.39747    0.00116     0.39863
      H   32    0.09856      0.00000     0.40042    0.00102     0.40144
      H   33    0.10040      0.00000     0.39846    0.00114     0.39960
      H   34    0.10144      0.00000     0.39720    0.00136     0.39856
      H   35    0.10189      0.00000     0.39672    0.00139     0.39811
      H   36    0.10004      0.00000     0.39874    0.00122     0.39996
      H   37    0.10395      0.00000     0.39489    0.00117     0.39605
      H   38    0.10063      0.00000     0.39839    0.00098     0.39937
 =======================================================================
   * Total *   -0.00000     19.99310    44.80359    0.20330    65.00000

 Normal termination of Gaussian 16 at Thu Dec 10 22:04:57 2020.
