 Gaussian 16, Revision A.03,

 -----------------------------------------------------------
 # opt freq B3LYP/6-31G(d) empiricaldispersion=gd3bj scf=xqc
 -----------------------------------------------------------

 ------------------------------
 CID_63150347_JID_3793_neutraal
 ------------------------------
 Symbolic Z-matrix:
 Charge =  0 Multiplicity = 1

 SCF Done:  E(RB3LYP) =  -624.728566124     A.U. after   14 cycles
 SCF Done:  E(RB3LYP) =  -624.733224888     A.U. after   13 cycles
 SCF Done:  E(RB3LYP) =  -624.734593147     A.U. after   12 cycles
 SCF Done:  E(RB3LYP) =  -624.735070838     A.U. after   12 cycles
 SCF Done:  E(RB3LYP) =  -624.735562111     A.U. after   12 cycles
 SCF Done:  E(RB3LYP) =  -624.736034728     A.U. after   13 cycles
 SCF Done:  E(RB3LYP) =  -624.736325062     A.U. after   14 cycles
 SCF Done:  E(RB3LYP) =  -624.736259094     A.U. after   13 cycles
 SCF Done:  E(RB3LYP) =  -624.736450703     A.U. after   12 cycles
 SCF Done:  E(RB3LYP) =  -624.736573390     A.U. after   12 cycles
 SCF Done:  E(RB3LYP) =  -624.736605018     A.U. after   11 cycles
 SCF Done:  E(RB3LYP) =  -624.736606645     A.U. after    9 cycles
 SCF Done:  E(RB3LYP) =  -624.736606177     A.U. after    9 cycles
 SCF Done:  E(RB3LYP) =  -624.736606838     A.U. after    8 cycles
 SCF Done:  E(RB3LYP) =  -624.736607096     A.U. after    7 cycles
 SCF Done:  E(RB3LYP) =  -624.736607134     A.U. after    7 cycles
 Optimization completed.
    -- Stationary point found.
 Normal termination of Gaussian 16 at Mon Dec 14 13:12:58 2020.

 --------------------------------------------------------------------
 #N Geom=AllCheck Guess=TCheck SCRF=Check GenChk RB3LYP/6-31G(d) Freq
 --------------------------------------------------------------------

 Structure from the checkpoint file:  "JID_3793.chk"
 ------------------------------
 CID_63150347_JID_3793_neutraal
 ------------------------------
 Charge =  0 Multiplicity = 1

 SCF Done:  E(RB3LYP) =  -624.736607134     A.U. after    1 cycles

  Exact polarizability: 101.766 -10.103 109.429   2.537   1.468 101.660
 Approx polarizability: 133.783 -21.109 163.828   1.956   3.018 167.265

                      1                      2                      3
                      A                      A                      A
 Frequencies --     32.6193                52.5032                57.2931
 Red. masses --      3.6068                 5.8356                 3.3577
 Frc consts  --      0.0023                 0.0095                 0.0065
 IR Inten    --      1.3134                 8.4458                 1.3043

                      4                      5                      6
                      A                      A                      A
 Frequencies --     91.5413               101.3701               144.7464
 Red. masses --      2.8493                 2.0791                 3.5954
 Frc consts  --      0.0141                 0.0126                 0.0444
 IR Inten    --      1.2838                 3.7871                 0.7255

                      7                      8                      9
                      A                      A                      A
 Frequencies --    169.0570               197.4041               205.3636
 Red. masses --      1.0700                 3.1464                 2.5313
 Frc consts  --      0.0180                 0.0722                 0.0629
 IR Inten    --      0.5041                 2.9155                 0.9310

                     10                     11                     12
                      A                      A                      A
 Frequencies --    237.5607               251.0413               263.8654
 Red. masses --      1.4458                 1.6090                 2.3026
 Frc consts  --      0.0481                 0.0597                 0.0945
 IR Inten    --      2.5326                 2.4986                 1.7335

                     13                     14                     15
                      A                      A                      A
 Frequencies --    300.2264               335.9592               382.3566
 Red. masses --      2.5311                 2.3085                 3.3212
 Frc consts  --      0.1344                 0.1535                 0.2861
 IR Inten    --      1.5302                 0.3455                 5.1404

                     16                     17                     18
                      A                      A                      A
 Frequencies --    402.4902               457.2606               469.9714
 Red. masses --      2.8453                 3.3278                 2.6045
 Frc consts  --      0.2716                 0.4100                 0.3389
 IR Inten    --      1.4078                 5.6980                 0.8179

                     19                     20                     21
                      A                      A                      A
 Frequencies --    625.3761               658.5109               706.7349
 Red. masses --      2.6781                 4.2387                 8.9147
 Frc consts  --      0.6171                 1.0830                 2.6234
 IR Inten    --     11.1474                29.8822                 1.8441

                     22                     23                     24
                      A                      A                      A
 Frequencies --    733.4592               762.6884               786.9331
 Red. masses --      5.3511                 6.4114                 1.6749
 Frc consts  --      1.6961                 2.1973                 0.6111
 IR Inten    --      8.1000                 6.8890               101.8886

                     25                     26                     27
                      A                      A                      A
 Frequencies --    835.4765               934.3766               960.1153
 Red. masses --      2.7455                 1.7208                 1.3772
 Frc consts  --      1.1291                 0.8851                 0.7480
 IR Inten    --      7.9757                 7.9320                 2.6944

                     28                     29                     30
                      A                      A                      A
 Frequencies --    972.5516               987.8650              1003.9281
 Red. masses --      2.1327                 3.7021                 3.1782
 Frc consts  --      1.1885                 2.1286                 1.8873
 IR Inten    --     15.3170                 7.3631                30.2614

                     31                     32                     33
                      A                      A                      A
 Frequencies --   1036.9148              1052.7155              1110.6043
 Red. masses --      2.1464                 3.8915                 3.0232
 Frc consts  --      1.3597                 2.5409                 2.1971
 IR Inten    --      6.1705                 8.5841                19.4957

                     34                     35                     36
                      A                      A                      A
 Frequencies --   1137.6905              1162.5033              1168.6367
 Red. masses --      4.0985                 1.4117                 3.9681
 Frc consts  --      3.1255                 1.1240                 3.1929
 IR Inten    --     17.8777                 4.7379               115.4144

                     37                     38                     39
                      A                      A                      A
 Frequencies --   1170.9769              1187.4524              1213.6023
 Red. masses --      2.3619                 1.4022                 1.7959
 Frc consts  --      1.9081                 1.1649                 1.5584
 IR Inten    --     39.4716                 3.1506                 6.4311

                     40                     41                     42
                      A                      A                      A
 Frequencies --   1233.0237              1248.8279              1273.5348
 Red. masses --      1.6589                 2.4618                 1.9465
 Frc consts  --      1.4859                 2.2621                 1.8600
 IR Inten    --     22.3362                17.6492                17.5128

                     43                     44                     45
                      A                      A                      A
 Frequencies --   1303.5451              1326.9169              1335.2540
 Red. masses --      1.2629                 1.8864                 1.5226
 Frc consts  --      1.2643                 1.9570                 1.5995
 IR Inten    --      1.4054                 2.4804                 0.4013

                     46                     47                     48
                      A                      A                      A
 Frequencies --   1356.1151              1391.2271              1403.5876
 Red. masses --      6.2069                 1.4437                 1.3109
 Frc consts  --      6.7254                 1.6464                 1.5215
 IR Inten    --     33.5210                 3.4395                10.5116

                     49                     50                     51
                      A                      A                      A
 Frequencies --   1434.7540              1443.4154              1456.8316
 Red. masses --      1.4069                 1.9234                 1.3215
 Frc consts  --      1.7064                 2.3611                 1.6525
 IR Inten    --      0.1444                31.8507                23.4279

                     52                     53                     54
                      A                      A                      A
 Frequencies --   1465.7614              1504.2597              1510.6921
 Red. masses --      1.2121                 1.1624                 1.0862
 Frc consts  --      1.5344                 1.5498                 1.4605
 IR Inten    --      5.3262                 4.8547                11.9337

                     55                     56                     57
                      A                      A                      A
 Frequencies --   1515.1334              1516.9182              1525.6479
 Red. masses --      1.0481                 1.0646                 1.0530
 Frc consts  --      1.4176                 1.4433                 1.4441
 IR Inten    --      6.3430                 1.3145                 7.8284

                     58                     59                     60
                      A                      A                      A
 Frequencies --   1533.5776              1534.4824              1548.5169
 Red. masses --      1.0592                 1.0637                 1.0583
 Frc consts  --      1.4677                 1.4757                 1.4952
 IR Inten    --      7.6437                 8.1074                 5.7354

                     61                     62                     63
                      A                      A                      A
 Frequencies --   1560.6580              1572.2986              1619.8403
 Red. masses --      1.1056                 1.9732                 6.0870
 Frc consts  --      1.5866                 2.8741                 9.4101
 IR Inten    --      4.2934                32.5212               209.8070

                     64                     65                     66
                      A                      A                      A
 Frequencies --   2951.6859              2994.1003              3024.0023
 Red. masses --      1.0679                 1.0394                 1.0849
 Frc consts  --      5.4820                 5.4902                 5.8454
 IR Inten    --     67.2422                64.7631                 1.9119

                     67                     68                     69
                      A                      A                      A
 Frequencies --   3039.2123              3041.5693              3048.1844
 Red. masses --      1.0887                 1.1018                 1.0400
 Frc consts  --      5.9246                 6.0054                 5.6935
 IR Inten    --     65.3237                24.0668                25.7114

                     70                     71                     72
                      A                      A                      A
 Frequencies --   3069.3913              3078.1956              3109.6074
 Red. masses --      1.0371                 1.0598                 1.1024
 Frc consts  --      5.7570                 5.9165                 6.2806
 IR Inten    --     12.6309                50.9189                26.6690

                     73                     74                     75
                      A                      A                      A
 Frequencies --   3117.7037              3140.0516              3141.5030
 Red. masses --      1.1057                 1.0973                 1.1027
 Frc consts  --      6.3323                 6.3746                 6.4118
 IR Inten    --     31.9210                36.3305                 8.7379

                     76                     77                     78
                      A                      A                      A
 Frequencies --   3149.1035              3183.4060              3556.2647
 Red. masses --      1.0984                 1.1040                 1.0739
 Frc consts  --      6.4180                 6.5918                 8.0023
 IR Inten    --     12.0893                 2.0144                18.8545

 - Thermochemistry -
 -------------------
 Temperature   298.150 Kelvin.  Pressure   1.00000 Atm.
 Atom     1 has atomic number  6 and mass  12.00000

 Molecular mass:   185.12766 amu.
 Principal axes and moments of inertia in atomic units:
                           1         2         3
     Eigenvalues --  1745.256643171.016683683.18047
           X            0.99926   0.02237   0.03143
           Y           -0.02125   0.99915  -0.03545
           Z           -0.03220   0.03476   0.99888
 This molecule is an asymmetric top.
 Rotational symmetry number  1.
 Warning -- assumption of classical behavior for rotation
           may cause significant error
 Rotational temperatures (Kelvin)      0.04963     0.02731     0.02352
 Rotational constants (GHZ):           1.03408     0.56914     0.49000
 Zero-point vibrational energy     631751.1 (Joules/Mol)
                                  150.99215 (Kcal/Mol)
 Warning -- explicit consideration of  18 degrees of freedom as
           vibrations may cause significant error
 Vibrational temperatures:     46.93    75.54    82.43   131.71   145.85
          (Kelvin)            208.26   243.24   284.02   295.47   341.80
                              361.19   379.64   431.96   483.37   550.13
                              579.09   657.90   676.18   899.78   947.45
                             1016.83  1055.28  1097.34  1132.22  1202.06
                             1344.36  1381.39  1399.28  1421.32  1444.43
                             1491.89  1514.62  1597.91  1636.88  1672.58
                             1681.41  1684.77  1708.48  1746.10  1774.05
                             1796.78  1832.33  1875.51  1909.14  1921.13
                             1951.15  2001.67  2019.45  2064.29  2076.75
                             2096.06  2108.90  2164.29  2173.55  2179.94
                             2182.51  2195.07  2206.48  2207.78  2227.97
                             2245.44  2262.19  2330.59  4246.82  4307.84
                             4350.86  4372.75  4376.14  4385.66  4416.17
                             4428.84  4474.03  4485.68  4517.83  4519.92
                             4530.86  4580.21  5116.67

 Zero-point correction=                           0.240621 (Hartree/Particle)
 Thermal correction to Energy=                    0.254529
 Thermal correction to Enthalpy=                  0.255473
 Thermal correction to Gibbs Free Energy=         0.198897
 Sum of electronic and zero-point Energies=           -624.495986
 Sum of electronic and thermal Energies=              -624.482078
 Sum of electronic and thermal Enthalpies=            -624.481134
 Sum of electronic and thermal Free Energies=         -624.537710

                     E (Thermal)             CV                S
                      KCal/Mol        Cal/Mol-Kelvin    Cal/Mol-Kelvin
 Total                  159.719             49.582            119.075
 Electronic               0.000              0.000              0.000
 Translational            0.889              2.981             41.554
 Rotational               0.889              2.981             31.389
 Vibrational            157.942             43.621             46.132
 Vibration     1          0.594              1.983              5.663
 Vibration     2          0.596              1.977              4.721
 Vibration     3          0.596              1.975              4.548
 Vibration     4          0.602              1.955              3.627
 Vibration     5          0.604              1.948              3.428
 Vibration     6          0.616              1.908              2.740
 Vibration     7          0.625              1.881              2.446
 Vibration     8          0.637              1.844              2.157
 Vibration     9          0.640              1.832              2.085
 Vibration    10          0.656              1.783              1.821
 Vibration    11          0.663              1.761              1.723
 Vibration    12          0.670              1.739              1.636
 Vibration    13          0.693              1.673              1.416
 Vibration    14          0.717              1.604              1.231
 Vibration    15          0.752              1.508              1.030
 Vibration    16          0.768              1.465              0.954
 Vibration    17          0.815              1.345              0.774
 Vibration    18          0.827              1.317              0.738

 Optimization completed.
    -- Stationary point found.
 Normal termination of Gaussian 16 at Mon Dec 14 13:19:54 2020.

 ----------------------------------------------------------------------
 # B3LYP/6-311++G(d,p) empiricaldispersion=gd3bj scf=xqc pop=npa geom=c
 heck
 ----------------------------------------------------------------------

 --------------------------------------
 CID_63150347_JID_3793_Energie_neutraal
 --------------------------------------
 Structure from the checkpoint file:  "JID_3793.chk"
 Charge =  0 Multiplicity = 1

 SCF Done:  E(RB3LYP) =  -624.914078873     A.U. after   15 cycles
 Normal termination of Gaussian 16 at Mon Dec 14 13:22:29 2020.

 ----------------------------------------------------------------------
 # B3LYP/6-311++G(d,p) empiricaldispersion=gd3bj scf=xqc pop=npa geom=c
 heck
 ----------------------------------------------------------------------

 ------------------------------------
 CID_63150347_JID_3793_Energie_kation
 ------------------------------------
 Structure from the checkpoint file:  "JID_3793.chk"
 Charge =  1 Multiplicity = 2

 SCF Done:  E(UB3LYP) =  -624.589889420     A.U. after   25 cycles
 Normal termination of Gaussian 16 at Mon Dec 14 13:28:20 2020.
 Gaussian 16:  ES64L-G16RevA.03 25-Dec-2016

 ----------------------------------------------------------------------
 # B3LYP/6-311++G(d,p) empiricaldispersion=gd3bj scf=xqc pop=npa geom=c
 heck
 ----------------------------------------------------------------------

 -----------------------------------
 CID_63150347_JID_3793_Energie_anion
 -----------------------------------
 Structure from the checkpoint file:  "JID_3793.chk"
 Charge = -1 Multiplicity = 2

                         Standard orientation:
 ---------------------------------------------------------------------
 Center     Atomic      Atomic             Coordinates (Angstroms)
 Number     Number       Type             X           Y           Z
 ---------------------------------------------------------------------
      1          6           0        1.982119   -1.659245    1.056593
      2          6           0        1.559044   -1.160299   -0.329337
      3          6           0        0.254760   -1.819482   -0.817446
      4          7           0       -0.906966   -1.732325    0.089195
      5          6           0       -1.419234   -0.492388    0.412153
      6          7           0       -1.528488    0.021808    1.629825
      7          7           0       -2.134604    1.230306    1.468271
      8          7           0       -2.379354    1.475190    0.225879
      9          7           0       -1.945411    0.383625   -0.473922
     10          6           0       -2.152240    0.274152   -1.902818
     11          6           0        1.499745    0.368859   -0.367086
     12          8           0        2.817578    0.858284   -0.213940
     13          6           0        2.861560    2.265602   -0.106057
     14          1           0        1.258903   -1.353671    1.822046
     15          1           0        2.949635   -1.230067    1.327276
     16          1           0        2.071184   -2.752236    1.078926
     17          1           0        2.330673   -1.450634   -1.056773
     18          1           0       -0.034419   -1.405358   -1.788677
     19          1           0        0.429404   -2.888371   -0.975324
     20          1           0       -0.746863   -2.247144    0.949621
     21          1           0       -2.968779    0.945244   -2.170600
     22          1           0       -1.252250    0.558865   -2.457152
     23          1           0       -2.422673   -0.756299   -2.146327
     24          1           0        1.076772    0.716106   -1.328103
     25          1           0        0.856854    0.758756    0.436560
     26          1           0        2.462828    2.754697   -1.009582
     27          1           0        2.286953    2.623492    0.762206
     28          1           0        3.910385    2.546931    0.016670
 ---------------------------------------------------------------------

 SCF Done:  E(UB3LYP) =  -624.906484047     A.U. after   29 cycles

 The electronic state is 2-A.
 Alpha  occ. eigenvalues --  -19.03561 -14.31165 -14.28134 -14.27186 -14.24645
 Alpha  occ. eigenvalues --  -14.23375 -10.18270 -10.12417 -10.12304 -10.11982
 Alpha  occ. eigenvalues --  -10.11216 -10.08340 -10.06435  -1.03772  -0.94929
 Alpha  occ. eigenvalues --   -0.86979  -0.85047  -0.76998  -0.70702  -0.65407
 Alpha  occ. eigenvalues --   -0.62095  -0.59903  -0.57050  -0.55687  -0.51467
 Alpha  occ. eigenvalues --   -0.48080  -0.44461  -0.42025  -0.41596  -0.39984
 Alpha  occ. eigenvalues --   -0.39560  -0.37892  -0.36437  -0.33880  -0.33693
 Alpha  occ. eigenvalues --   -0.33405  -0.32382  -0.32156  -0.28999  -0.27949
 Alpha  occ. eigenvalues --   -0.27377  -0.25392  -0.25059  -0.23410  -0.22473
 Alpha  occ. eigenvalues --   -0.21038  -0.20283  -0.19255  -0.17233  -0.15057
 Alpha  occ. eigenvalues --    0.04130
 Alpha virt. eigenvalues --    0.06622   0.06922   0.07742   0.08621   0.09134
 Alpha virt. eigenvalues --    0.09573   0.10416   0.10730   0.11312   0.11683
 Alpha virt. eigenvalues --    0.12372   0.12683   0.13177   0.13771   0.14204

  Beta  occ. eigenvalues --  -19.03552 -14.31157 -14.28120 -14.27183 -14.24638
  Beta  occ. eigenvalues --  -14.23375 -10.18265 -10.12402 -10.12232 -10.11962
  Beta  occ. eigenvalues --  -10.11171 -10.08330 -10.06415  -1.03757  -0.94913
  Beta  occ. eigenvalues --   -0.86956  -0.85028  -0.76979  -0.70669  -0.65331
  Beta  occ. eigenvalues --   -0.62057  -0.59840  -0.57036  -0.55637  -0.51422
  Beta  occ. eigenvalues --   -0.48027  -0.44423  -0.41957  -0.41552  -0.39948
  Beta  occ. eigenvalues --   -0.39517  -0.37866  -0.36380  -0.33842  -0.33632
  Beta  occ. eigenvalues --   -0.33349  -0.32346  -0.32116  -0.28969  -0.27920
  Beta  occ. eigenvalues --   -0.27348  -0.25354  -0.25023  -0.23374  -0.22435
  Beta  occ. eigenvalues --   -0.21006  -0.20259  -0.19243  -0.17212  -0.15035
  Beta virt. eigenvalues --    0.06625   0.07359   0.07848   0.07935   0.09227
  Beta virt. eigenvalues --    0.09524   0.10145   0.10887   0.11089   0.11710
  Beta virt. eigenvalues --    0.12049   0.12691   0.13088   0.13563   0.14074

 Mulliken charges and spin densities:
               1          2
     1  C   -0.008492  -0.652470
     2  C   -1.010050   1.509664
     3  C    1.156669  -1.694854
     4  N   -0.128294   0.090882
     5  C   -0.459145  -0.183321
     6  N   -0.071483   0.035233
     7  N   -0.023879  -0.021278
     8  N    0.080874  -0.018368
     9  N   -0.221989   0.272955
    10  C    1.693183  -1.990740
    11  C    0.412037  -0.991715
    12  O   -0.148471   0.015713
    13  C    0.304016  -0.547120
    14  H    0.091074   0.081327
    15  H    0.101239   0.044492
    16  H   -0.106129   0.251382
    17  H   -0.395726   0.630887
    18  H   -0.211041   0.386246
    19  H   -1.037928   1.263159
    20  H    0.070648   0.221449
    21  H   -0.062145   0.240572
    22  H   -0.856155   1.073121
    23  H   -0.557161   0.746441
    24  H    0.297930  -0.134107
    25  H    0.117741  -0.052069
    26  H   -0.140248   0.265359
    27  H    0.057019   0.077754
    28  H    0.055904   0.079404
 Sum of Mulliken charges =  -1.00000   1.00000

 Dipole moment (field-independent basis, Debye):
    X=              1.6854    Y=              2.5900    Z=              4.5892  Tot=              5.5326
 Quadrupole moment (field-independent basis, Debye-Ang):
   XX=           -125.0358   YY=           -128.7112   ZZ=           -131.8207
   XY=              7.7497   XZ=              2.1436   YZ=             -8.2678

 Summary of Natural Population Analysis:

                                       Natural Population
                Natural  -----------------------------------------------
    Atom  No    Charge         Core      Valence    Rydberg      Total
 -----------------------------------------------------------------------
      C    1   -0.29296      0.99964     2.28650    0.00682     3.29296
      C    2   -0.13135      0.99959     2.11912    0.01264     3.13135
      C    3   -0.08587      0.99957     2.07264    0.01365     3.08587
      N    4   -0.32441      0.99969     2.81250    0.01222     3.82441
      C    5    0.27281      0.99958     1.70892    0.01870     2.72719
      N    6   -0.18917      0.99969     2.67795    0.01153     3.68917
      N    7   -0.04490      0.99981     2.52553    0.01956     3.54490
      N    8   -0.04434      0.99978     2.52961    0.01494     3.54434
      N    9   -0.12716      0.99960     2.61393    0.01363     3.62716
      C   10   -0.18006      0.99963     2.17175    0.00868     3.18006
      C   11   -0.00953      0.99954     1.99809    0.01190     3.00953
      O   12   -0.29670      0.99988     3.28811    0.00871     4.29670
      C   13   -0.09595      0.99962     2.08847    0.00786     3.09595
      H   14    0.09894      0.00000     0.40001    0.00105     0.40106
      H   15    0.10767      0.00000     0.39130    0.00104     0.39233
      H   16    0.09988      0.00000     0.39917    0.00094     0.40012
      H   17    0.10524      0.00000     0.39226    0.00251     0.39476
      H   18    0.10225      0.00000     0.39399    0.00376     0.39775
      H   19    0.10578      0.00000     0.39052    0.00370     0.39422
      H   20    0.19259      0.00000     0.30470    0.00271     0.30741
      H   21    0.11021      0.00000     0.38821    0.00158     0.38979
      H   22    0.10781      0.00000     0.38852    0.00367     0.39219
      H   23    0.11012      0.00000     0.38767    0.00221     0.38988
      H   24    0.08240      0.00000     0.41530    0.00230     0.41760
      H   25    0.08095      0.00000     0.41630    0.00274     0.41905
      H   26    0.07996      0.00000     0.41839    0.00165     0.42004
      H   27    0.07852      0.00000     0.42021    0.00128     0.42148
      H   28    0.08727      0.00000     0.41181    0.00092     0.41273
 =======================================================================
   * Total *   -0.00000     12.99563    36.81146    0.19291    50.00000

 Normal termination of Gaussian 16 at Mon Dec 14 13:35:05 2020.
