 Gaussian 16, Revision A.03,

 -----------------------------------------------------------
 # opt freq B3LYP/6-31G(d) empiricaldispersion=gd3bj scf=xqc
 -----------------------------------------------------------

 -------------------------------
 CID_130143588_JID_2145_neutraal
 -------------------------------
 Symbolic Z-matrix:
 Charge =  0 Multiplicity = 1

 SCF Done:  E(RB3LYP) =  -579.499750375     A.U. after   13 cycles
 SCF Done:  E(RB3LYP) =  -579.504855324     A.U. after   11 cycles
 SCF Done:  E(RB3LYP) =  -579.505585643     A.U. after   11 cycles
 SCF Done:  E(RB3LYP) =  -579.505946103     A.U. after   10 cycles
 SCF Done:  E(RB3LYP) =  -579.506009586     A.U. after   10 cycles
 SCF Done:  E(RB3LYP) =  -579.506053346     A.U. after    9 cycles
 SCF Done:  E(RB3LYP) =  -579.506060079     A.U. after   10 cycles
 SCF Done:  E(RB3LYP) =  -579.506072534     A.U. after    9 cycles
 SCF Done:  E(RB3LYP) =  -579.506075586     A.U. after    8 cycles
 SCF Done:  E(RB3LYP) =  -579.506076088     A.U. after    7 cycles
 Optimization completed.
    -- Stationary point found.

 1\1\GINC-NODE225\FOpt\RB3LYP\6-31G(d)\C9H18O3\VSC10255\09-Dec-2020\0\\
 # opt freq B3LYP/6-31G(d) empiricaldispersion=gd3bj scf=xqc\\CID_13014
 3588_JID_2145_neutraal\\0,1\C,1.1587079314,0.0077505028,0.12695895\C,0
 .4042810065,-0.1729412394,1.4380981989\C,0.9385346045,-1.3212991412,2.
 3084090089\C,0.9013826791,-0.7538328071,3.7342239005\C,1.1188273246,0.
 754592244,3.5238367796\O,0.583906095,1.0373862605,2.2281660803\C,2.585
 3855858,1.2289089897,3.629525969\C,2.720095026,2.652241842,3.080626940
 2\C,3.0601498384,1.1641018707,5.0871456335\O,3.3643315774,0.3234417768

 Normal termination of Gaussian 16 at Wed Dec  9 16:50:19 2020.

 --------------------------------------------------------------------
 #N Geom=AllCheck Guess=TCheck SCRF=Check GenChk RB3LYP/6-31G(d) Freq
 --------------------------------------------------------------------

 Structure from the checkpoint file:  "JID_2145.chk"
 -------------------------------
 CID_130143588_JID_2145_neutraal
 -------------------------------
 Charge =  0 Multiplicity = 1

 SCF Done:  E(RB3LYP) =  -579.506076088     A.U. after    1 cycles

  Exact polarizability: 115.673  -2.679  96.132  -3.854  -0.885  93.774
 Approx polarizability: 144.817  -2.037 136.960  -2.750   2.929 138.771

                      1                      2                      3
                      A                      A                      A
 Frequencies --     58.6933                73.3194               119.7383
 Red. masses --      4.2115                 3.3120                 3.8097
 Frc consts  --      0.0085                 0.0105                 0.0322
 IR Inten    --      0.4709                 0.5923                 0.8221

                      4                      5                      6
                      A                      A                      A
 Frequencies --    133.4562               214.0196               225.3967
 Red. masses --      3.2568                 2.6249                 1.0975
 Frc consts  --      0.0342                 0.0708                 0.0329
 IR Inten    --      4.8906                 1.8009                 0.1740

                      7                      8                      9
                      A                      A                      A
 Frequencies --    240.5821               262.2050               269.6915
 Red. masses --      1.6122                 1.4178                 1.1337
 Frc consts  --      0.0550                 0.0574                 0.0486
 IR Inten    --      4.2098                33.9654                60.4226

                     10                     11                     12
                      A                      A                      A
 Frequencies --    270.6741               283.1552               303.6429
 Red. masses --      1.7088                 1.8458                 2.0435
 Frc consts  --      0.0738                 0.0872                 0.1110
 IR Inten    --      4.8970                 1.0951                 0.6398

                     13                     14                     15
                      A                      A                      A
 Frequencies --    337.0624               360.1118               395.5768
 Red. masses --      2.0965                 2.2804                 3.0874
 Frc consts  --      0.1403                 0.1742                 0.2846
 IR Inten    --      0.1946                 1.5213                 6.3099

                     16                     17                     18
                      A                      A                      A
 Frequencies --    399.3356               426.0125               497.3065
 Red. masses --      2.3797                 3.2511                 2.6028
 Frc consts  --      0.2236                 0.3476                 0.3793
 IR Inten    --      0.5938                 1.1732                13.0728

                     19                     20                     21
                      A                      A                      A
 Frequencies --    504.3459               533.4009               538.6750
 Red. masses --      2.6466                 2.9587                 1.3386
 Frc consts  --      0.3966                 0.4960                 0.2288
 IR Inten    --      9.9985                15.2081               110.6096

                     22                     23                     24
                      A                      A                      A
 Frequencies --    642.9099               710.5867               770.6425
 Red. masses --      2.5723                 3.1765                 4.0524
 Frc consts  --      0.6264                 0.9450                 1.4180
 IR Inten    --      1.3478                 4.6255                19.4313

                     25                     26                     27
                      A                      A                      A
 Frequencies --    796.5376               851.8757               894.2800
 Red. masses --      4.9846                 2.3421                 2.1835
 Frc consts  --      1.8634                 1.0014                 1.0288
 IR Inten    --     18.6280                19.9678                 2.7242

                     28                     29                     30
                      A                      A                      A
 Frequencies --    913.9741               934.4271               939.7340
 Red. masses --      1.8714                 1.9229                 1.4881
 Frc consts  --      0.9210                 0.9893                 0.7743
 IR Inten    --     11.5650                 1.5881                 0.3193

                     31                     32                     33
                      A                      A                      A
 Frequencies --    966.9538               971.8055               980.5412
 Red. masses --      2.1306                 2.1841                 1.8297
 Frc consts  --      1.1737                 1.2153                 1.0365
 IR Inten    --      0.2148                15.8461                 1.8049

                     34                     35                     36
                      A                      A                      A
 Frequencies --   1021.9357              1038.0545              1057.9215
 Red. masses --      1.4105                 1.6131                 1.7889
 Frc consts  --      0.8679                 1.0241                 1.1796
 IR Inten    --      4.6952                17.1157                37.5495

                     37                     38                     39
                      A                      A                      A
 Frequencies --   1089.6905              1100.4280              1122.2943
 Red. masses --      3.4641                 3.6833                 1.3986
 Frc consts  --      2.4235                 2.6279                 1.0379
 IR Inten    --    146.5810                62.7954                32.8798

                     40                     41                     42
                      A                      A                      A
 Frequencies --   1151.0681              1173.4817              1218.2990
 Red. masses --      1.9294                 1.4429                 2.0203
 Frc consts  --      1.5062                 1.1707                 1.7667
 IR Inten    --     53.6354                22.9813                16.8064

                     43                     44                     45
                      A                      A                      A
 Frequencies --   1225.4150              1232.7641              1245.5040
 Red. masses --      2.1610                 2.4578                 1.6531
 Frc consts  --      1.9119                 2.2007                 1.5110
 IR Inten    --      6.6907                21.8349                62.1548

                     46                     47                     48
                      A                      A                      A
 Frequencies --   1275.8798              1295.9383              1343.5106
 Red. masses --      1.6032                 2.0594                 1.5242
 Frc consts  --      1.5377                 2.0377                 1.6210
 IR Inten    --      1.4954                20.9664                 8.2713

                     49                     50                     51
                      A                      A                      A
 Frequencies --   1353.8687              1370.0200              1375.3442
 Red. masses --      1.4787                 1.3666                 1.4380
 Frc consts  --      1.5970                 1.5113                 1.6027
 IR Inten    --      0.5520                12.8343                 6.4637

                     52                     53                     54
                      A                      A                      A
 Frequencies --   1396.1292              1422.8315              1425.0595
 Red. masses --      1.2813                 1.5503                 1.2785
 Frc consts  --      1.4715                 1.8491                 1.5297
 IR Inten    --      8.9976                14.9854                 3.8472

                     55                     56                     57
                      A                      A                      A
 Frequencies --   1431.2710              1445.0243              1458.8086
 Red. masses --      1.3260                 1.2373                 1.2876
 Frc consts  --      1.6005                 1.5222                 1.6145
 IR Inten    --     29.2462                14.4077                72.2677

                     58                     59                     60
                      A                      A                      A
 Frequencies --   1510.2609              1512.5867              1515.5875
 Red. masses --      1.0750                 1.0540                 1.0592
 Frc consts  --      1.4447                 1.4207                 1.4335
 IR Inten    --      1.4094                 1.0209                 1.4438

                     61                     62                     63
                      A                      A                      A
 Frequencies --   1520.8525              1525.8376              1530.8659
 Red. masses --      1.0578                 1.0762                 1.0626
 Frc consts  --      1.4416                 1.4762                 1.4673
 IR Inten    --      6.3558                 4.3091                 1.1406

                     64                     65                     66
                      A                      A                      A
 Frequencies --   1534.1528              1537.6041              1542.2977
 Red. masses --      1.0741                 1.0911                 1.0785
 Frc consts  --      1.4895                 1.5198                 1.5114
 IR Inten    --      2.5914                 2.7835                14.4247

                     67                     68                     69
                      A                      A                      A
 Frequencies --   2976.9178              3043.0468              3045.0815
 Red. masses --      1.0718                 1.0441                 1.0713
 Frc consts  --      5.5965                 5.6963                 5.8529
 IR Inten    --     68.3277                15.8777                15.8020

                     70                     71                     72
                      A                      A                      A
 Frequencies --   3052.6262              3057.2574              3072.2921
 Red. masses --      1.0486                 1.0379                 1.0686
 Frc consts  --      5.7571                 5.7158                 5.9427
 IR Inten    --     54.1564                13.9070                25.5996

                     73                     74                     75
                      A                      A                      A
 Frequencies --   3080.6146              3092.6713              3104.3640
 Red. masses --      1.0681                 1.0905                 1.0990
 Frc consts  --      5.9722                 6.1451                 6.2402
 IR Inten    --     31.7787                47.8900                 3.9965

                     76                     77                     78
                      A                      A                      A
 Frequencies --   3113.4311              3128.4375              3131.5473
 Red. masses --      1.0995                 1.0983                 1.0994
 Frc consts  --      6.2796                 6.3335                 6.3524
 IR Inten    --     53.0408                21.6311                11.2052

                     79                     80                     81
                      A                      A                      A
 Frequencies --   3139.3959              3148.1216              3154.0902
 Red. masses --      1.0987                 1.1002                 1.1036
 Frc consts  --      6.3797                 6.4245                 6.4688
 IR Inten    --     24.6869                16.7482                22.6932

                     82                     83                     84
                      A                      A                      A
 Frequencies --   3166.3345              3687.6456              3741.6424
 Red. masses --      1.0984                 1.0645                 1.0662
 Frc consts  --      6.4883                 8.5290                 8.7942
 IR Inten    --     10.9806                35.0101                 9.4621

 - Thermochemistry -
 -------------------
 Temperature   298.150 Kelvin.  Pressure   1.00000 Atm.
 Atom     1 has atomic number  6 and mass  12.00000

 Molecular mass:   174.12559 amu.
 Principal axes and moments of inertia in atomic units:
                           1         2         3
     Eigenvalues --  1100.297712893.214533022.80368
           X            0.99966  -0.01776  -0.01892
           Y            0.01571   0.99454  -0.10313
           Z            0.02064   0.10279   0.99449
 This molecule is an asymmetric top.
 Rotational symmetry number  1.
 Warning -- assumption of classical behavior for rotation
           may cause significant error
 Rotational temperatures (Kelvin)      0.07872     0.02994     0.02865
 Rotational constants (GHZ):           1.64023     0.62378     0.59704
 Zero-point vibrational energy     704341.9 (Joules/Mol)
                                  168.34176 (Kcal/Mol)
 Warning -- explicit consideration of  21 degrees of freedom as
           vibrations may cause significant error
 Vibrational temperatures:     84.45   105.49   172.28   192.01   307.93
          (Kelvin)            324.30   346.14   377.25   388.03   389.44
                              407.40   436.87   484.96   518.12   569.15
                              574.55   612.94   715.51   725.64   767.44
                              775.03   925.00  1022.38  1108.78  1146.04
                             1225.66  1286.67  1315.00  1344.43  1352.07
                             1391.23  1398.21  1410.78  1470.34  1493.53
                             1522.11  1567.82  1583.27  1614.73  1656.13
                             1688.38  1752.86  1763.10  1773.67  1792.00
                             1835.71  1864.57  1933.01  1947.92  1971.15
                             1978.81  2008.72  2047.14  2050.34  2059.28
                             2079.07  2098.90  2172.93  2176.27  2180.59
                             2188.17  2195.34  2202.57  2207.30  2212.27
                             2219.02  4283.12  4378.27  4381.19  4392.05
                             4398.71  4420.34  4432.32  4449.66  4466.49
                             4479.53  4501.12  4505.60  4516.89  4529.44
                             4538.03  4555.65  5305.70  5383.39

 Zero-point correction=                           0.268270 (Hartree/Particle)
 Thermal correction to Energy=                    0.281566
 Thermal correction to Enthalpy=                  0.282511
 Thermal correction to Gibbs Free Energy=         0.229872
 Sum of electronic and zero-point Energies=           -579.237806
 Sum of electronic and thermal Energies=              -579.224510
 Sum of electronic and thermal Enthalpies=            -579.223566
 Sum of electronic and thermal Free Energies=         -579.276205

                     E (Thermal)             CV                S
                      KCal/Mol        Cal/Mol-Kelvin    Cal/Mol-Kelvin
 Total                  176.686             51.907            110.788
 Electronic               0.000              0.000              0.000
 Translational            0.889              2.981             41.371
 Rotational               0.889              2.981             30.643
 Vibrational            174.908             45.946             38.774
 Vibration     1          0.596              1.974              4.501
 Vibration     2          0.599              1.967              4.062
 Vibration     3          0.609              1.933              3.105
 Vibration     4          0.613              1.920              2.896
 Vibration     5          0.644              1.820              2.009
 Vibration     6          0.650              1.802              1.915
 Vibration     7          0.658              1.778              1.799
 Vibration     8          0.670              1.742              1.647
 Vibration     9          0.674              1.729              1.598
 Vibration    10          0.674              1.727              1.592
 Vibration    11          0.682              1.705              1.515
 Vibration    12          0.695              1.667              1.397
 Vibration    13          0.718              1.601              1.226
 Vibration    14          0.735              1.554              1.122
 Vibration    15          0.762              1.480              0.979
 Vibration    16          0.765              1.472              0.965
 Vibration    17          0.788              1.414              0.872
 Vibration    18          0.853              1.256              0.665
 Vibration    19          0.860              1.240              0.647
 Vibration    20          0.888              1.176              0.580
 Vibration    21          0.894              1.165              0.568

                           ! Non-Optimized Parameters !

 1\1\GINC-NODE225\Freq\RB3LYP\6-31G(d)\C9H18O3\VSC10255\09-Dec-2020\0\\
 #N Geom=AllCheck Guess=TCheck SCRF=Check GenChk RB3LYP/6-31G(d) Freq\\
 CID_130143588_JID_2145_neutraal\\0,1\C,1.1587079314,0.0077505028,0.126
 95895\C,0.4042810065,-0.1729412394,1.4380981989\C,0.9385346045,-1.3212
 991412,2.3084090089\C,0.9013826791,-0.7538328071,3.7342239005\C,1.1188
 273246,0.754592244,3.5238367796\O,0.583906095,1.0373862605,2.228166080
 3\C,2.5853855858,1.2289089897,3.629525969\C,2.720095026,2.652241842,3.
 0806269402\C,3.0601498384,1.1641018707,5.0871456335\O,3.3643315774,0.3

 Normal termination of Gaussian 16 at Wed Dec  9 16:57:48 2020.

 ----------------------------------------------------------------------
 # B3LYP/6-311++G(d,p) empiricaldispersion=gd3bj scf=xqc pop=npa geom=c
 heck
 ----------------------------------------------------------------------

 ---------------------------------------
 CID_130143588_JID_2145_Energie_neutraal
 ---------------------------------------
 Structure from the checkpoint file:  "JID_2145.chk"
 Charge =  0 Multiplicity = 1

 SCF Done:  E(RB3LYP) =  -579.690968788     A.U. after   13 cycles
 Normal termination of Gaussian 16 at Wed Dec  9 17:01:01 2020.

 ----------------------------------------------------------------------
 # B3LYP/6-311++G(d,p) empiricaldispersion=gd3bj scf=xqc pop=npa geom=c
 heck
 ----------------------------------------------------------------------

 -------------------------------------
 CID_130143588_JID_2145_Energie_kation
 -------------------------------------
 Structure from the checkpoint file:  "JID_2145.chk"
 Charge =  1 Multiplicity = 2

 SCF Done:  E(UB3LYP) =  -579.365669857     A.U. after   25 cycles
 Normal termination of Gaussian 16 at Wed Dec  9 17:09:46 2020.
 Gaussian 16:  ES64L-G16RevA.03 25-Dec-2016

 ------------------------------------
 CID_130143588_JID_2145_Energie_anion
 ------------------------------------
 Structure from the checkpoint file:  "JID_2145.chk"
 Charge = -1 Multiplicity = 2

                         Standard orientation:
 ---------------------------------------------------------------------
 Center     Atomic      Atomic             Coordinates (Angstroms)
 Number     Number       Type             X           Y           Z
 ---------------------------------------------------------------------
      1          6           0       -1.651082   -0.627363    1.649698
      2          6           0       -1.421151    0.173553    0.374332
      3          6           0       -0.776174    1.547946    0.612328
      4          6           0        0.243245    1.681233   -0.527569
      5          6           0        0.657477    0.226342   -0.807919
      6          8           0       -0.479355   -0.565992   -0.454799
      7          6           0        1.918809   -0.254965   -0.056705
      8          6           0        2.036827   -1.779182   -0.146984
      9          6           0        3.170024    0.419603   -0.634352
     10          8           0        1.749997    0.139158    1.315642
     11          6           0       -2.699043    0.281861   -0.472785
     12          8           0       -3.086044   -0.980475   -0.981445
     13          1           0       -2.113932   -1.589519    1.412904
     14          1           0       -2.317982   -0.082294    2.328049
     15          1           0       -0.693730   -0.794249    2.150197
     16          1           0       -1.522805    2.349713    0.603121
     17          1           0       -0.264258    1.561288    1.575889
     18          1           0        1.086709    2.319724   -0.257347
     19          1           0       -0.225728    2.104024   -1.422369
     20          1           0        0.845573    0.062355   -1.876436
     21          1           0        2.144554   -2.108084   -1.186683
     22          1           0        2.922165   -2.124204    0.402894
     23          1           0        1.146315   -2.247846    0.274912
     24          1           0        3.116725    1.507134   -0.531141
     25          1           0        4.063684    0.074384   -0.100492
     26          1           0        3.302970    0.175597   -1.694337
     27          1           0        2.473588   -0.260744    1.822501
     28          1           0       -3.529540    0.656657    0.135453
     29          1           0       -2.526564    1.003694   -1.289843
     30          1           0       -2.258125   -1.363322   -1.322714
 ---------------------------------------------------------------------

 SCF Done:  E(UB3LYP) =  -579.678849881     A.U. after   27 cycles

 The electronic state is 2-A.
 Alpha  occ. eigenvalues --  -19.01883 -19.01847 -19.00917 -10.12502 -10.11942
 Alpha  occ. eigenvalues --  -10.11400 -10.11312 -10.06553 -10.06504 -10.05470
 Alpha  occ. eigenvalues --  -10.04951 -10.04638  -0.94482  -0.91896  -0.90770
 Alpha  occ. eigenvalues --   -0.69851  -0.68827  -0.65007  -0.58380  -0.58226
 Alpha  occ. eigenvalues --   -0.56670  -0.50882  -0.47953  -0.44948  -0.41065
 Alpha  occ. eigenvalues --   -0.39455  -0.37952  -0.36904  -0.34806  -0.33614
 Alpha  occ. eigenvalues --   -0.33269  -0.32301  -0.31133  -0.30905  -0.29160
 Alpha  occ. eigenvalues --   -0.27738  -0.27432  -0.26815  -0.26475  -0.25013
 Alpha  occ. eigenvalues --   -0.24670  -0.23999  -0.21985  -0.21686  -0.21310
 Alpha  occ. eigenvalues --   -0.17900  -0.16796  -0.15191   0.04537
 Alpha virt. eigenvalues --    0.06943   0.07608   0.08478   0.09374   0.09646
 Alpha virt. eigenvalues --    0.10105   0.10464   0.10909   0.11929   0.12330
 Alpha virt. eigenvalues --    0.12571   0.13451   0.13610   0.14452   0.14622

  Beta  occ. eigenvalues --  -19.01877 -19.01843 -19.00870 -10.12503 -10.11939
  Beta  occ. eigenvalues --  -10.11381 -10.11298 -10.06532 -10.06493 -10.05460
  Beta  occ. eigenvalues --  -10.04903 -10.04599  -0.94468  -0.91856  -0.90701
  Beta  occ. eigenvalues --   -0.69829  -0.68786  -0.64969  -0.58352  -0.58145
  Beta  occ. eigenvalues --   -0.56623  -0.50816  -0.47900  -0.44901  -0.41032
  Beta  occ. eigenvalues --   -0.39407  -0.37903  -0.36876  -0.34766  -0.33568
  Beta  occ. eigenvalues --   -0.33232  -0.32269  -0.31099  -0.30861  -0.29133
  Beta  occ. eigenvalues --   -0.27696  -0.27410  -0.26773  -0.26455  -0.24978
  Beta  occ. eigenvalues --   -0.24623  -0.23959  -0.21967  -0.21667  -0.21269
  Beta  occ. eigenvalues --   -0.17882  -0.16746  -0.15176
  Beta virt. eigenvalues --    0.06899   0.07896   0.08378   0.08946   0.10027
  Beta virt. eigenvalues --    0.10152   0.10521   0.10867   0.11163   0.12302
  Beta virt. eigenvalues --    0.12729   0.12826   0.13776   0.13964   0.14642

 Mulliken charges and spin densities:
               1          2
     1  C    0.076697  -0.425336
     2  C   -0.192871   0.215282
     3  C   -0.702011   0.295094
     4  C    1.495564  -2.292145
     5  C    0.008248   0.475497
     6  O   -0.052779  -0.021508
     7  C   -1.804324   1.506662
     8  C    0.991502  -1.340378
     9  C    1.376587  -1.876680
    10  O   -0.237341   0.068653
    11  C    0.255306  -0.708987
    12  O   -0.253475   0.030927
    13  H    0.117541   0.033806
    14  H    0.005222   0.119823
    15  H    0.069901   0.108309
    16  H   -0.108216   0.270141
    17  H    0.026302   0.174235
    18  H    0.165695  -0.020442
    19  H   -0.296471   0.462125
    20  H   -0.541794   0.803051
    21  H   -0.259515   0.410622
    22  H   -0.447321   0.585137
    23  H    0.167302  -0.009360
    24  H   -0.173986   0.312847
    25  H   -0.468693   0.622476
    26  H   -0.264155   0.413860
    27  H   -0.182282   0.444377
    28  H    0.107974   0.044639
    29  H   -0.074611   0.236342
    30  H    0.196003   0.060932
 Sum of Mulliken charges =  -1.00000   1.00000

 Dipole moment (field-independent basis, Debye):
    X=             -5.3973    Y=              0.7688    Z=              1.4427  Tot=              5.6394
 Quadrupole moment (field-independent basis, Debye-Ang):
   XX=           -142.8745   YY=           -108.4196   ZZ=           -115.1119
   XY=              1.7818   XZ=             -5.6482   YZ=              2.1104

 Summary of Natural Population Analysis:

                                       Natural Population
                Natural  -----------------------------------------------
    Atom  No    Charge         Core      Valence    Rydberg      Total
 -----------------------------------------------------------------------
      C    1   -0.29506      0.99959     2.28945    0.00601     3.29506
      C    2    0.12623      0.99954     1.85923    0.01501     2.87377
      C    3   -0.20363      0.99957     2.19470    0.00935     3.20363
      C    4   -0.20132      0.99961     2.19214    0.00956     3.20132
      C    5    0.06719      0.99948     1.91635    0.01698     2.93281
      O    6   -0.32581      0.99987     3.31548    0.01046     4.32581
      C    7    0.11828      0.99951     1.86586    0.01635     2.88172
      C    8   -0.29694      0.99961     2.29004    0.00729     3.29694
      C    9   -0.29662      0.99961     2.29001    0.00700     3.29662
      O   10   -0.38496      0.99989     3.37738    0.00770     4.38496
      C   11   -0.01245      0.99951     2.00057    0.01238     3.01245
      O   12   -0.37454      0.99990     3.36770    0.00694     4.37454
      H   13    0.10417      0.00000     0.39469    0.00114     0.39583
      H   14    0.09543      0.00000     0.40366    0.00091     0.40457
      H   15    0.11215      0.00000     0.38666    0.00119     0.38785
      H   16    0.10039      0.00000     0.39861    0.00099     0.39961
      H   17    0.11226      0.00000     0.38612    0.00162     0.38774
      H   18    0.10916      0.00000     0.38958    0.00127     0.39084
      H   19    0.09970      0.00000     0.39878    0.00152     0.40030
      H   20    0.09545      0.00000     0.40243    0.00213     0.40455
      H   21    0.10280      0.00000     0.39594    0.00126     0.39720
      H   22    0.09927      0.00000     0.39916    0.00157     0.40073
      H   23    0.10934      0.00000     0.38929    0.00137     0.39066
      H   24    0.10182      0.00000     0.39676    0.00142     0.39818
      H   25    0.10316      0.00000     0.39485    0.00198     0.39684
      H   26    0.10339      0.00000     0.39471    0.00190     0.39661
      H   27    0.23473      0.00000     0.25804    0.00724     0.26527
      H   28    0.08359      0.00000     0.41516    0.00125     0.41641
      H   29    0.07782      0.00000     0.42054    0.00164     0.42218
      H   30    0.23501      0.00000     0.26166    0.00333     0.26499
 =======================================================================
   * Total *   -0.00000     11.99570    35.84553    0.15877    48.00000

 Normal termination of Gaussian 16 at Wed Dec  9 17:18:41 2020.
