 Gaussian 16, Revision A.03,

 -----------------------------------------------------------
 # opt freq B3LYP/6-31G(d) empiricaldispersion=gd3bj scf=xqc
 -----------------------------------------------------------

 -------------------------------
 CID_151428473_JID_1621_neutraal
 -------------------------------
 Symbolic Z-matrix:
 Charge =  0 Multiplicity = 1

 SCF Done:  E(RB3LYP) =  -599.123499813     A.U. after   16 cycles
 SCF Done:  E(RB3LYP) =  -599.134686284     A.U. after   15 cycles
 SCF Done:  E(RB3LYP) =  -599.140772892     A.U. after   14 cycles
 SCF Done:  E(RB3LYP) =  -599.144540590     A.U. after   14 cycles
 SCF Done:  E(RB3LYP) =  -599.146965896     A.U. after   14 cycles
 SCF Done:  E(RB3LYP) =  -599.149225167     A.U. after   16 cycles
 SCF Done:  E(RB3LYP) =  -599.150685504     A.U. after   16 cycles
 SCF Done:  E(RB3LYP) =  -599.151408696     A.U. after   15 cycles
 SCF Done:  E(RB3LYP) =  -599.151712332     A.U. after   13 cycles
 SCF Done:  E(RB3LYP) =  -599.151920421     A.U. after   13 cycles
 SCF Done:  E(RB3LYP) =  -599.154934808     A.U. after    8 cycles
 SCF Done:  E(RB3LYP) =  -599.154932629     A.U. after    9 cycles
 SCF Done:  E(RB3LYP) =  -599.154935119     A.U. after   12 cycles
 SCF Done:  E(RB3LYP) =  -599.154935933     A.U. after    9 cycles
 SCF Done:  E(RB3LYP) =  -599.154935971     A.U. after    8 cycles
 SCF Done:  E(RB3LYP) =  -599.154935970     A.U. after    7 cycles
 Optimization completed.
    -- Stationary point found.
 Normal termination of Gaussian 16 at Mon Dec 14 16:41:40 2020.

 --------------------------------------------------------------------
 #N Geom=AllCheck Guess=TCheck SCRF=Check GenChk RB3LYP/6-31G(d) Freq
 --------------------------------------------------------------------

 Structure from the checkpoint file:  "JID_1621.chk"
 -------------------------------
 CID_151428473_JID_1621_neutraal
 -------------------------------
 Charge =  0 Multiplicity = 1

 SCF Done:  E(RB3LYP) =  -599.154935970     A.U. after    1 cycles

  Exact polarizability: 100.398  10.458  87.224  -2.295  -1.213  61.163
 Approx polarizability: 140.774  34.751 149.884  -5.776  -2.026  92.566

                      1                      2                      3
                      A                      A                      A
 Frequencies --     31.9123                37.5511                79.4215
 Red. masses --      4.9830                 6.8399                 6.1608
 Frc consts  --      0.0030                 0.0057                 0.0229
 IR Inten    --      1.0656                 0.3265                 2.1592

                      4                      5                      6
                      A                      A                      A
 Frequencies --     82.9921               145.5250               201.1256
 Red. masses --      4.8694                 7.2755                 3.6134
 Frc consts  --      0.0198                 0.0908                 0.0861
 IR Inten    --      1.3346                 0.2681                 6.7139

                      7                      8                      9
                      A                      A                      A
 Frequencies --    216.7362               254.3213               263.1259
 Red. masses --      2.1390                 1.7249                 4.0649
 Frc consts  --      0.0592                 0.0657                 0.1658
 IR Inten    --     24.8284                63.4326                 3.1989

                     10                     11                     12
                      A                      A                      A
 Frequencies --    320.4689               330.9550               340.4260
 Red. masses --      1.3530                 1.6774                 2.1637
 Frc consts  --      0.0819                 0.1083                 0.1477
 IR Inten    --     63.5686                76.6137                51.3620

                     13                     14                     15
                      A                      A                      A
 Frequencies --    419.5830               429.3703               504.2323
 Red. masses --      1.4959                 4.2016                 4.2786
 Frc consts  --      0.1552                 0.4564                 0.6409
 IR Inten    --     28.7801                12.9421                 9.8334

                     16                     17                     18
                      A                      A                      A
 Frequencies --    528.7719               552.2488               569.3476
 Red. masses --      4.7932                 5.4816                 2.5998
 Frc consts  --      0.7896                 0.9850                 0.4965
 IR Inten    --     32.0705                 5.7462                 9.0978

                     19                     20                     21
                      A                      A                      A
 Frequencies --    639.4632               665.2691               746.9841
 Red. masses --      2.4617                 4.1350                 2.3920
 Frc consts  --      0.5931                 1.0783                 0.7864
 IR Inten    --     25.4616               100.0353                46.3752

                     22                     23                     24
                      A                      A                      A
 Frequencies --    766.5266               810.6573               861.6464
 Red. masses --      2.0835                 2.2839                 2.6846
 Frc consts  --      0.7213                 0.8843                 1.1743
 IR Inten    --    301.9349                20.2588                16.0175

                     25                     26                     27
                      A                      A                      A
 Frequencies --    902.3362               966.3866              1021.1014
 Red. masses --      2.7019                 4.3213                 4.5563
 Frc consts  --      1.2961                 2.3778                 2.7990
 IR Inten    --      7.1684                17.5798                95.4712

                     28                     29                     30
                      A                      A                      A
 Frequencies --   1041.9151              1081.6349              1111.4229
 Red. masses --      1.9805                 2.6436                 2.1175
 Frc consts  --      1.2668                 1.8222                 1.5411
 IR Inten    --    105.5121                18.9323                58.8552

                     31                     32                     33
                      A                      A                      A
 Frequencies --   1151.4376              1180.9658              1182.7246
 Red. masses --      3.4214                 1.3593                 2.7233
 Frc consts  --      2.6726                 1.1170                 2.2445
 IR Inten    --     23.6932                46.1062               200.7201

                     34                     35                     36
                      A                      A                      A
 Frequencies --   1226.5344              1287.8461              1311.0002
 Red. masses --      1.3763                 5.9156                 1.1995
 Frc consts  --      1.2199                 5.7806                 1.2147
 IR Inten    --     23.1690                83.9592                 5.6635

                     37                     38                     39
                      A                      A                      A
 Frequencies --   1346.5141              1397.9810              1404.4023
 Red. masses --      1.4484                 1.2679                 1.3110
 Frc consts  --      1.5473                 1.4600                 1.5235
 IR Inten    --      0.5722                 7.2902                18.1800

                     40                     41                     42
                      A                      A                      A
 Frequencies --   1424.9119              1439.6883              1449.4324
 Red. masses --      1.2372                 1.3956                 1.2139
 Frc consts  --      1.4800                 1.7043                 1.5026
 IR Inten    --     26.6361                51.2743                83.0832

                     43                     44                     45
                      A                      A                      A
 Frequencies --   1488.7092              1528.2758              1539.7040
 Red. masses --      1.0908                 1.1867                 1.0904
 Frc consts  --      1.4244                 1.6331                 1.5230
 IR Inten    --      0.7182                10.4678                 4.0697

                     46                     47                     48
                      A                      A                      A
 Frequencies --   1674.9914              2246.2822              3025.6430
 Red. masses --      1.1092                13.9402                 1.0711
 Frc consts  --      1.8335                41.4426                 5.7770
 IR Inten    --     33.0684               519.3053                45.6387

                     49                     50                     51
                      A                      A                      A
 Frequencies --   3041.0033              3112.9728              3129.8225
 Red. masses --      1.0686                 1.0949                 1.0963
 Frc consts  --      5.8222                 6.2512                 6.3274
 IR Inten    --     56.7880                13.2907                33.0769

                     52                     53                     54
                      A                      A                      A
 Frequencies --   3170.3244              3432.3611              3499.9762
 Red. masses --      1.0881                 1.0719                 1.0478
 Frc consts  --      6.4434                 7.4406                 7.5621
 IR Inten    --     15.2182                13.2435                 2.6433

                     55                     56                     57
                      A                      A                      A
 Frequencies --   3608.3020              3707.1299              3738.9762
 Red. masses --      1.0960                 1.0644                 1.0663
 Frc consts  --      8.4076                 8.6185                 8.7830
 IR Inten    --      7.4678                37.2004                16.9722

 - Thermochemistry -
 -------------------
 Temperature   298.150 Kelvin.  Pressure   1.00000 Atm.
 Atom     1 has atomic number  6 and mass  12.00000

 Molecular mass:   162.08652 amu.
 Principal axes and moments of inertia in atomic units:
                           1         2         3
     Eigenvalues --  1280.312452189.484703034.07607
           X            0.99838  -0.05676   0.00287
           Y            0.05680   0.99818  -0.02032
           Z           -0.00171   0.02045   0.99979
 This molecule is an asymmetric top.
 Rotational symmetry number  1.
 Warning -- assumption of classical behavior for rotation
           may cause significant error
 Rotational temperatures (Kelvin)      0.06765     0.03956     0.02855
 Rotational constants (GHZ):           1.40961     0.82428     0.59482
 Zero-point vibrational energy     440652.7 (Joules/Mol)
                                  105.31851 (Kcal/Mol)
 Warning -- explicit consideration of  18 degrees of freedom as
           vibrations may cause significant error
 Vibrational temperatures:     45.91    54.03   114.27   119.41   209.38
          (Kelvin)            289.37   311.84   365.91   378.58   461.08
                              476.17   489.80   603.69   617.77   725.48
                              760.78   794.56   819.16   920.04   957.17
                             1074.74  1102.86  1166.36  1239.72  1298.26
                             1390.41  1469.14  1499.08  1556.23  1599.09
                             1656.66  1699.15  1701.68  1764.71  1852.92
                             1886.24  1937.33  2011.38  2020.62  2050.13
                             2071.39  2085.41  2141.92  2198.85  2215.29
                             2409.94  3231.90  4353.23  4375.33  4478.87
                             4503.12  4561.39  4938.40  5035.69  5191.54
                             5333.73  5379.55

 Zero-point correction=                           0.167836 (Hartree/Particle)
 Thermal correction to Energy=                    0.180106
 Thermal correction to Enthalpy=                  0.181050
 Thermal correction to Gibbs Free Energy=         0.128317
 Sum of electronic and zero-point Energies=           -598.987100
 Sum of electronic and thermal Energies=              -598.974830
 Sum of electronic and thermal Enthalpies=            -598.973886
 Sum of electronic and thermal Free Energies=         -599.026618

                     E (Thermal)             CV                S
                      KCal/Mol        Cal/Mol-Kelvin    Cal/Mol-Kelvin
 Total                  113.018             43.925            110.984
 Electronic               0.000              0.000              0.000
 Translational            0.889              2.981             41.158
 Rotational               0.889              2.981             30.521
 Vibrational            111.240             37.964             39.306
 Vibration     1          0.594              1.983              5.707
 Vibration     2          0.594              1.982              5.384
 Vibration     3          0.600              1.963              3.905
 Vibration     4          0.600              1.961              3.819
 Vibration     5          0.617              1.908              2.730
 Vibration     6          0.638              1.838              2.123
 Vibration     7          0.646              1.816              1.986
 Vibration     8          0.665              1.755              1.700
 Vibration     9          0.670              1.740              1.641
 Vibration    10          0.706              1.634              1.308
 Vibration    11          0.713              1.614              1.255
 Vibration    12          0.720              1.595              1.210
 Vibration    13          0.782              1.428              0.893
 Vibration    14          0.791              1.406              0.861
 Vibration    15          0.860              1.241              0.648
 Vibration    16          0.884              1.186              0.590
 Vibration    17          0.908              1.135              0.540
 Vibration    18          0.925              1.098              0.505

 Optimization completed.
    -- Stationary point found.
 Normal termination of Gaussian 16 at Mon Dec 14 16:45:27 2020.

 ----------------------------------------------------------------------
 # B3LYP/6-311++G(d,p) empiricaldispersion=gd3bj scf=xqc pop=npa geom=c
 heck
 ----------------------------------------------------------------------

 ---------------------------------------
 CID_151428473_JID_1621_Energie_neutraal
 ---------------------------------------
 Structure from the checkpoint file:  "JID_1621.chk"
 Charge =  0 Multiplicity = 1

 SCF Done:  E(RB3LYP) =  -599.359998656     A.U. after   17 cycles
 Normal termination of Gaussian 16 at Mon Dec 14 16:46:52 2020.

 ----------------------------------------------------------------------
 # B3LYP/6-311++G(d,p) empiricaldispersion=gd3bj scf=xqc pop=npa geom=c
 heck
 ----------------------------------------------------------------------

 -------------------------------------
 CID_151428473_JID_1621_Energie_kation
 -------------------------------------
 Structure from the checkpoint file:  "JID_1621.chk"
 Charge =  1 Multiplicity = 2

 SCF Done:  E(UB3LYP) =  -599.039866855     A.U. after   30 cycles
 Normal termination of Gaussian 16 at Mon Dec 14 16:50:08 2020.
 Gaussian 16:  ES64L-G16RevA.03 25-Dec-2016

 ----------------------------------------------------------------------
 # B3LYP/6-311++G(d,p) empiricaldispersion=gd3bj scf=xqc pop=npa geom=c
 heck
 ----------------------------------------------------------------------

 ------------------------------------
 CID_151428473_JID_1621_Energie_anion
 ------------------------------------
 Structure from the checkpoint file:  "JID_1621.chk"
 Charge = -1 Multiplicity = 2

                         Standard orientation:
 ---------------------------------------------------------------------
 Center     Atomic      Atomic             Coordinates (Angstroms)
 Number     Number       Type             X           Y           Z
 ---------------------------------------------------------------------
      1          6           0        1.211482   -1.685723    0.176748
      2          6           0        2.432860   -0.915339    0.690787
      3          8           0        2.990781   -0.074771   -0.323069
      4          7           0        0.225169   -0.880692   -0.533908
      5          7           0       -0.462827    0.022296    0.305332
      6          6           0        0.068603    1.442279    0.261534
      7          7           0        0.291970    1.977357   -1.056568
      8          8           0       -0.776023    2.229244    1.035972
      9          7           0       -1.839430    0.176353   -0.235100
     10          7           0       -2.478501   -0.874657   -0.091260
     11          7           0       -3.126096   -1.812314   -0.039680
     12          1           0        0.709482   -2.189804    1.008533
     13          1           0        1.538877   -2.460683   -0.530554
     14          1           0        2.144906   -0.245625    1.504902
     15          1           0        3.183803   -1.613593    1.088896
     16          1           0        3.436079   -0.645077   -0.969110
     17          1           0        0.659729   -0.380105   -1.311999
     18          1           0        1.030469    1.406042    0.770880
     19          1           0        1.174605    1.662267   -1.446868
     20          1           0       -0.476249    1.784590   -1.695162
     21          1           0       -1.669427    2.140503    0.661137
 ---------------------------------------------------------------------

 SCF Done:  E(UB3LYP) =  -599.361472600     A.U. after   28 cycles

 The electronic state is 2-A.
 Alpha  occ. eigenvalues --  -19.01724 -19.01380 -14.31543 -14.24674 -14.23586
 Alpha  occ. eigenvalues --  -14.22868 -14.21208 -14.18987 -10.16227 -10.10814
 Alpha  occ. eigenvalues --  -10.08494  -0.99741  -0.94190  -0.91728  -0.88437
 Alpha  occ. eigenvalues --   -0.81290  -0.77101  -0.68430  -0.60718  -0.54172
 Alpha  occ. eigenvalues --   -0.51100  -0.44805  -0.42299  -0.40746  -0.39947
 Alpha  occ. eigenvalues --   -0.39266  -0.36627  -0.35774  -0.34407  -0.33611
 Alpha  occ. eigenvalues --   -0.32257  -0.31495  -0.29870  -0.26646  -0.25160
 Alpha  occ. eigenvalues --   -0.23347  -0.22687  -0.20184  -0.18296  -0.17438
 Alpha  occ. eigenvalues --   -0.14539  -0.12580  -0.10047   0.04443
 Alpha virt. eigenvalues --    0.06260   0.08529   0.09591   0.10258   0.11327
 Alpha virt. eigenvalues --    0.11683   0.12992   0.13539   0.14424   0.14993
 Alpha virt. eigenvalues --    0.15789   0.16978   0.17374   0.17995   0.18618

  Beta  occ. eigenvalues --  -19.01657 -19.01370 -14.31205 -14.24518 -14.23653
  Beta  occ. eigenvalues --  -14.22367 -14.21199 -14.18969 -10.16214 -10.10793
  Beta  occ. eigenvalues --  -10.08471  -0.99103  -0.94100  -0.91590  -0.88209
  Beta  occ. eigenvalues --   -0.81023  -0.77054  -0.68202  -0.60621  -0.54016
  Beta  occ. eigenvalues --   -0.50970  -0.44687  -0.42009  -0.40595  -0.39806
  Beta  occ. eigenvalues --   -0.39187  -0.36190  -0.35122  -0.33815  -0.33505
  Beta  occ. eigenvalues --   -0.32138  -0.30848  -0.29386  -0.26511  -0.25101
  Beta  occ. eigenvalues --   -0.23227  -0.22045  -0.20099  -0.18232  -0.17129
  Beta  occ. eigenvalues --   -0.14457  -0.12457  -0.09903
  Beta virt. eigenvalues --    0.07808   0.08834   0.09782   0.10301   0.10691
  Beta virt. eigenvalues --    0.11571   0.11918   0.13192   0.13745   0.14689
  Beta virt. eigenvalues --    0.15264   0.15976   0.16957   0.17881   0.18068

 Mulliken charges and spin densities:
               1          2
     1  C   -0.018496  -0.360692
     2  C    0.459608  -0.793969
     3  O   -0.246742  -0.044826
     4  N   -0.298037   0.113316
     5  N    0.274359  -0.004720
     6  C    0.103824  -0.461454
     7  N   -0.447258   0.049969
     8  O   -0.259252  -0.000506
     9  N   -1.624501  -0.061254
    10  N    0.923676   0.151557
    11  N    0.114333   0.312900
    12  H    0.202474  -0.076971
    13  H   -0.445291   0.652974
    14  H    0.114317   0.025222
    15  H   -0.381263   0.527478
    16  H   -0.297563   0.573568
    17  H    0.017330   0.160824
    18  H    0.257998  -0.007489
    19  H    0.186862   0.078023
    20  H    0.144029   0.119685
    21  H    0.219592   0.046365
 Sum of Mulliken charges =  -1.00000   1.00000

 Dipole moment (field-independent basis, Debye):
    X=             -2.1789    Y=              2.3000    Z=              1.8398  Tot=              3.6636
 Quadrupole moment (field-independent basis, Debye-Ang):
   XX=           -120.5605   YY=           -101.1528   ZZ=            -82.4964
   XY=             -1.1260   XZ=              8.2602   YZ=             -5.8545

 Summary of Natural Population Analysis:

                                       Natural Population
                Natural  -----------------------------------------------
    Atom  No    Charge         Core      Valence    Rydberg      Total
 -----------------------------------------------------------------------
      C    1   -0.10422      0.99962     2.09022    0.01437     3.10422
      C    2   -0.02166      0.99960     2.00891    0.01315     3.02166
      O    3   -0.37924      0.99990     3.37082    0.00852     4.37924
      N    4   -0.25143      0.99973     2.73547    0.01623     3.75143
      N    5   -0.10401      0.99973     2.58937    0.01490     3.60401
      C    6    0.22466      0.99966     1.75402    0.02166     2.77534
      N    7   -0.43731      0.99974     2.92798    0.00959     3.93731
      O    8   -0.36456      0.99988     3.35882    0.00586     4.36456
      N    9   -0.17932      0.99972     2.66379    0.01581     3.67932
      N   10    0.14311      0.99972     2.34115    0.01602     3.35689
      N   11    0.01772      0.99982     2.46905    0.01340     3.48228
      H   12    0.09851      0.00000     0.40011    0.00138     0.40149
      H   13    0.09566      0.00000     0.40254    0.00180     0.40434
      H   14    0.08286      0.00000     0.41558    0.00156     0.41714
      H   15    0.08021      0.00000     0.41828    0.00151     0.41979
      H   16    0.23630      0.00000     0.23976    0.02393     0.26370
      H   17    0.16899      0.00000     0.32696    0.00406     0.33101
      H   18    0.08843      0.00000     0.40962    0.00195     0.41157
      H   19    0.18708      0.00000     0.31098    0.00194     0.31292
      H   20    0.18141      0.00000     0.31660    0.00199     0.31859
      H   21    0.23679      0.00000     0.26028    0.00293     0.26321
 =======================================================================
   * Total *    0.00000     10.99712    31.81031    0.19256    43.00000

 Normal termination of Gaussian 16 at Mon Dec 14 16:53:11 2020.
