 Gaussian 16, Revision A.03,

 -----------------------------------------------------------
 # opt freq B3LYP/6-31G(d) empiricaldispersion=gd3bj scf=xqc
 -----------------------------------------------------------

 -------------------------------
 CID_153617837_JID_9006_neutraal
 -------------------------------
 Symbolic Z-matrix:
 Charge =  0 Multiplicity = 1

 SCF Done:  E(RB3LYP) =  -849.922829819     A.U. after   14 cycles
 SCF Done:  E(RB3LYP) =  -849.925371780     A.U. after   13 cycles
 SCF Done:  E(RB3LYP) =  -849.923812292     A.U. after   13 cycles
 SCF Done:  E(RB3LYP) =  -849.924642803     A.U. after   12 cycles
 SCF Done:  E(RB3LYP) =  -849.926053020     A.U. after    9 cycles
 SCF Done:  E(RB3LYP) =  -849.926314673     A.U. after   11 cycles
 SCF Done:  E(RB3LYP) =  -849.926243808     A.U. after   11 cycles
 SCF Done:  E(RB3LYP) =  -849.926480072     A.U. after   11 cycles
 SCF Done:  E(RB3LYP) =  -849.926501005     A.U. after   10 cycles
 SCF Done:  E(RB3LYP) =  -849.926511957     A.U. after   10 cycles
 SCF Done:  E(RB3LYP) =  -849.926526126     A.U. after   10 cycles
 SCF Done:  E(RB3LYP) =  -849.926537375     A.U. after   10 cycles
 SCF Done:  E(RB3LYP) =  -849.926539797     A.U. after    9 cycles
 SCF Done:  E(RB3LYP) =  -849.926540508     A.U. after    7 cycles
 SCF Done:  E(RB3LYP) =  -849.926540634     A.U. after    7 cycles
 Optimization completed.
    -- Stationary point found.
 Normal termination of Gaussian 16 at Sat Dec 12 09:23:51 2020.

 --------------------------------------------------------------------
 #N Geom=AllCheck Guess=TCheck SCRF=Check GenChk RB3LYP/6-31G(d) Freq
 --------------------------------------------------------------------

 Structure from the checkpoint file:  "JID_9006.chk"
 -------------------------------
 CID_153617837_JID_9006_neutraal
 -------------------------------
 Charge =  0 Multiplicity = 1

 SCF Done:  E(RB3LYP) =  -849.926540634     A.U. after    1 cycles

  Exact polarizability: 226.301 -14.155 156.473 -18.090 -13.081 142.154
 Approx polarizability: 277.860 -26.340 246.954 -27.782 -28.823 232.969

                      1                      2                      3
                      A                      A                      A
 Frequencies --     15.1824                25.1857                30.4029
 Red. masses --      3.7921                 3.5459                 2.7217
 Frc consts  --      0.0005                 0.0013                 0.0015
 IR Inten    --      0.0339                 0.2122                 0.1339

                      4                      5                      6
                      A                      A                      A
 Frequencies --     50.0091                57.7593                72.8021
 Red. masses --      3.9961                 4.1326                 5.0066
 Frc consts  --      0.0059                 0.0081                 0.0156
 IR Inten    --      0.7085                 0.3280                 1.2000

                      7                      8                      9
                      A                      A                      A
 Frequencies --     75.0852                94.4933               119.3217
 Red. masses --      4.8889                 5.3402                 3.3407
 Frc consts  --      0.0162                 0.0281                 0.0280
 IR Inten    --      2.2465                 0.6237                 1.6377

                     10                     11                     12
                      A                      A                      A
 Frequencies --    148.5472               158.9575               178.7340
 Red. masses --      1.4288                 4.4746                 4.9542
 Frc consts  --      0.0186                 0.0666                 0.0932
 IR Inten    --      1.3694                 1.4971                 0.1047

                     13                     14                     15
                      A                      A                      A
 Frequencies --    184.2243               211.2128               216.4488
 Red. masses --      1.9903                 2.7337                 1.2670
 Frc consts  --      0.0398                 0.0719                 0.0350
 IR Inten    --      1.9292                 7.8475                 0.0365

                     16                     17                     18
                      A                      A                      A
 Frequencies --    251.3616               279.7720               290.7477
 Red. masses --      2.3506                 2.7671                 1.5615
 Frc consts  --      0.0875                 0.1276                 0.0778
 IR Inten    --     21.8547                 2.7632                52.7557

                     19                     20                     21
                      A                      A                      A
 Frequencies --    315.0675               318.6932               347.3546
 Red. masses --      1.9424                 1.7776                 2.4256
 Frc consts  --      0.1136                 0.1064                 0.1724
 IR Inten    --      4.9303                32.9628                 1.3636

                     22                     23                     24
                      A                      A                      A
 Frequencies --    373.5059               388.8628               449.9113
 Red. masses --      3.8102                 2.0562                 2.4541
 Frc consts  --      0.3132                 0.1832                 0.2927
 IR Inten    --      0.1329                 0.4487                 2.5202

                     25                     26                     27
                      A                      A                      A
 Frequencies --    456.3203               467.1904               501.1431
 Red. masses --      2.5547                 2.6813                 3.7304
 Frc consts  --      0.3134                 0.3448                 0.5520
 IR Inten    --      3.2280                 1.6297                 8.6936

                     28                     29                     30
                      A                      A                      A
 Frequencies --    525.2099               550.0573               562.8299
 Red. masses --      3.6154                 2.8733                 4.2186
 Frc consts  --      0.5876                 0.5122                 0.7874
 IR Inten    --      1.4100                 9.9509                 6.4543

                     31                     32                     33
                      A                      A                      A
 Frequencies --    595.0375               621.8382               658.9554
 Red. masses --      3.3470                 2.9798                 1.4871
 Frc consts  --      0.6982                 0.6789                 0.3805
 IR Inten    --     28.9251                12.8128                38.5152

                     34                     35                     36
                      A                      A                      A
 Frequencies --    722.2707               729.4077               746.7633
 Red. masses --      1.8966                 4.1494                 2.7056
 Frc consts  --      0.5830                 1.3007                 0.8889
 IR Inten    --     58.8873                 5.4087                12.6037

                     37                     38                     39
                      A                      A                      A
 Frequencies --    769.4518               778.8395               797.0598
 Red. masses --      2.6754                 2.3592                 1.7475
 Frc consts  --      0.9332                 0.8432                 0.6541
 IR Inten    --     20.7636                11.4492                 0.8401

                     40                     41                     42
                      A                      A                      A
 Frequencies --    804.7797               839.2948               860.4175
 Red. masses --      1.6951                 1.7987                 1.9677
 Frc consts  --      0.6468                 0.7465                 0.8583
 IR Inten    --      2.0989                 8.3243                21.1136

                     43                     44                     45
                      A                      A                      A
 Frequencies --    885.5489               903.3148               925.8438
 Red. masses --      2.2822                 1.3454                 2.7214
 Frc consts  --      1.0544                 0.6468                 1.3744
 IR Inten    --      4.5415                 4.0085                 4.3235

                     46                     47                     48
                      A                      A                      A
 Frequencies --    942.0796               952.7017               960.7667
 Red. masses --      1.9729                 1.8420                 1.6506
 Frc consts  --      1.0316                 0.9850                 0.8977
 IR Inten    --      3.2706                 3.7387                 0.3188

                     49                     50                     51
                      A                      A                      A
 Frequencies --    978.6820               999.3895              1022.5532
 Red. masses --      1.9921                 2.3800                 1.7692
 Frc consts  --      1.1242                 1.4005                 1.0899
 IR Inten    --      9.1047                 0.5159                37.4401

                     52                     53                     54
                      A                      A                      A
 Frequencies --   1031.2676              1073.5343              1083.7336
 Red. masses --      1.5626                 1.5736                 2.4957
 Frc consts  --      0.9791                 1.0685                 1.7270
 IR Inten    --     12.1378                 0.7134                46.6087

                     55                     56                     57
                      A                      A                      A
 Frequencies --   1087.2745              1093.7685              1099.7967
 Red. masses --      2.2240                 1.9032                 1.7384
 Frc consts  --      1.5491                 1.3415                 1.2389
 IR Inten    --      5.5456                 8.4041                16.3250

                     58                     59                     60
                      A                      A                      A
 Frequencies --   1103.5730              1125.5695              1144.6551
 Red. masses --      1.5956                 2.1287                 2.1611
 Frc consts  --      1.1449                 1.5890                 1.6683
 IR Inten    --      5.5912                37.9694                 4.0848

                     61                     62                     63
                      A                      A                      A
 Frequencies --   1182.2903              1197.4871              1200.1277
 Red. masses --      1.5379                 1.9786                 1.3910
 Frc consts  --      1.2666                 1.6717                 1.1804
 IR Inten    --     46.1769               175.5346                 4.4960

                     64                     65                     66
                      A                      A                      A
 Frequencies --   1209.4830              1236.9503              1244.8142
 Red. masses --      1.2768                 1.5338                 1.6993
 Frc consts  --      1.1004                 1.3827                 1.5514
 IR Inten    --     23.5440                 1.5354                 4.3285

                     67                     68                     69
                      A                      A                      A
 Frequencies --   1279.6594              1284.2416              1288.5931
 Red. masses --      2.2206                 1.4004                 1.3612
 Frc consts  --      2.1425                 1.3608                 1.3317
 IR Inten    --      3.7941                 3.6272                 0.0036

                     70                     71                     72
                      A                      A                      A
 Frequencies --   1306.1204              1329.7770              1336.9539
 Red. masses --      1.3648                 1.3417                 1.2664
 Frc consts  --      1.3718                 1.3978                 1.3336
 IR Inten    --      2.0702                 4.6191                 4.1632

                     73                     74                     75
                      A                      A                      A
 Frequencies --   1356.1711              1364.2913              1373.4464
 Red. masses --      1.6691                 2.1204                 1.5515
 Frc consts  --      1.8087                 2.3253                 1.7244
 IR Inten    --      1.7276                 9.3020                 6.3027

                     76                     77                     78
                      A                      A                      A
 Frequencies --   1375.7691              1393.4462              1399.5509
 Red. masses --      1.7723                 1.4300                 1.5770
 Frc consts  --      1.9764                 1.6359                 1.8200
 IR Inten    --     10.1372                 8.8086                 9.6121

                     79                     80                     81
                      A                      A                      A
 Frequencies --   1410.8185              1412.3417              1422.0492
 Red. masses --      1.5152                 1.2098                 1.3880
 Frc consts  --      1.7769                 1.4219                 1.6538
 IR Inten    --      8.7136                31.3626                 3.8499

                     82                     83                     84
                      A                      A                      A
 Frequencies --   1435.4018              1441.0115              1446.7676
 Red. masses --      1.2213                 1.3036                 1.2376
 Frc consts  --      1.4826                 1.5949                 1.5263
 IR Inten    --      1.3833                19.9068                 2.0077

                     85                     86                     87
                      A                      A                      A
 Frequencies --   1464.7543              1512.0730              1516.1600
 Red. masses --      2.7901                 1.0881                 1.0976
 Frc consts  --      3.5269                 1.4657                 1.4866
 IR Inten    --      3.6183                 2.9910                10.9516

                     88                     89                     90
                      A                      A                      A
 Frequencies --   1517.8530              1520.4523              1522.6631
 Red. masses --      1.0682                 1.0717                 1.0711
 Frc consts  --      1.4499                 1.4597                 1.4631
 IR Inten    --      1.1953                 1.4671                 8.4363

                     91                     92                     93
                      A                      A                      A
 Frequencies --   1525.8600              1528.5486              1535.5054
 Red. masses --      1.0418                 1.1480                 1.1205
 Frc consts  --      1.4292                 1.5803                 1.5566
 IR Inten    --      7.1326                 1.7568                11.7619

                     94                     95                     96
                      A                      A                      A
 Frequencies --   1538.4310              1548.1254              1559.1715
 Red. masses --      1.0823                 1.0851                 2.2311
 Frc consts  --      1.5092                 1.5322                 3.1956
 IR Inten    --      2.5543                 7.4979                23.7755

                     97                     98                     99
                      A                      A                      A
 Frequencies --   1632.4636              1675.6095              1831.0356
 Red. masses --      6.3537                 5.8308                 9.5359
 Frc consts  --      9.9762                 9.6455                18.8367
 IR Inten    --      0.7176                 4.3618               256.3457

                    100                    101                    102
                      A                      A                      A
 Frequencies --   3042.8272              3044.9393              3046.5409
 Red. masses --      1.0680                 1.0597                 1.0666
 Frc consts  --      5.8261                 5.7886                 5.8329
 IR Inten    --     15.2664                32.8650                17.5223

                    103                    104                    105
                      A                      A                      A
 Frequencies --   3048.4438              3052.1573              3053.0769
 Red. masses --      1.0346                 1.0727                 1.0389
 Frc consts  --      5.6650                 5.8879                 5.7057
 IR Inten    --     38.4550                 2.6298                29.7005

                    106                    107                    108
                      A                      A                      A
 Frequencies --   3054.2176              3063.5778              3072.7990
 Red. masses --      1.0644                 1.0666                 1.0683
 Frc consts  --      5.8499                 5.8980                 5.9429
 IR Inten    --     23.3442                13.2550                11.4685

                    109                    110                    111
                      A                      A                      A
 Frequencies --   3079.4913              3087.4965              3096.6623
 Red. masses --      1.1039                 1.0972                 1.0981
 Frc consts  --      6.1677                 6.1622                 6.2039
 IR Inten    --      9.4500                10.8055                69.0416

                    112                    113                    114
                      A                      A                      A
 Frequencies --   3101.4349              3105.6281              3109.9642
 Red. masses --      1.0981                 1.1047                 1.0989
 Frc consts  --      6.2231                 6.2777                 6.2619
 IR Inten    --     62.1860                43.7492                 4.5149

                    115                    116                    117
                      A                      A                      A
 Frequencies --   3118.7853              3122.8833              3127.5928
 Red. masses --      1.1028                 1.1035                 1.1005
 Frc consts  --      6.3201                 6.3405                 6.3426
 IR Inten    --     51.3025                32.6717                19.5942

                    118                    119                    120
                      A                      A                      A
 Frequencies --   3134.5030              3164.4124              3165.7157
 Red. masses --      1.0948                 1.0872                 1.0888
 Frc consts  --      6.3378                 6.4142                 6.4289
 IR Inten    --     16.3390                32.2129                10.6410

                    121                    122                    123
                      A                      A                      A
 Frequencies --   3185.6643              3676.2957              3757.1398
 Red. masses --      1.0940                 1.0639                 1.0663
 Frc consts  --      6.5416                 8.4719                 8.8680
 IR Inten    --     21.3343                52.2006                 6.5877

 - Thermochemistry -
 -------------------
 Temperature   298.150 Kelvin.  Pressure   1.00000 Atm.
 Atom     1 has atomic number  6 and mass  12.00000

 Molecular mass:   264.17254 amu.
 Principal axes and moments of inertia in atomic units:
                           1         2         3
     Eigenvalues --  2545.75239********************
           X            0.99999   0.00219  -0.00426
           Y           -0.00231   0.99956  -0.02952
           Z            0.00419   0.02953   0.99956
 This molecule is an asymmetric top.
 Rotational symmetry number  1.
 Warning -- assumption of classical behavior for rotation
           may cause significant error
 Rotational temperatures (Kelvin)      0.03402     0.00781     0.00721
 Rotational constants (GHZ):           0.70892     0.16269     0.15020
 Zero-point vibrational energy     992440.4 (Joules/Mol)
                                  237.19895 (Kcal/Mol)
 Warning -- explicit consideration of  31 degrees of freedom as
           vibrations may cause significant error
 Vibrational temperatures:     21.84    36.24    43.74    71.95    83.10
          (Kelvin)            104.75   108.03   135.95   171.68   213.73
                              228.70   257.16   265.06   303.89   311.42
                              361.65   402.53   418.32   453.31   458.53
                              499.77   537.39   559.49   647.32   656.54
                              672.18   721.03   755.66   791.41   809.79
                              856.13   894.69   948.09  1039.19  1049.45
                             1074.43  1107.07  1120.58  1146.79  1157.90
                             1207.56  1237.95  1274.11  1299.67  1332.08
                             1355.44  1370.73  1382.33  1408.11  1437.90
                             1471.23  1483.76  1544.58  1559.25  1564.35
                             1573.69  1582.36  1587.80  1619.44  1646.90
                             1701.05  1722.92  1726.72  1740.18  1779.70
                             1791.01  1841.14  1847.74  1854.00  1879.22
                             1913.25  1923.58  1951.23  1962.91  1976.08
                             1979.42  2004.86  2013.64  2029.85  2032.04
                             2046.01  2065.22  2073.29  2081.58  2107.45
                             2175.54  2181.42  2183.85  2187.59  2190.77
                             2195.37  2199.24  2209.25  2213.46  2227.41
                             2243.30  2348.75  2410.83  2634.45  4377.95
                             4380.99  4383.29  4386.03  4391.37  4392.70
                             4394.34  4407.81  4421.07  4430.70  4442.22
                             4455.41  4462.27  4468.31  4474.54  4487.24
                             4493.13  4499.91  4509.85  4552.88  4554.76
                             4583.46  5289.37  5405.69

 Zero-point correction=                           0.378001 (Hartree/Particle)
 Thermal correction to Energy=                    0.398611
 Thermal correction to Enthalpy=                  0.399555
 Thermal correction to Gibbs Free Energy=         0.325977
 Sum of electronic and zero-point Energies=           -849.548540
 Sum of electronic and thermal Energies=              -849.527929
 Sum of electronic and thermal Enthalpies=            -849.526985
 Sum of electronic and thermal Free Energies=         -849.600564

                     E (Thermal)             CV                S
                      KCal/Mol        Cal/Mol-Kelvin    Cal/Mol-Kelvin
 Total                  250.132             76.457            154.860
 Electronic               0.000              0.000              0.000
 Translational            0.889              2.981             42.614
 Rotational               0.889              2.981             34.183
 Vibrational            248.355             70.495             78.063
 Vibration     1          0.593              1.986              7.182
 Vibration     2          0.593              1.985              6.177
 Vibration     3          0.594              1.984              5.803
 Vibration     4          0.595              1.978              4.817
 Vibration     5          0.596              1.974              4.532
 Vibration     6          0.599              1.967              4.076
 Vibration     7          0.599              1.966              4.015
 Vibration     8          0.603              1.953              3.565
 Vibration     9          0.609              1.933              3.111
 Vibration    10          0.618              1.904              2.691
 Vibration    11          0.621              1.893              2.562
 Vibration    12          0.629              1.868              2.342
 Vibration    13          0.631              1.861              2.285
 Vibration    14          0.643              1.824              2.033
 Vibration    15          0.645              1.816              1.989
 Vibration    16          0.663              1.760              1.721
 Vibration    17          0.680              1.711              1.535
 Vibration    18          0.687              1.691              1.470
 Vibration    19          0.702              1.645              1.336
 Vibration    20          0.705              1.638              1.317
 Vibration    21          0.725              1.581              1.178
 Vibration    22          0.745              1.526              1.065
 Vibration    23          0.757              1.494              1.005
 Vibration    24          0.809              1.361              0.796
 Vibration    25          0.815              1.347              0.777
 Vibration    26          0.824              1.323              0.745
 Vibration    27          0.857              1.247              0.655
 Vibration    28          0.880              1.194              0.598
 Vibration    29          0.905              1.140              0.544
 Vibration    30          0.919              1.112              0.518
 Vibration    31          0.953              1.042              0.458

                           ! Non-Optimized Parameters !
 Normal termination of Gaussian 16 at Sat Dec 12 09:45:14 2020.

 ----------------------------------------------------------------------
 # B3LYP/6-311++G(d,p) empiricaldispersion=gd3bj scf=xqc pop=npa geom=c
 heck
 ----------------------------------------------------------------------

 ---------------------------------------
 CID_153617837_JID_9006_Energie_neutraal
 ---------------------------------------
 Structure from the checkpoint file:  "JID_9006.chk"
 Charge =  0 Multiplicity = 1

 SCF Done:  E(RB3LYP) =  -850.179499966     A.U. after   15 cycles
 Normal termination of Gaussian 16 at Sat Dec 12 09:54:10 2020.

 ----------------------------------------------------------------------
 # B3LYP/6-311++G(d,p) empiricaldispersion=gd3bj scf=xqc pop=npa geom=c
 heck
 ----------------------------------------------------------------------

 -------------------------------------
 CID_153617837_JID_9006_Energie_kation
 -------------------------------------
 Structure from the checkpoint file:  "JID_9006.chk"
 Charge =  1 Multiplicity = 2

 SCF Done:  E(UB3LYP) =  -849.877370148     A.U. after   29 cycles
 Normal termination of Gaussian 16 at Sat Dec 12 10:18:24 2020.
 Gaussian 16:  ES64L-G16RevA.03 25-Dec-2016

 ----------------------------------------------------------------------
 # B3LYP/6-311++G(d,p) empiricaldispersion=gd3bj scf=xqc pop=npa geom=c
 heck
 ----------------------------------------------------------------------

 ------------------------------------
 CID_153617837_JID_9006_Energie_anion
 ------------------------------------
 Structure from the checkpoint file:  "JID_9006.chk"
 Charge = -1 Multiplicity = 2

                         Standard orientation:
 ---------------------------------------------------------------------
 Center     Atomic      Atomic             Coordinates (Angstroms)
 Number     Number       Type             X           Y           Z
 ---------------------------------------------------------------------
      1          6           0        6.299877   -0.085170   -0.139678
      2          6           0        5.181348   -0.680106   -1.010988
      3          6           0        3.807666   -0.260116   -0.541892
      4          6           0        3.112446   -1.011155    0.408478
      5          6           0        1.858987   -0.631606    0.904737
      6          6           0        1.271334    0.556314    0.427987
      7          6           0        1.974964    1.317549   -0.514729
      8          6           0        3.217642    0.922387   -0.998406
      9          6           0       -0.090277    1.052430    0.875387
     10          6           0       -1.133857    0.979893   -0.261820
     11          6           0       -1.509045   -0.464999   -0.673479
     12          6           0       -2.259163   -1.318549    0.364476
     13          6           0       -3.735377   -0.973933    0.626272
     14          6           0       -4.623161   -1.003348   -0.620735
     15          8           0       -4.582508   -2.262272   -1.293042
     16          6           0       -2.383408    1.807561   -0.027846
     17          8           0       -3.207011    2.054856   -0.883500
     18          8           0       -2.517026    2.258492    1.245450
     19          6           0        1.187355   -1.508712    1.936350
     20          1           0        6.262745    1.009719   -0.154096
     21          1           0        7.287619   -0.399400   -0.495492
     22          1           0        6.192386   -0.406447    0.902235
     23          1           0        5.256472   -1.774468   -0.999777
     24          1           0        5.327110   -0.365921   -2.051991
     25          1           0        3.562059   -1.929984    0.780635
     26          1           0        1.535429    2.245386   -0.875591
     27          1           0        3.735134    1.536651   -1.731670
     28          1           0       -0.451280    0.502653    1.747015
     29          1           0       -0.001022    2.096507    1.194483
     30          1           0       -0.685904    1.433127   -1.155026
     31          1           0       -2.089906   -0.405533   -1.601059
     32          1           0       -0.568600   -0.967126   -0.928189
     33          1           0       -2.214237   -2.363044    0.029121
     34          1           0       -1.723883   -1.295060    1.319779
     35          1           0       -4.125158   -1.705706    1.344951
     36          1           0       -3.826748    0.007726    1.105105
     37          1           0       -5.668083   -0.859774   -0.327425
     38          1           0       -4.362509   -0.180958   -1.299734
     39          1           0       -3.740373   -2.309649   -1.769273
     40          1           0       -3.350217    2.767192    1.258695
     41          1           0        0.289210   -1.994878    1.539492
     42          1           0        1.866538   -2.299036    2.269115
     43          1           0        0.881597   -0.941228    2.822741
 ---------------------------------------------------------------------

 SCF Done:  E(UB3LYP) =  -850.169961199     A.U. after   33 cycles
 SCF Done:  E(UB3LYP) =  -850.169961199     a.u. after    1 cycles

 The electronic state is 2-A.
 Alpha  occ. eigenvalues --  -19.08492 -19.03767 -19.02893 -10.21992 -10.12462
 Alpha  occ. eigenvalues --  -10.10826 -10.09675 -10.09219 -10.09125 -10.09109
 Alpha  occ. eigenvalues --  -10.08880 -10.08673 -10.08514 -10.08498 -10.08297
 Alpha  occ. eigenvalues --  -10.08288 -10.08105 -10.07909 -10.07686  -1.02536
 Alpha  occ. eigenvalues --   -0.93695  -0.93492  -0.78038  -0.74290  -0.71168
 Alpha  occ. eigenvalues --   -0.69218  -0.67896  -0.64995  -0.62410  -0.60433
 Alpha  occ. eigenvalues --   -0.58194  -0.56499  -0.53442  -0.51748  -0.50958
 Alpha  occ. eigenvalues --   -0.47693  -0.47115  -0.42929  -0.41810  -0.40838
 Alpha  occ. eigenvalues --   -0.40450  -0.39625  -0.39405  -0.37047  -0.36391
 Alpha  occ. eigenvalues --   -0.35377  -0.34894  -0.34548  -0.34057  -0.33373
 Alpha  occ. eigenvalues --   -0.32919  -0.32345  -0.31837  -0.30855  -0.30526
 Alpha  occ. eigenvalues --   -0.30017  -0.29394  -0.28910  -0.28105  -0.26505
 Alpha  occ. eigenvalues --   -0.26417  -0.25751  -0.24955  -0.24743  -0.24613
 Alpha  occ. eigenvalues --   -0.24348  -0.23490  -0.22981  -0.19649  -0.19093
 Alpha  occ. eigenvalues --   -0.16220  -0.14958   0.03699
 Alpha virt. eigenvalues --    0.04903   0.05810   0.06330   0.06750   0.07207
 Alpha virt. eigenvalues --    0.07495   0.07656   0.07877   0.08163   0.08603
 Alpha virt. eigenvalues --    0.09225   0.09456   0.09792   0.10389   0.10769

  Beta  occ. eigenvalues --  -19.08442 -19.03752 -19.02877 -10.21975 -10.12456
  Beta  occ. eigenvalues --  -10.10817 -10.09678 -10.09207 -10.09113 -10.09108
  Beta  occ. eigenvalues --  -10.08869 -10.08657 -10.08508 -10.08485 -10.08287
  Beta  occ. eigenvalues --  -10.08270 -10.08086 -10.07896 -10.07660  -1.02462
  Beta  occ. eigenvalues --   -0.93660  -0.93435  -0.78020  -0.74262  -0.71143
  Beta  occ. eigenvalues --   -0.69191  -0.67873  -0.64962  -0.62374  -0.60395
  Beta  occ. eigenvalues --   -0.58155  -0.56439  -0.53384  -0.51701  -0.50910
  Beta  occ. eigenvalues --   -0.47651  -0.47069  -0.42902  -0.41779  -0.40797
  Beta  occ. eigenvalues --   -0.40416  -0.39588  -0.39379  -0.37007  -0.36351
  Beta  occ. eigenvalues --   -0.35351  -0.34867  -0.34504  -0.34027  -0.33346
  Beta  occ. eigenvalues --   -0.32890  -0.32321  -0.31812  -0.30822  -0.30497
  Beta  occ. eigenvalues --   -0.29989  -0.29369  -0.28883  -0.28073  -0.26483
  Beta  occ. eigenvalues --   -0.26393  -0.25724  -0.24925  -0.24711  -0.24582
  Beta  occ. eigenvalues --   -0.24322  -0.23471  -0.22950  -0.19592  -0.19069
  Beta  occ. eigenvalues --   -0.16190  -0.14917
  Beta virt. eigenvalues --    0.05517   0.05952   0.06309   0.06689   0.07013
  Beta virt. eigenvalues --    0.07358   0.07685   0.08007   0.08088   0.08318
  Beta virt. eigenvalues --    0.08762   0.09519   0.09689   0.09971   0.10452

 Mulliken charges and spin densities:
               1          2
     1  C    0.648206  -1.291165
     2  C   -0.114622  -0.322105
     3  C    0.706482   0.211321
     4  C   -1.029956   0.267894
     5  C   -0.297998   0.401985
     6  C    1.488855  -0.630407
     7  C   -0.482802   0.023341
     8  C   -0.899940   0.288056
     9  C    0.091008  -0.408379
    10  C    0.238175   0.422724
    11  C    0.536371  -0.903058
    12  C   -0.566525  -0.196754
    13  C   -0.406332   0.491250
    14  C   -0.034362  -0.577689
    15  O   -0.240307   0.004797
    16  C    0.098085  -0.724013
    17  O   -0.244081   0.052263
    18  O   -0.127587   0.067508
    19  C    0.141594  -0.934982
    20  H   -0.021545   0.162513
    21  H   -0.238400   0.368234
    22  H   -0.037619   0.179075
    23  H   -0.196625   0.345823
    24  H   -0.156117   0.309204
    25  H   -0.142915   0.319048
    26  H   -0.139642   0.290094
    27  H   -0.214749   0.380529
    28  H    0.144365   0.062612
    29  H    0.138099   0.100657
    30  H    0.163172   0.080121
    31  H    0.115752   0.052092
    32  H    0.115596   0.054031
    33  H    0.051694   0.150968
    34  H    0.092035  -0.021528
    35  H   -0.116242   0.307242
    36  H   -0.003979   0.173434
    37  H    0.090101   0.072720
    38  H    0.141938   0.063302
    39  H    0.132788   0.107399
    40  H   -0.388272   0.675100
    41  H    0.042040   0.130533
    42  H   -0.047805   0.188096
    43  H   -0.027937   0.206112
 Sum of Mulliken charges =  -1.00000   1.00000

 Dipole moment (field-independent basis, Debye):
    X=             -0.7659    Y=             -0.5878    Z=              0.2163  Tot=              0.9894
 Quadrupole moment (field-independent basis, Debye-Ang):
   XX=           -245.8997   YY=           -167.1014   ZZ=           -153.6807
   XY=              8.2836   XZ=              4.7634   YZ=             -3.7311

 Summary of Natural Population Analysis:

                                       Natural Population
                Natural  -----------------------------------------------
    Atom  No    Charge         Core      Valence    Rydberg      Total
 -----------------------------------------------------------------------
      C    1   -0.27842      0.99966     2.27448    0.00428     3.27842
      C    2   -0.19734      0.99961     2.18865    0.00908     3.19734
      C    3   -0.01227      0.99950     2.00274    0.01003     3.01227
      C    4   -0.09657      0.99947     2.08777    0.00934     3.09657
      C    5   -0.01474      0.99947     2.00538    0.00989     3.01474
      C    6   -0.01713      0.99946     2.00792    0.00974     3.01713
      C    7   -0.09490      0.99951     2.08687    0.00852     3.09490
      C    8   -0.10040      0.99950     2.09188    0.00901     3.10040
      C    9   -0.20215      0.99959     2.19189    0.01068     3.20215
      C   10   -0.15042      0.99952     2.13979    0.01110     3.15042
      C   11   -0.19014      0.99960     2.18058    0.00996     3.19014
      C   12   -0.19867      0.99962     2.19066    0.00839     3.19867
      C   13   -0.20436      0.99962     2.19743    0.00731     3.20436
      C   14   -0.01546      0.99959     2.00441    0.01146     3.01546
      O   15   -0.37185      0.99990     3.36516    0.00679     4.37185
      C   16    0.41264      0.99966     1.56071    0.02699     2.58736
      O   17   -0.31168      0.99987     3.30545    0.00636     4.31168
      O   18   -0.34392      0.99988     3.33702    0.00702     4.34392
      C   19   -0.29346      0.99963     2.28894    0.00489     3.29346
      H   20    0.09663      0.00000     0.40201    0.00136     0.40337
      H   21    0.09764      0.00000     0.40088    0.00148     0.40236
      H   22    0.09713      0.00000     0.40159    0.00128     0.40287
      H   23    0.09986      0.00000     0.39881    0.00134     0.40014
      H   24    0.09955      0.00000     0.39910    0.00135     0.40045
      H   25    0.09788      0.00000     0.40100    0.00113     0.40212
      H   26    0.09831      0.00000     0.40041    0.00128     0.40169
      H   27    0.09981      0.00000     0.39918    0.00101     0.40019
      H   28    0.10702      0.00000     0.39142    0.00156     0.39298
      H   29    0.11122      0.00000     0.38749    0.00129     0.38878
      H   30    0.11553      0.00000     0.38264    0.00183     0.38447
      H   31    0.10088      0.00000     0.39788    0.00124     0.39912
      H   32    0.10721      0.00000     0.39157    0.00121     0.39279
      H   33    0.09896      0.00000     0.39961    0.00143     0.40104
      H   34    0.10016      0.00000     0.39824    0.00160     0.39984
      H   35    0.09883      0.00000     0.39998    0.00119     0.40117
      H   36    0.10084      0.00000     0.39741    0.00176     0.39916
      H   37    0.08476      0.00000     0.41406    0.00119     0.41524
      H   38    0.08692      0.00000     0.41171    0.00137     0.41308
      H   39    0.22656      0.00000     0.27054    0.00290     0.27344
      H   40    0.24408      0.00000     0.24383    0.01209     0.25592
      H   41    0.10471      0.00000     0.39397    0.00133     0.39529
      H   42    0.10290      0.00000     0.39619    0.00091     0.39710
      H   43    0.10385      0.00000     0.39507    0.00108     0.39615
 =======================================================================
   * Total *   -0.00000     18.99266    52.78233    0.22501    72.00000

 Normal termination of Gaussian 16 at Sat Dec 12 10:45:59 2020.
