 Gaussian 16, Revision A.03,

 -----------------------------------------------------------
 # opt freq B3LYP/6-31G(d) empiricaldispersion=gd3bj scf=xqc
 -----------------------------------------------------------

 ------------------------------
 CID_139905667_JID_936_neutraal
 ------------------------------
 Symbolic Z-matrix:
 Charge =  0 Multiplicity = 1

 SCF Done:  E(RB3LYP) =  -463.733316636     A.U. after   13 cycles
 SCF Done:  E(RB3LYP) =  -463.735021943     A.U. after   10 cycles
 SCF Done:  E(RB3LYP) =  -463.735117583     A.U. after   10 cycles
 SCF Done:  E(RB3LYP) =  -463.735123326     A.U. after    8 cycles
 Optimization completed.
    -- Stationary point found.

 1\1\GINC-NODE222\FOpt\RB3LYP\6-31G(d)\C8H14O2\VSC10255\08-Dec-2020\0\\
 # opt freq B3LYP/6-31G(d) empiricaldispersion=gd3bj scf=xqc\\CID_13990
 5667_JID_936_neutraal\\0,1\C,2.547963089,0.0109438035,0.1642224019\C,1
 .0757619383,0.0013343813,-0.2444800424\C,0.3265819701,1.2290881281,0.2
 804412674\O,-1.0606403751,1.1553186634,-0.0321933342\C,-1.652350504,-0
 .0197128358,0.4901550384\O,-1.0439611369,-1.1839058155,-0.0372662375\C
 ,0.3441816718,-1.239244109,0.2750860477\C,-3.1060666407,-0.0292204791,
 0.0974117468\C,-4.0494865675,-0.0378814112,1.0396902458\C,-3.383924390

 Normal termination of Gaussian 16 at Tue Dec  8 13:23:57 2020.

 --------------------------------------------------------------------
 #N Geom=AllCheck Guess=TCheck SCRF=Check GenChk RB3LYP/6-31G(d) Freq
 --------------------------------------------------------------------

 Structure from the checkpoint file:  "JID_936.chk"
 ------------------------------
 CID_139905667_JID_936_neutraal
 ------------------------------
 Charge =  0 Multiplicity = 1

 SCF Done:  E(RB3LYP) =  -463.735123326     A.U. after    1 cycles

  Exact polarizability: 112.207   0.003  70.017   7.053   0.005  84.930
 Approx polarizability: 134.055   0.005 101.504  12.356   0.009 128.669

                      1                      2                      3
                      A                      A                      A
 Frequencies --     58.5434                79.6682               166.9860
 Red. masses --      2.7928                 3.4277                 2.3507
 Frc consts  --      0.0056                 0.0128                 0.0386
 IR Inten    --      0.3308                 0.4940                 1.2877

                      4                      5                      6
                      A                      A                      A
 Frequencies --    179.0930               212.8323               214.8318
 Red. masses --      1.2350                 2.7541                 1.0567
 Frc consts  --      0.0233                 0.0735                 0.0287
 IR Inten    --      1.0589                 2.2691                 0.0387

                      7                      8                      9
                      A                      A                      A
 Frequencies --    261.5526               297.6626               307.8868
 Red. masses --      2.5890                 2.6188                 3.1977
 Frc consts  --      0.1044                 0.1367                 0.1786
 IR Inten    --      1.5314                 2.4354                 0.9953

                     10                     11                     12
                      A                      A                      A
 Frequencies --    366.6249               430.7883               469.9960
 Red. masses --      3.6144                 1.7827                 2.6901
 Frc consts  --      0.2862                 0.1949                 0.3501
 IR Inten    --      6.2698                 1.3660                 1.2456

                     13                     14                     15
                      A                      A                      A
 Frequencies --    474.9004               560.1069               606.9169
 Red. masses --      4.9336                 2.9049                 3.6642
 Frc consts  --      0.6556                 0.5369                 0.7952
 IR Inten    --      2.3412                 2.9543                 1.1171

                     16                     17                     18
                      A                      A                      A
 Frequencies --    659.0934               741.0805               856.1863
 Red. masses --      6.1705                 1.1491                 2.6636
 Frc consts  --      1.5793                 0.3718                 1.1504
 IR Inten    --      7.4373                 4.5644                 7.0645

                     19                     20                     21
                      A                      A                      A
 Frequencies --    883.5316               911.8854               937.7725
 Red. masses --      2.2116                 1.4520                 1.3400
 Frc consts  --      1.0172                 0.7114                 0.6943
 IR Inten    --      0.2793                 4.6585                39.1477

                     22                     23                     24
                      A                      A                      A
 Frequencies --    952.2417               974.8811               984.5906
 Red. masses --      1.7293                 1.6987                 1.8662
 Frc consts  --      0.9239                 0.9512                 1.0659
 IR Inten    --      5.7174                 2.7560                12.7809

                     25                     26                     27
                      A                      A                      A
 Frequencies --   1017.3408              1035.3044              1063.8579
 Red. masses --      2.6894                 2.5476                 7.2479
 Frc consts  --      1.6400                 1.6089                 4.8331
 IR Inten    --    105.1212                12.4770                34.0553

                     28                     29                     30
                      A                      A                      A
 Frequencies --   1066.3698              1094.1770              1110.6269
 Red. masses --      1.6662                 1.6246                 2.8082
 Frc consts  --      1.1163                 1.1460                 2.0408
 IR Inten    --      5.9432                 2.0309                75.0887

                     31                     32                     33
                      A                      A                      A
 Frequencies --   1156.9362              1193.0740              1198.3031
 Red. masses --      3.7960                 1.9176                 2.3315
 Frc consts  --      2.9936                 1.6082                 1.9725
 IR Inten    --    221.9741                 2.1605                43.1877

                     34                     35                     36
                      A                      A                      A
 Frequencies --   1271.8657              1319.8102              1332.4734
 Red. masses --      1.2025                 1.1682                 1.9950
 Frc consts  --      1.1460                 1.1989                 2.0869
 IR Inten    --     10.3995                14.7648                 3.1187

                     37                     38                     39
                      A                      A                      A
 Frequencies --   1337.0975              1371.2630              1388.8887
 Red. masses --      1.3328                 1.2292                 1.2806
 Frc consts  --      1.4039                 1.3618                 1.4555
 IR Inten    --      4.7078                 1.1984                 5.4571

                     40                     41                     42
                      A                      A                      A
 Frequencies --   1411.7789              1423.6525              1433.5722
 Red. masses --      1.6308                 1.2744                 1.3641
 Frc consts  --      1.9151                 1.5219                 1.6517
 IR Inten    --     56.8489                 7.0303                 4.2840

                     43                     44                     45
                      A                      A                      A
 Frequencies --   1438.1459              1447.5608              1486.2071
 Red. masses --      1.3565                 1.3104                 1.2231
 Frc consts  --      1.6530                 1.6178                 1.5917
 IR Inten    --      2.2604                26.9790                12.0566

                     46                     47                     48
                      A                      A                      A
 Frequencies --   1502.9527              1519.8810              1528.1288
 Red. masses --      1.0449                 1.0868                 1.0590
 Frc consts  --      1.3907                 1.4792                 1.4571
 IR Inten    --      5.7195                 0.1067                 0.7385

                     49                     50                     51
                      A                      A                      A
 Frequencies --   1529.9475              1531.0782              1533.0931
 Red. masses --      1.0597                 1.0585                 1.0898
 Frc consts  --      1.4615                 1.4619                 1.5092
 IR Inten    --     24.9917                 4.6579                 9.0724

                     52                     53                     54
                      A                      A                      A
 Frequencies --   1753.7264              2948.2710              2966.2291
 Red. masses --      5.2886                 1.0824                 1.0711
 Frc consts  --      9.5833                 5.5433                 5.5526
 IR Inten    --      5.7766                34.8044                18.8209

                     55                     56                     57
                      A                      A                      A
 Frequencies --   2976.3069              3043.5529              3056.0176
 Red. masses --      1.0721                 1.0372                 1.0414
 Frc consts  --      5.5953                 5.6609                 5.7305
 IR Inten    --    104.2177                26.2893                 3.5265

                     58                     59                     60
                      A                      A                      A
 Frequencies --   3056.5754              3105.8845              3108.1937
 Red. masses --      1.0754                 1.0985                 1.0924
 Frc consts  --      5.9195                 6.2432                 6.2177
 IR Inten    --     37.3548                 6.8929                34.9870

                     61                     62                     63
                      A                      A                      A
 Frequencies --   3113.6041              3115.3348              3115.6124
 Red. masses --      1.0963                 1.1002                 1.1021
 Frc consts  --      6.2620                 6.2910                 6.3029
 IR Inten    --     58.1357                 5.3601                43.7655

                     64                     65                     66
                      A                      A                      A
 Frequencies --   3137.9066              3161.4813              3238.6395
 Red. masses --      1.1037                 1.0604                 1.1161
 Frc consts  --      6.4030                 6.2447                 6.8971
 IR Inten    --     24.1293                10.0756                18.1991

 - Thermochemistry -
 -------------------
 Temperature   298.150 Kelvin.  Pressure   1.00000 Atm.
 Atom     1 has atomic number  6 and mass  12.00000

 Molecular mass:   142.09938 amu.
 Principal axes and moments of inertia in atomic units:
                           1         2         3
     Eigenvalues --   577.331222339.187262449.60276
           X            0.99998  -0.00000  -0.00689
           Y            0.00000   1.00000   0.00010
           Z            0.00689  -0.00010   0.99998
 This molecule is an asymmetric top.
 Rotational symmetry number  1.
 Warning -- assumption of classical behavior for rotation
           may cause significant error
 Rotational temperatures (Kelvin)      0.15002     0.03703     0.03536
 Rotational constants (GHZ):           3.12601     0.77152     0.73675
 Zero-point vibrational energy     557641.5 (Joules/Mol)
                                  133.27951 (Kcal/Mol)
 Warning -- explicit consideration of  15 degrees of freedom as
           vibrations may cause significant error
 Vibrational temperatures:     84.23   114.62   240.26   257.67   306.22
          (Kelvin)            309.10   376.32   428.27   442.98   527.49
                              619.81   676.22   683.28   805.87   873.22
                              948.29  1066.25  1231.86  1271.20  1312.00
                             1349.25  1370.06  1402.64  1416.61  1463.73
                             1489.57  1530.65  1534.27  1574.28  1597.94
                             1664.57  1716.57  1724.09  1829.93  1898.91
                             1917.13  1923.79  1972.94  1998.30  2031.24
                             2048.32  2062.59  2069.17  2082.72  2138.32
                             2162.41  2186.77  2198.64  2201.25  2202.88
                             2205.78  2523.22  4241.90  4267.74  4282.24
                             4378.99  4396.93  4397.73  4468.68  4472.00
                             4479.78  4482.27  4482.67  4514.75  4548.67
                             4659.68

 Zero-point correction=                           0.212394 (Hartree/Particle)
 Thermal correction to Energy=                    0.222786
 Thermal correction to Enthalpy=                  0.223731
 Thermal correction to Gibbs Free Energy=         0.176795
 Sum of electronic and zero-point Energies=           -463.522729
 Sum of electronic and thermal Energies=              -463.512337
 Sum of electronic and thermal Enthalpies=            -463.511393
 Sum of electronic and thermal Free Energies=         -463.558328

                     E (Thermal)             CV                S
                      KCal/Mol        Cal/Mol-Kelvin    Cal/Mol-Kelvin
 Total                  139.801             39.304             98.784
 Electronic               0.000              0.000              0.000
 Translational            0.889              2.981             40.765
 Rotational               0.889              2.981             29.582
 Vibrational            138.023             33.343             28.436
 Vibration     1          0.596              1.974              4.506
 Vibration     2          0.600              1.963              3.899
 Vibration     3          0.624              1.883              2.469
 Vibration     4          0.629              1.868              2.338
 Vibration     5          0.644              1.821              2.019
 Vibration     6          0.645              1.818              2.002
 Vibration     7          0.669              1.743              1.651
 Vibration     8          0.691              1.678              1.430
 Vibration     9          0.698              1.659              1.374
 Vibration    10          0.740              1.541              1.094
 Vibration    11          0.792              1.403              0.856
 Vibration    12          0.827              1.317              0.738
 Vibration    13          0.832              1.306              0.724
 Vibration    14          0.916              1.118              0.524
 Vibration    15          0.966              1.017              0.438

 Optimization completed.
    -- Stationary point found.

 1\1\GINC-NODE222\Freq\RB3LYP\6-31G(d)\C8H14O2\VSC10255\08-Dec-2020\0\\
 #N Geom=AllCheck Guess=TCheck SCRF=Check GenChk RB3LYP/6-31G(d) Freq\\
 CID_139905667_JID_936_neutraal\\0,1\C,2.547963089,0.0109438035,0.16422
 24019\C,1.0757619383,0.0013343813,-0.2444800424\C,0.3265819701,1.22908
 81281,0.2804412674\O,-1.0606403751,1.1553186634,-0.0321933342\C,-1.652
 350504,-0.0197128358,0.4901550384\O,-1.0439611369,-1.1839058155,-0.037
 2662375\C,0.3441816718,-1.239244109,0.2750860477\C,-3.1060666407,-0.02
 92204791,0.0974117468\C,-4.0494865675,-0.0378814112,1.0396902458\C,-3.

 Normal termination of Gaussian 16 at Tue Dec  8 13:30:24 2020.

 ----------------------------------------------------------------------
 # B3LYP/6-311++G(d,p) empiricaldispersion=gd3bj scf=xqc pop=npa geom=c
 heck
 ----------------------------------------------------------------------

 --------------------------------------
 CID_139905667_JID_936_Energie_neutraal
 --------------------------------------
 Structure from the checkpoint file:  "JID_936.chk"
 Charge =  0 Multiplicity = 1

 SCF Done:  E(RB3LYP) =  -463.869502598     A.U. after   13 cycles
 Normal termination of Gaussian 16 at Tue Dec  8 13:35:18 2020.

 ----------------------------------------------------------------------
 # B3LYP/6-311++G(d,p) empiricaldispersion=gd3bj scf=xqc pop=npa geom=c
 heck
 ----------------------------------------------------------------------

 ------------------------------------
 CID_139905667_JID_936_Energie_kation
 ------------------------------------
 Structure from the checkpoint file:  "JID_936.chk"
 Charge =  1 Multiplicity = 2

 SCF Done:  E(UB3LYP) =  -463.540617631     A.U. after   18 cycles
 Normal termination of Gaussian 16 at Tue Dec  8 13:42:35 2020.
 Gaussian 16:  ES64L-G16RevA.03 25-Dec-2016

 -----------------------------------
 CID_139905667_JID_936_Energie_anion
 -----------------------------------
 Structure from the checkpoint file:  "JID_936.chk"
 Charge = -1 Multiplicity = 2

                         Standard orientation:
 ---------------------------------------------------------------------
 Center     Atomic      Atomic             Coordinates (Angstroms)
 Number     Number       Type             X           Y           Z
 ---------------------------------------------------------------------
      1          6           0        3.483451   -0.000008   -0.005436
      2          6           0        2.000430    0.000082    0.362198
      3          6           0        1.274818   -1.234247   -0.180125
      4          8           0       -0.121042   -1.169623    0.093672
      5          6           0       -0.706295   -0.000105   -0.447969
      6          8           0       -0.121037    1.169666    0.093109
      7          6           0        1.274824    1.234154   -0.180717
      8          6           0       -2.170395   -0.000023   -0.095774
      9          6           0       -3.087303   -0.000364   -1.063908
     10          6           0       -2.489178    0.000444    1.373081
     11          1           0        3.990380   -0.884983    0.395529
     12          1           0        3.621867   -0.000265   -1.093909
     13          1           0        3.990384    0.885152    0.395112
     14          1           0        1.884447    0.000344    1.453488
     15          1           0        1.438147   -1.312003   -1.270134
     16          1           0        1.638771   -2.155132    0.284697
     17          1           0       -0.554058   -0.000371   -1.543467
     18          1           0        1.638777    2.155260    0.283666
     19          1           0        1.438155    1.311389   -1.270762
     20          1           0       -4.150856   -0.000335   -0.840225
     21          1           0       -2.809695   -0.000686   -2.114743
     22          1           0       -2.051173   -0.879808    1.856652
     23          1           0       -2.051440    0.881165    1.856038
     24          1           0       -3.569170    0.000343    1.545712
 ---------------------------------------------------------------------

 SCF Done:  E(UB3LYP) =  -463.851198683     A.U. after   33 cycles
 SCF Done:  E(UB3LYP) =  -463.851198683     a.u. after    1 cycles

 The electronic state is 2-A.
 Alpha  occ. eigenvalues --  -19.02835 -19.02835 -10.17044 -10.11314 -10.11314
 Alpha  occ. eigenvalues --  -10.08820 -10.07123 -10.06817 -10.06622 -10.05425
 Alpha  occ. eigenvalues --   -0.97886  -0.90905  -0.72605  -0.69140  -0.60477
 Alpha  occ. eigenvalues --   -0.59489  -0.57732  -0.53807  -0.47536  -0.45439
 Alpha  occ. eigenvalues --   -0.40450  -0.39692  -0.39025  -0.35011  -0.34872
 Alpha  occ. eigenvalues --   -0.33024  -0.31672  -0.31309  -0.29756  -0.29553
 Alpha  occ. eigenvalues --   -0.27688  -0.27270  -0.26143  -0.24050  -0.22113
 Alpha  occ. eigenvalues --   -0.22083  -0.17473  -0.17085  -0.15912   0.04888
 Alpha virt. eigenvalues --    0.06539   0.07574   0.08343   0.09027   0.09107
 Alpha virt. eigenvalues --    0.09265   0.10542   0.11450   0.11569   0.11846
 Alpha virt. eigenvalues --    0.12146   0.13804   0.14112   0.15011   0.16153

  Beta  occ. eigenvalues --  -19.02828 -19.02828 -10.17034 -10.11289 -10.11289
  Beta  occ. eigenvalues --  -10.08818 -10.07114 -10.06795 -10.06607 -10.05364
  Beta  occ. eigenvalues --   -0.97871  -0.90888  -0.72585  -0.69111  -0.60425
  Beta  occ. eigenvalues --   -0.59456  -0.57680  -0.53727  -0.47462  -0.45405
  Beta  occ. eigenvalues --   -0.40424  -0.39661  -0.38976  -0.34975  -0.34833
  Beta  occ. eigenvalues --   -0.32966  -0.31648  -0.31281  -0.29721  -0.29503
  Beta  occ. eigenvalues --   -0.27666  -0.27224  -0.26108  -0.23982  -0.22079
  Beta  occ. eigenvalues --   -0.22041  -0.17440  -0.17066  -0.15892
  Beta virt. eigenvalues --    0.06978   0.07892   0.08231   0.08629   0.09569
  Beta virt. eigenvalues --    0.09720   0.09971   0.11081   0.12071   0.12207
  Beta virt. eigenvalues --    0.12332   0.12592   0.14181   0.14508   0.15340

 Mulliken charges and spin densities:
               1          2
     1  C    2.600184  -3.236539
     2  C   -3.713149   4.326810
     3  C    2.032010  -2.541135
     4  O   -0.041476   0.038892
     5  C   -0.883194  -0.203449
     6  O   -0.041465   0.038896
     7  C    2.032023  -2.541163
     8  C   -1.052423   2.185778
     9  C    0.688346  -1.655349
    10  C    0.154806  -0.367476
    11  H   -0.647476   0.792802
    12  H   -0.314485   0.454771
    13  H   -0.647470   0.792795
    14  H   -0.106202   0.286271
    15  H   -0.364413   0.543718
    16  H    0.040063   0.124088
    17  H    0.028751   0.102761
    18  H    0.040051   0.124104
    19  H   -0.364413   0.543711
    20  H   -0.268633   0.376245
    21  H   -0.191904   0.341312
    22  H    0.047221   0.113716
    23  H    0.047213   0.113729
    24  H   -0.073965   0.244713
 Sum of Mulliken charges =  -1.00000   1.00000

 Dipole moment (field-independent basis, Debye):
    X=             -5.3053    Y=              0.0004    Z=              1.4704  Tot=              5.5053
 Quadrupole moment (field-independent basis, Debye-Ang):
   XX=           -144.3350   YY=            -96.2271   ZZ=            -94.8786
   XY=             -0.0007   XZ=             -0.6311   YZ=              0.0001

 Summary of Natural Population Analysis:

                                       Natural Population
                Natural  -----------------------------------------------
    Atom  No    Charge         Core      Valence    Rydberg      Total
 -----------------------------------------------------------------------
      C    1   -0.28774      0.99965     2.28163    0.00646     3.28774
      C    2   -0.13965      0.99960     2.12980    0.01025     3.13965
      C    3   -0.00824      0.99954     1.99522    0.01347     3.00824
      O    4   -0.30184      0.99988     3.29326    0.00871     4.30184
      C    5    0.20761      0.99950     1.77306    0.01982     2.79239
      O    6   -0.30184      0.99988     3.29326    0.00871     4.30184
      C    7   -0.00824      0.99954     1.99522    0.01347     3.00824
      C    8   -0.00900      0.99950     1.99691    0.01258     3.00900
      C    9   -0.18651      0.99949     2.18018    0.00684     3.18651
      C   10   -0.30117      0.99961     2.29632    0.00524     3.30117
      H   11    0.10435      0.00000     0.39321    0.00244     0.39565
      H   12    0.10070      0.00000     0.39668    0.00262     0.39930
      H   13    0.10435      0.00000     0.39321    0.00244     0.39565
      H   14    0.09797      0.00000     0.39995    0.00207     0.40203
      H   15    0.08017      0.00000     0.41791    0.00192     0.41983
      H   16    0.09496      0.00000     0.40362    0.00142     0.40504
      H   17    0.07162      0.00000     0.42606    0.00232     0.42838
      H   18    0.09496      0.00000     0.40362    0.00142     0.40504
      H   19    0.08017      0.00000     0.41791    0.00192     0.41983
      H   20    0.09284      0.00000     0.40602    0.00113     0.40716
      H   21    0.09519      0.00000     0.40365    0.00116     0.40481
      H   22    0.11014      0.00000     0.38849    0.00138     0.38986
      H   23    0.11013      0.00000     0.38849    0.00138     0.38987
      H   24    0.09905      0.00000     0.39995    0.00100     0.40095
 =======================================================================
   * Total *    0.00000      9.99620    28.87361    0.13019    39.00000

 Normal termination of Gaussian 16 at Tue Dec  8 13:52:39 2020.
