 Gaussian 16, Revision A.03,

 -----------------------------------------------------------
 # opt freq B3LYP/6-31G(d) empiricaldispersion=gd3bj scf=xqc
 -----------------------------------------------------------

 ------------------------------
 CID_81345976_JID_8545_neutraal
 ------------------------------
 Symbolic Z-matrix:
 Charge =  0 Multiplicity = 1

 SCF Done:  E(RB3LYP) =  -894.807520094     A.U. after   14 cycles
 SCF Done:  E(RB3LYP) =  -894.811460317     A.U. after   12 cycles
 SCF Done:  E(RB3LYP) =  -894.811700083     A.U. after   10 cycles
 SCF Done:  E(RB3LYP) =  -894.811727758     A.U. after   10 cycles
 SCF Done:  E(RB3LYP) =  -894.811758226     A.U. after   10 cycles
 SCF Done:  E(RB3LYP) =  -894.811779075     A.U. after   10 cycles
 SCF Done:  E(RB3LYP) =  -894.811818455     A.U. after   11 cycles
 SCF Done:  E(RB3LYP) =  -894.811838586     A.U. after   11 cycles
 SCF Done:  E(RB3LYP) =  -894.811851558     A.U. after   10 cycles
 SCF Done:  E(RB3LYP) =  -894.811853650     A.U. after    8 cycles
 SCF Done:  E(RB3LYP) =  -894.811853778     A.U. after    7 cycles
 Optimization completed.
    -- Stationary point found.
 Normal termination of Gaussian 16 at Fri Dec 11 20:59:24 2020.

 --------------------------------------------------------------------
 #N Geom=AllCheck Guess=TCheck SCRF=Check GenChk RB3LYP/6-31G(d) Freq
 --------------------------------------------------------------------

 Structure from the checkpoint file:  "JID_8545.chk"
 ------------------------------
 CID_81345976_JID_8545_neutraal
 ------------------------------
 Charge =  0 Multiplicity = 1

 SCF Done:  E(RB3LYP) =  -894.811853778     A.U. after    1 cycles

  Exact polarizability: 206.764  -1.741 152.844   3.807   0.975  75.462
 Approx polarizability: 288.361  -3.860 257.787  13.859  -0.092 120.237

                      1                      2                      3
                      A                      A                      A
 Frequencies --     20.8402                32.1237                59.9984
 Red. masses --      4.2857                11.6395                 5.3017
 Frc consts  --      0.0011                 0.0071                 0.0112
 IR Inten    --      0.2393                 1.1900                 0.5237

                      4                      5                      6
                      A                      A                      A
 Frequencies --     72.3374               128.0341               149.1370
 Red. masses --      6.3340                 6.9477                 4.5581
 Frc consts  --      0.0195                 0.0671                 0.0597
 IR Inten    --      0.9512                 1.0391                 0.2306

                      7                      8                      9
                      A                      A                      A
 Frequencies --    173.3463               250.1179               265.2783
 Red. masses --      5.8235                 5.2367                 2.9030
 Frc consts  --      0.1031                 0.1930                 0.1204
 IR Inten    --      0.9323                 0.6558                11.6523

                     10                     11                     12
                      A                      A                      A
 Frequencies --    269.9355               284.2075               331.5115
 Red. masses --      5.1404                 4.5247                 5.4773
 Frc consts  --      0.2207                 0.2153                 0.3547
 IR Inten    --      1.2513                 0.1435                 3.8600

                     13                     14                     15
                      A                      A                      A
 Frequencies --    371.8561               386.7501               446.4553
 Red. masses --      8.6426                 2.5130                 6.8048
 Frc consts  --      0.7041                 0.2215                 0.7991
 IR Inten    --      2.2072                 2.1771                 0.6192

                     16                     17                     18
                      A                      A                      A
 Frequencies --    453.5951               468.7655               500.6735
 Red. masses --      8.5122                 3.5617                 3.1662
 Frc consts  --      1.0319                 0.4611                 0.4676
 IR Inten    --      0.4260                 1.7959                 2.5400

                     19                     20                     21
                      A                      A                      A
 Frequencies --    550.2945               570.4152               580.6872
 Red. masses --      6.2339                 2.4640                 2.5043
 Frc consts  --      1.1122                 0.4724                 0.4975
 IR Inten    --      1.6648                25.8225                16.1827

                     22                     23                     24
                      A                      A                      A
 Frequencies --    617.5165               631.5316               653.1266
 Red. masses --      4.2282                 1.6042                 5.2154
 Frc consts  --      0.9500                 0.3770                 1.3108
 IR Inten    --     18.7321                70.3116                17.1543

                     25                     26                     27
                      A                      A                      A
 Frequencies --    693.0203               718.0359               753.6520
 Red. masses --      4.5374                 5.6333                 6.7372
 Frc consts  --      1.2840                 1.7112                 2.2546
 IR Inten    --     23.2780                25.4661                30.6303

                     28                     29                     30
                      A                      A                      A
 Frequencies --    770.3629               826.7930               835.7919
 Red. masses --      1.7158                 3.2356                 3.5010
 Frc consts  --      0.6000                 1.3032                 1.4409
 IR Inten    --     53.2598                 1.2207                 2.7962

                     31                     32                     33
                      A                      A                      A
 Frequencies --    863.7427               895.1127               906.9971
 Red. masses --      3.2481                 3.1211                 4.1236
 Frc consts  --      1.4277                 1.4734                 1.9987
 IR Inten    --      2.9868                26.4609                14.6406

                     34                     35                     36
                      A                      A                      A
 Frequencies --    925.1893               939.4579               976.7114
 Red. masses --      1.3880                 3.2426                 1.2846
 Frc consts  --      0.7000                 1.6862                 0.7220
 IR Inten    --      0.3645                51.1565                 0.6179

                     37                     38                     39
                      A                      A                      A
 Frequencies --    978.0801               990.3813              1025.4912
 Red. masses --      5.7405                 8.1798                 2.9846
 Frc consts  --      3.2356                 4.7271                 1.8493
 IR Inten    --     45.9325                80.2635                11.3224

                     40                     41                     42
                      A                      A                      A
 Frequencies --   1074.7871              1088.0862              1101.7547
 Red. masses --      2.8056                 1.9471                 2.6044
 Frc consts  --      1.9095                 1.3582                 1.8626
 IR Inten    --     14.8325                11.2184                47.1293

                     43                     44                     45
                      A                      A                      A
 Frequencies --   1138.8591              1151.0983              1156.3194
 Red. masses --      5.3065                 2.5954                 4.0188
 Frc consts  --      4.0550                 2.0262                 3.1660
 IR Inten    --     66.9080                30.2152                40.6637

                     46                     47                     48
                      A                      A                      A
 Frequencies --   1159.8508              1192.1774              1216.8229
 Red. masses --      3.2635                 1.4350                 2.0954
 Frc consts  --      2.5867                 1.2017                 1.8280
 IR Inten    --    365.7166                54.0540               106.2804

                     49                     50                     51
                      A                      A                      A
 Frequencies --   1251.2534              1269.3588              1277.0833
 Red. masses --      1.7580                 1.2838                 3.9292
 Frc consts  --      1.6217                 1.2188                 3.7757
 IR Inten    --     24.3324                12.3117                37.1067

                     52                     53                     54
                      A                      A                      A
 Frequencies --   1287.5253              1305.5088              1332.9740
 Red. masses --      1.9486                 1.2975                 1.2752
 Frc consts  --      1.9032                 1.3029                 1.3350
 IR Inten    --      3.9555                50.3777                 6.5140

                     55                     56                     57
                      A                      A                      A
 Frequencies --   1348.4753              1384.0629              1389.9629
 Red. masses --      1.5167                 1.6977                 2.3321
 Frc consts  --      1.6249                 1.9162                 2.6546
 IR Inten    --      1.4670               100.8847                54.8437

                     58                     59                     60
                      A                      A                      A
 Frequencies --   1400.2795              1415.3167              1430.4678
 Red. masses --      1.5015                 2.1356                 1.4474
 Frc consts  --      1.7346                 2.5204                 1.7450
 IR Inten    --     16.1788                10.7739                 6.8161

                     61                     62                     63
                      A                      A                      A
 Frequencies --   1450.5413              1461.7803              1504.9126
 Red. masses --      1.6472                 3.1105                 1.0837
 Frc consts  --      2.0420                 3.9161                 1.4460
 IR Inten    --      3.9089                75.5584                 0.7013

                     64                     65                     66
                      A                      A                      A
 Frequencies --   1512.7117              1519.4376              1538.5505
 Red. masses --      1.1018                 1.1039                 2.9221
 Frc consts  --      1.4855                 1.5016                 4.0755
 IR Inten    --      6.2818                 2.5525                 7.7859

                     67                     68                     69
                      A                      A                      A
 Frequencies --   1622.1233              1662.1275              1671.0464
 Red. masses --      9.9084                 9.7789                 7.2777
 Frc consts  --     15.3611                15.9172                11.9734
 IR Inten    --     71.0833                 6.0685                 6.6091

                     70                     71                     72
                      A                      A                      A
 Frequencies --   1833.3736              2979.5163              3002.4802
 Red. masses --     10.0058                 1.0812                 1.0713
 Frc consts  --     19.8155                 5.6554                 5.6902
 IR Inten    --    245.7700                24.6622                31.4453

                     73                     74                     75
                      A                      A                      A
 Frequencies --   3012.2571              3042.0846              3114.2712
 Red. masses --      1.0673                 1.0687                 1.0961
 Frc consts  --      5.7057                 5.8272                 6.2632
 IR Inten    --     73.9029                34.1677                44.8745

                     76                     77                     78
                      A                      A                      A
 Frequencies --   3119.5149              3148.2700              3208.2606
 Red. masses --      1.0958                 1.0976                 1.0885
 Frc consts  --      6.2831                 6.4100                 6.6013
 IR Inten    --     37.1741                15.8457                 6.6775

                     79                     80                     81
                      A                      A                      A
 Frequencies --   3231.6707              3243.7129              3703.1261
 Red. masses --      1.0942                 1.0924                 1.0642
 Frc consts  --      6.7328                 6.7722                 8.5983
 IR Inten    --      4.6540                 2.3610                76.4338

 - Thermochemistry -
 -------------------
 Temperature   298.150 Kelvin.  Pressure   1.00000 Atm.
 Atom     1 has atomic number  6 and mass  12.00000

 Molecular mass:   249.06372 amu.
 Principal axes and moments of inertia in atomic units:
                           1         2         3
     Eigenvalues --  2048.175327856.648239666.04427
           X            0.99997  -0.00690  -0.00236
           Y            0.00690   0.99997   0.00225
           Z            0.00235  -0.00227   0.99999
 This molecule is an asymmetric top.
 Rotational symmetry number  1.
 Warning -- assumption of classical behavior for rotation
           may cause significant error
 Rotational temperatures (Kelvin)      0.04229     0.01102     0.00896
 Rotational constants (GHZ):           0.88115     0.22971     0.18671
 Zero-point vibrational energy     588091.1 (Joules/Mol)
                                  140.55714 (Kcal/Mol)
 Warning -- explicit consideration of  22 degrees of freedom as
           vibrations may cause significant error
 Vibrational temperatures:     29.98    46.22    86.32   104.08   184.21
          (Kelvin)            214.57   249.41   359.86   381.68   388.38
                              408.91   476.97   535.02   556.45   642.35
                              652.62   674.45   720.36   791.75   820.70
                              835.48   888.47   908.63   939.70   997.10
                             1033.09  1084.34  1108.38  1189.57  1202.52
                             1242.73  1287.87  1304.97  1331.14  1351.67
                             1405.27  1407.24  1424.94  1475.45  1546.38
                             1565.51  1585.18  1638.56  1656.17  1663.69
                             1668.77  1715.28  1750.74  1800.27  1826.32
                             1837.44  1852.46  1878.34  1917.85  1940.16
                             1991.36  1999.85  2014.69  2036.33  2058.12
                             2087.01  2103.18  2165.23  2176.45  2186.13
                             2213.63  2333.87  2391.43  2404.26  2637.82
                             4286.86  4319.90  4333.97  4376.88  4480.74
                             4488.29  4529.66  4615.97  4649.65  4666.98
                             5327.97

 Zero-point correction=                           0.223992 (Hartree/Particle)
 Thermal correction to Energy=                    0.238293
 Thermal correction to Enthalpy=                  0.239237
 Thermal correction to Gibbs Free Energy=         0.180522
 Sum of electronic and zero-point Energies=           -894.587862
 Sum of electronic and thermal Energies=              -894.573561
 Sum of electronic and thermal Enthalpies=            -894.572616
 Sum of electronic and thermal Free Energies=         -894.631332

                     E (Thermal)             CV                S
                      KCal/Mol        Cal/Mol-Kelvin    Cal/Mol-Kelvin
 Total                  149.531             55.321            123.578
 Electronic               0.000              0.000              0.000
 Translational            0.889              2.981             42.438
 Rotational               0.889              2.981             33.408
 Vibrational            147.754             49.360             47.731
 Vibration     1          0.593              1.986              6.552
 Vibration     2          0.594              1.983              5.694
 Vibration     3          0.597              1.973              4.457
 Vibration     4          0.598              1.967              4.089
 Vibration     5          0.611              1.925              2.975
 Vibration     6          0.618              1.904              2.683
 Vibration     7          0.627              1.875              2.399
 Vibration     8          0.663              1.763              1.730
 Vibration     9          0.671              1.737              1.627
 Vibration    10          0.674              1.729              1.597
 Vibration    11          0.683              1.703              1.508
 Vibration    12          0.714              1.613              1.253
 Vibration    13          0.744              1.530              1.072
 Vibration    14          0.755              1.498              1.013
 Vibration    15          0.806              1.369              0.807
 Vibration    16          0.812              1.353              0.785
 Vibration    17          0.826              1.319              0.741
 Vibration    18          0.856              1.249              0.656
 Vibration    19          0.906              1.139              0.544
 Vibration    20          0.927              1.095              0.503
 Vibration    21          0.937              1.073              0.484
 Vibration    22          0.977              0.995              0.420

                           ! Non-Optimized Parameters !
 Normal termination of Gaussian 16 at Fri Dec 11 21:09:00 2020.

 ----------------------------------------------------------------------
 # B3LYP/6-311++G(d,p) empiricaldispersion=gd3bj scf=xqc pop=npa geom=c
 heck
 ----------------------------------------------------------------------

 --------------------------------------
 CID_81345976_JID_8545_Energie_neutraal
 --------------------------------------
 Structure from the checkpoint file:  "JID_8545.chk"
 Charge =  0 Multiplicity = 1

 SCF Done:  E(RB3LYP) =  -895.066264187     A.U. after   15 cycles
 Normal termination of Gaussian 16 at Fri Dec 11 21:13:26 2020.

 ----------------------------------------------------------------------
 # B3LYP/6-311++G(d,p) empiricaldispersion=gd3bj scf=xqc pop=npa geom=c
 heck
 ----------------------------------------------------------------------

 ------------------------------------
 CID_81345976_JID_8545_Energie_kation
 ------------------------------------
 Structure from the checkpoint file:  "JID_8545.chk"
 Charge =  1 Multiplicity = 2

 SCF Done:  E(UB3LYP) =  -894.748587308     A.U. after   32 cycles
 Normal termination of Gaussian 16 at Fri Dec 11 21:26:37 2020.
 Gaussian 16:  ES64L-G16RevA.03 25-Dec-2016

 ----------------------------------------------------------------------
 # B3LYP/6-311++G(d,p) empiricaldispersion=gd3bj scf=xqc pop=npa geom=c
 heck
 ----------------------------------------------------------------------

 -----------------------------------
 CID_81345976_JID_8545_Energie_anion
 -----------------------------------
 Structure from the checkpoint file:  "JID_8545.chk"
 Charge = -1 Multiplicity = 2

                         Standard orientation:
 ---------------------------------------------------------------------
 Center     Atomic      Atomic             Coordinates (Angstroms)
 Number     Number       Type             X           Y           Z
 ---------------------------------------------------------------------
      1          6           0       -4.682160    0.689823    0.536313
      2          6           0       -4.301882   -0.783284    0.475900
      3          8           0       -2.886249   -0.933599    0.568596
      4          6           0       -2.232050   -0.197054   -0.464191
      5          6           0       -2.617519    1.283231   -0.397581
      6          8           0       -4.029154    1.409074   -0.502941
      7          6           0       -0.762672   -0.395312   -0.301126
      8          7           0        0.143559    0.522548   -0.189633
      9          6           0        1.345150   -0.180377   -0.090761
     10          6           0        2.680450    0.239377    0.052407
     11          6           0        3.656656   -0.763897    0.130100
     12          6           0        3.332219   -2.126075    0.068990
     13          6           0        2.010746   -2.555640   -0.072979
     14          6           0        1.057533   -1.554021   -0.149627
     15          8           0       -0.300207   -1.689941   -0.290858
     16          6           0        3.034670    1.678731    0.116725
     17          8           0        2.257999    2.605514    0.043389
     18          8           0        4.375074    1.872418    0.271677
     19          1           0       -5.757446    0.826507    0.386567
     20          1           0       -4.401765    1.103253    1.518427
     21          1           0       -4.664148   -1.221680   -0.467649
     22          1           0       -4.724601   -1.342854    1.315304
     23          1           0       -2.545080   -0.598337   -1.443869
     24          1           0       -2.178737    1.841485   -1.226691
     25          1           0       -2.253144    1.709544    0.547676
     26          1           0        4.692682   -0.468330    0.240989
     27          1           0        4.126711   -2.862583    0.133660
     28          1           0        1.743272   -3.605337   -0.120613
     29          1           0        4.490778    2.839754    0.299700
 ---------------------------------------------------------------------

 SCF Done:  E(UB3LYP) =  -895.085122645     A.U. after   26 cycles

 The electronic state is 2-A.
 Alpha  occ. eigenvalues --  -19.05141 -19.03846 -19.03221 -19.01775 -18.94230
 Alpha  occ. eigenvalues --  -14.16694 -10.13527 -10.13234 -10.13035 -10.12617
 Alpha  occ. eigenvalues --  -10.11523 -10.11098 -10.08580 -10.05158 -10.03017
 Alpha  occ. eigenvalues --  -10.02476 -10.02421 -10.02197  -0.98740  -0.96737
 Alpha  occ. eigenvalues --   -0.95313  -0.92975  -0.85843  -0.78342  -0.71497
 Alpha  occ. eigenvalues --   -0.69224  -0.62674  -0.61910  -0.59273  -0.57210
 Alpha  occ. eigenvalues --   -0.51407  -0.50458  -0.47789  -0.46071  -0.44030
 Alpha  occ. eigenvalues --   -0.41235  -0.39921  -0.39549  -0.38602  -0.37184
 Alpha  occ. eigenvalues --   -0.36169  -0.35442  -0.33414  -0.33009  -0.32820
 Alpha  occ. eigenvalues --   -0.31858  -0.29874  -0.29797  -0.27797  -0.27464
 Alpha  occ. eigenvalues --   -0.27104  -0.26622  -0.26030  -0.22437  -0.22089
 Alpha  occ. eigenvalues --   -0.21615  -0.21407  -0.19916  -0.18992  -0.17547
 Alpha  occ. eigenvalues --   -0.15605  -0.15143  -0.11731  -0.11047  -0.10184
 Alpha  occ. eigenvalues --    0.04034
 Alpha virt. eigenvalues --    0.06649   0.08616   0.09275   0.09461   0.09918
 Alpha virt. eigenvalues --    0.10206   0.11602   0.12078   0.12136   0.12479
 Alpha virt. eigenvalues --    0.13566   0.14189   0.15058   0.15575   0.15824

  Beta  occ. eigenvalues --  -19.05114 -19.03843 -19.03167 -19.01717 -18.93951
  Beta  occ. eigenvalues --  -14.16747 -10.13527 -10.13223 -10.12836 -10.12638
  Beta  occ. eigenvalues --  -10.11523 -10.10721 -10.08682 -10.05008 -10.03000
  Beta  occ. eigenvalues --  -10.02327 -10.02121 -10.01943  -0.98595  -0.96692
  Beta  occ. eigenvalues --   -0.95055  -0.92906  -0.85433  -0.78176  -0.71172
  Beta  occ. eigenvalues --   -0.69091  -0.62409  -0.61328  -0.59150  -0.57093
  Beta  occ. eigenvalues --   -0.50797  -0.50309  -0.47661  -0.45839  -0.43846
  Beta  occ. eigenvalues --   -0.41194  -0.39753  -0.39401  -0.38484  -0.37001
  Beta  occ. eigenvalues --   -0.36040  -0.35330  -0.33165  -0.32609  -0.32498
  Beta  occ. eigenvalues --   -0.31679  -0.29768  -0.28744  -0.27758  -0.27409
  Beta  occ. eigenvalues --   -0.26952  -0.26519  -0.25792  -0.22311  -0.21901
  Beta  occ. eigenvalues --   -0.21539  -0.20516  -0.19799  -0.18316  -0.16458
  Beta  occ. eigenvalues --   -0.15571  -0.15097  -0.11478  -0.09550  -0.08777
  Beta virt. eigenvalues --    0.06618   0.08566   0.09241   0.09384   0.09681
  Beta virt. eigenvalues --    0.09915   0.10396   0.11574   0.12114   0.12395
  Beta virt. eigenvalues --    0.12944   0.13627   0.14298   0.15082   0.15546

 Mulliken charges and spin densities:
               1          2
     1  C   -0.202508   0.005954
     2  C   -0.074734   0.003272
     3  O   -0.043706  -0.008138
     4  C   -0.179692   0.081444
     5  C   -0.391667  -0.018043
     6  O   -0.120501   0.000843
     7  C   -0.360264   0.140156
     8  N    0.125725  -0.031092
     9  C   -0.037669   0.097424
    10  C   -0.022918   0.159767
    11  C   -0.406246   0.112169
    12  C   -0.200829   0.012806
    13  C   -0.456463   0.285479
    14  C    0.455510  -0.093690
    15  O   -0.124434   0.005337
    16  C   -0.032072   0.115660
    17  O   -0.394889   0.101408
    18  O   -0.220889   0.013690
    19  H    0.148552   0.000106
    20  H    0.109002   0.000058
    21  H    0.108915   0.008271
    22  H    0.146219  -0.001050
    23  H    0.133212   0.032544
    24  H    0.197510   0.006003
    25  H    0.219967  -0.001015
    26  H    0.145953  -0.004543
    27  H    0.110197  -0.002303
    28  H    0.115538  -0.021192
    29  H    0.253180  -0.001324
 Sum of Mulliken charges =  -1.00000   1.00000

 Dipole moment (field-independent basis, Debye):
    X=             -6.6186    Y=             -1.4936    Z=              0.2868  Tot=              6.7911
 Quadrupole moment (field-independent basis, Debye-Ang):
   XX=           -135.0325   YY=           -127.6426   ZZ=           -110.9708
   XY=              3.0460   XZ=             -3.7452   YZ=              2.3784

 Summary of Natural Population Analysis:

                                       Natural Population
                Natural  -----------------------------------------------
    Atom  No    Charge         Core      Valence    Rydberg      Total
 -----------------------------------------------------------------------
      C    1   -0.02476      0.99960     2.01471    0.01046     3.02476
      C    2   -0.02358      0.99960     2.01356    0.01042     3.02358
      O    3   -0.29038      0.99989     3.27996    0.01053     4.29038
      C    4    0.02466      0.99951     1.96139    0.01443     2.97534
      C    5   -0.01909      0.99958     2.00806    0.01146     3.01909
      O    6   -0.30194      0.99989     3.29145    0.01060     4.30194
      C    7    0.32447      0.99956     1.65690    0.01907     2.67553
      N    8   -0.25148      0.99966     2.74401    0.00780     3.75148
      C    9    0.06647      0.99947     1.91666    0.01739     2.93353
      C   10    0.01051      0.99942     1.98321    0.00686     2.98949
      C   11   -0.09156      0.99961     2.07753    0.01443     3.09156
      C   12   -0.11309      0.99959     2.10412    0.00939     3.11309
      C   13   -0.05939      0.99953     2.05078    0.00908     3.05939
      C   14    0.11499      0.99935     1.87332    0.01234     2.88501
      O   15   -0.24524      0.99985     3.23701    0.00838     4.24524
      C   16    0.40370      0.99972     1.56827    0.02831     2.59630
      O   17   -0.29002      0.99987     3.28331    0.00684     4.29002
      O   18   -0.35905      0.99988     3.35155    0.00762     4.35905
      H   19    0.08738      0.00000     0.41148    0.00114     0.41262
      H   20    0.07950      0.00000     0.41891    0.00159     0.42050
      H   21    0.07774      0.00000     0.42069    0.00157     0.42226
      H   22    0.08965      0.00000     0.40925    0.00109     0.41035
      H   23    0.08785      0.00000     0.41021    0.00194     0.41215
      H   24    0.10218      0.00000     0.39679    0.00103     0.39782
      H   25    0.09026      0.00000     0.40837    0.00137     0.40974
      H   26    0.10074      0.00000     0.39823    0.00103     0.39926
      H   27    0.08932      0.00000     0.40954    0.00114     0.41068
      H   28    0.09270      0.00000     0.40580    0.00150     0.40730
      H   29    0.22768      0.00000     0.26728    0.00504     0.27232
 =======================================================================
   * Total *    0.00022     17.99358    46.77236    0.23384    64.99978

 Normal termination of Gaussian 16 at Fri Dec 11 21:37:29 2020.
