 Gaussian 16, Revision A.03,

 -----------------------------------------------------------
 # opt freq B3LYP/6-31G(d) empiricaldispersion=gd3bj scf=xqc
 -----------------------------------------------------------

 ------------------------------
 CID_15234761_JID_2974_neutraal
 ------------------------------
 Symbolic Z-matrix:
 Charge =  0 Multiplicity = 1

 SCF Done:  E(RB3LYP) =  -590.720049272     A.U. after   15 cycles
 SCF Done:  E(RB3LYP) =  -590.730623939     A.U. after   13 cycles
 SCF Done:  E(RB3LYP) =  -590.731425072     A.U. after   12 cycles
 SCF Done:  E(RB3LYP) =  -590.731556877     A.U. after   12 cycles
 SCF Done:  E(RB3LYP) =  -590.731785418     A.U. after   11 cycles
 SCF Done:  E(RB3LYP) =  -590.731802020     A.U. after   10 cycles
 SCF Done:  E(RB3LYP) =  -590.731808800     A.U. after    9 cycles
 SCF Done:  E(RB3LYP) =  -590.731812785     A.U. after    9 cycles
 SCF Done:  E(RB3LYP) =  -590.731814625     A.U. after    9 cycles
 SCF Done:  E(RB3LYP) =  -590.731814945     A.U. after    8 cycles
 SCF Done:  E(RB3LYP) =  -590.731815044     A.U. after    8 cycles
 Optimization completed.
    -- Stationary point found.
 Normal termination of Gaussian 16 at Wed Dec  9 18:20:14 2020.

 --------------------------------------------------------------------
 #N Geom=AllCheck Guess=TCheck SCRF=Check GenChk RB3LYP/6-31G(d) Freq
 --------------------------------------------------------------------

 Structure from the checkpoint file:  "JID_2974.chk"
 ------------------------------
 CID_15234761_JID_2974_neutraal
 ------------------------------
 Charge =  0 Multiplicity = 1

 SCF Done:  E(RB3LYP) =  -590.731815044     A.U. after    1 cycles

  Exact polarizability: 122.432   3.699  94.357  -2.290  -0.416  55.873
 Approx polarizability: 165.472   8.379 143.881  -4.950  -4.135  88.581

                      1                      2                      3
                      A                      A                      A
 Frequencies --     57.1818                88.0490               125.2173
 Red. masses --      3.9506                 4.1857                11.4525
 Frc consts  --      0.0076                 0.0191                 0.1058
 IR Inten    --      2.0654                 0.1868                 1.9665

                      4                      5                      6
                      A                      A                      A
 Frequencies --    160.5656               213.0793               300.2163
 Red. masses --      3.4833                 4.2383                 3.3761
 Frc consts  --      0.0529                 0.1134                 0.1793
 IR Inten    --      1.8101                 3.5901                 4.4193

                      7                      8                      9
                      A                      A                      A
 Frequencies --    355.9687               385.5732               416.0527
 Red. masses --      5.7954                 3.3053                 6.1352
 Frc consts  --      0.4327                 0.2895                 0.6257
 IR Inten    --     13.8168                 1.2135                 9.2514

                     10                     11                     12
                      A                      A                      A
 Frequencies --    440.4518               476.5825               507.3907
 Red. masses --      2.1784                 3.6552                 2.1303
 Frc consts  --      0.2490                 0.4891                 0.3231
 IR Inten    --      6.8453                 7.6437                50.8606

                     13                     14                     15
                      A                      A                      A
 Frequencies --    512.5711               579.0652               653.8290
 Red. masses --      2.4100                 2.3964                 5.3584
 Frc consts  --      0.3731                 0.4734                 1.3496
 IR Inten    --     38.7199                18.9287                17.4912

                     16                     17                     18
                      A                      A                      A
 Frequencies --    685.8080               711.5265               741.5491
 Red. masses --      2.2540                 1.6522                 6.1525
 Frc consts  --      0.6246                 0.4928                 1.9933
 IR Inten    --     12.4851                 2.5360                 3.0483

                     19                     20                     21
                      A                      A                      A
 Frequencies --    751.1836               813.8129               845.6205
 Red. masses --      6.1918                 2.9631                 3.2045
 Frc consts  --      2.0586                 1.1562                 1.3501
 IR Inten    --     26.8208                 0.3924                 1.6131

                     22                     23                     24
                      A                      A                      A
 Frequencies --    923.2404               935.6854               950.0606
 Red. masses --      1.3289                 3.3003                 2.0931
 Frc consts  --      0.6674                 1.7024                 1.1131
 IR Inten    --     30.6353                23.3614                19.3690

                     25                     26                     27
                      A                      A                      A
 Frequencies --    960.1988              1003.7805              1029.9246
 Red. masses --      1.5275                 3.6084                 2.0208
 Frc consts  --      0.8298                 2.1421                 1.2630
 IR Inten    --      5.4298               115.7515                34.2585

                     28                     29                     30
                      A                      A                      A
 Frequencies --   1091.4281              1110.8849              1150.7685
 Red. masses --      5.0772                 2.6241                 2.1320
 Frc consts  --      3.5634                 1.9079                 1.6634
 IR Inten    --    155.7646                23.6753                53.8793

                     31                     32                     33
                      A                      A                      A
 Frequencies --   1166.7037              1177.3652              1207.3187
 Red. masses --      2.3054                 1.5857                 1.4428
 Frc consts  --      1.8489                 1.2950                 1.2391
 IR Inten    --     20.2353                34.3851                 3.6723

                     34                     35                     36
                      A                      A                      A
 Frequencies --   1258.1249              1288.5020              1292.4632
 Red. masses --      2.4477                 1.4796                 1.3584
 Frc consts  --      2.2827                 1.4473                 1.3369
 IR Inten    --      1.7100                15.6797                 9.9716

                     37                     38                     39
                      A                      A                      A
 Frequencies --   1298.3989              1328.4716              1370.4470
 Red. masses --      1.4176                 2.9773                 1.4354
 Frc consts  --      1.4080                 3.0959                 1.5884
 IR Inten    --     32.7734               168.6608                12.7961

                     40                     41                     42
                      A                      A                      A
 Frequencies --   1410.8213              1423.6784              1467.0752
 Red. masses --      1.7570                 1.4230                 1.4894
 Frc consts  --      2.0604                 1.6993                 1.8888
 IR Inten    --     18.4568                54.5468                25.6660

                     43                     44                     45
                      A                      A                      A
 Frequencies --   1474.3820              1510.7053              1515.2966
 Red. masses --      1.4103                 1.1004                 1.1040
 Frc consts  --      1.8062                 1.4796                 1.4935
 IR Inten    --     35.2354                 8.2588                 1.7476

                     46                     47                     48
                      A                      A                      A
 Frequencies --   1753.2561              1869.4314              1906.1755
 Red. masses --      6.0253                11.6325                12.0167
 Frc consts  --     10.9124                23.9521                25.7253
 IR Inten    --     10.0396               597.2874               334.8493

                     49                     50                     51
                      A                      A                      A
 Frequencies --   2986.9596              3030.8507              3038.7076
 Red. masses --      1.0825                 1.0801                 1.0701
 Frc consts  --      5.6905                 5.8459                 5.8215
 IR Inten    --     23.9333                 3.7522                22.6459

                     52                     53                     54
                      A                      A                      A
 Frequencies --   3066.3309              3111.7490              3124.5519
 Red. masses --      1.0668                 1.0968                 1.0981
 Frc consts  --      5.9100                 6.2570                 6.3163
 IR Inten    --     10.8174                18.9560                10.5954

                     55                     56                     57
                      A                      A                      A
 Frequencies --   3161.8451              3238.7616              3621.8600
 Red. masses --      1.0605                 1.1166                 1.0771
 Frc consts  --      6.2467                 6.9009                 8.3244
 IR Inten    --      8.1472                10.9335                39.3374

 - Thermochemistry -
 -------------------
 Temperature   298.150 Kelvin.  Pressure   1.00000 Atm.
 Atom     1 has atomic number  6 and mass  12.00000

 Molecular mass:   167.05824 amu.
 Principal axes and moments of inertia in atomic units:
                           1         2         3
     Eigenvalues --   998.373412565.215173473.84854
           X            1.00000  -0.00241   0.00046
           Y            0.00241   0.99997   0.00720
           Z           -0.00048  -0.00720   0.99997
 This molecule is an asymmetric top.
 Rotational symmetry number  1.
 Warning -- assumption of classical behavior for rotation
           may cause significant error
 Rotational temperatures (Kelvin)      0.08676     0.03376     0.02493
 Rotational constants (GHZ):           1.80768     0.70354     0.51952
 Zero-point vibrational energy     437100.5 (Joules/Mol)
                                  104.46953 (Kcal/Mol)
 Warning -- explicit consideration of  14 degrees of freedom as
           vibrations may cause significant error
 Vibrational temperatures:     82.27   126.68   180.16   231.02   306.57
          (Kelvin)            431.94   512.16   554.75   598.61   633.71
                              685.70   730.02   737.48   833.15   940.71
                              986.72  1023.73  1066.92  1080.79  1170.90
                             1216.66  1328.34  1346.24  1366.93  1381.51
                             1444.22  1481.83  1570.32  1598.32  1655.70
                             1678.63  1693.97  1737.06  1810.16  1853.87
                             1859.57  1868.11  1911.37  1971.77  2029.86
                             2048.36  2110.79  2121.31  2173.57  2180.17
                             2522.54  2689.69  2742.56  4297.57  4360.72
                             4372.02  4411.77  4477.11  4495.53  4549.19
                             4659.86  5211.05

 Zero-point correction=                           0.166483 (Hartree/Particle)
 Thermal correction to Energy=                    0.176430
 Thermal correction to Enthalpy=                  0.177374
 Thermal correction to Gibbs Free Energy=         0.130577
 Sum of electronic and zero-point Energies=           -590.565332
 Sum of electronic and thermal Energies=              -590.555385
 Sum of electronic and thermal Enthalpies=            -590.554441
 Sum of electronic and thermal Free Energies=         -590.601239

                     E (Thermal)             CV                S
                      KCal/Mol        Cal/Mol-Kelvin    Cal/Mol-Kelvin
 Total                  110.711             38.596             98.494
 Electronic               0.000              0.000              0.000
 Translational            0.889              2.981             41.248
 Rotational               0.889              2.981             30.565
 Vibrational            108.934             32.635             26.681
 Vibration     1          0.596              1.975              4.552
 Vibration     2          0.601              1.958              3.703
 Vibration     3          0.610              1.928              3.018
 Vibration     4          0.622              1.891              2.543
 Vibration     5          0.644              1.821              2.017
 Vibration     6          0.693              1.673              1.416
 Vibration     7          0.731              1.563              1.140
 Vibration     8          0.754              1.501              1.017
 Vibration     9          0.779              1.435              0.905
 Vibration    10          0.800              1.382              0.825
 Vibration    11          0.833              1.302              0.719
 Vibration    12          0.863              1.234              0.640
 Vibration    13          0.868              1.222              0.627
 Vibration    14          0.936              1.077              0.487

 Optimization completed.
    -- Stationary point found.
 Normal termination of Gaussian 16 at Wed Dec  9 18:24:54 2020.

 ----------------------------------------------------------------------
 # B3LYP/6-311++G(d,p) empiricaldispersion=gd3bj scf=xqc pop=npa geom=c
 heck
 ----------------------------------------------------------------------

 --------------------------------------
 CID_15234761_JID_2974_Energie_neutraal
 --------------------------------------
 Structure from the checkpoint file:  "JID_2974.chk"
 Charge =  0 Multiplicity = 1

 SCF Done:  E(RB3LYP) =  -590.904396888     A.U. after   15 cycles
 Normal termination of Gaussian 16 at Wed Dec  9 18:26:47 2020.

 ----------------------------------------------------------------------
 # B3LYP/6-311++G(d,p) empiricaldispersion=gd3bj scf=xqc pop=npa geom=c
 heck
 ----------------------------------------------------------------------

 ------------------------------------
 CID_15234761_JID_2974_Energie_kation
 ------------------------------------
 Structure from the checkpoint file:  "JID_2974.chk"
 Charge =  1 Multiplicity = 2

 SCF Done:  E(UB3LYP) =  -590.554063397     A.U. after   27 cycles
 Normal termination of Gaussian 16 at Wed Dec  9 18:30:24 2020.
 Gaussian 16:  ES64L-G16RevA.03 25-Dec-2016

 ----------------------------------------------------------------------
 # B3LYP/6-311++G(d,p) empiricaldispersion=gd3bj scf=xqc pop=npa geom=c
 heck
 ----------------------------------------------------------------------

 -----------------------------------
 CID_15234761_JID_2974_Energie_anion
 -----------------------------------
 Structure from the checkpoint file:  "JID_2974.chk"
 Charge = -1 Multiplicity = 2

                         Standard orientation:
 ---------------------------------------------------------------------
 Center     Atomic      Atomic             Coordinates (Angstroms)
 Number     Number       Type             X           Y           Z
 ---------------------------------------------------------------------
      1          6           0        3.836198   -0.312646   -0.024881
      2          6           0        2.509574   -0.227642    0.033720
      3          6           0        1.702511    1.069505    0.141391
      4          6           0        0.283493    0.560160    0.393877
      5          6           0        0.224811   -0.750263   -0.394301
      6          6           0        1.547102   -1.416045   -0.009856
      7          7           0       -1.009655   -1.415236   -0.037746
      8          6           0       -2.189028   -0.719403    0.033480
      9          8           0       -3.280841   -1.212719    0.150304
     10          8           0       -2.082791    0.675682   -0.049385
     11          6           0       -0.897271    1.400346    0.014107
     12          8           0       -0.916341    2.575698   -0.221692
     13          1           0        4.466452    0.571232    0.027629
     14          1           0        4.343881   -1.268368   -0.125412
     15          1           0        1.739787    1.637961   -0.795933
     16          1           0        2.062239    1.732002    0.932662
     17          1           0        0.162043    0.292177    1.453876
     18          1           0        0.248768   -0.518109   -1.472039
     19          1           0        1.866665   -2.198483   -0.704604
     20          1           0        1.444364   -1.868717    0.986585
     21          1           0       -1.131178   -2.406402   -0.197583
 ---------------------------------------------------------------------

 SCF Done:  E(UB3LYP) =  -590.897317674     A.U. after   33 cycles
 SCF Done:  E(UB3LYP) =  -590.897317674     a.u. after    1 cycles

 The electronic state is 2-A.
 Alpha  occ. eigenvalues --  -19.07897 -19.01807 -19.00575 -14.25014 -10.23279
 Alpha  occ. eigenvalues --  -10.20477 -10.12657 -10.09914 -10.09048 -10.08485
 Alpha  occ. eigenvalues --  -10.07938 -10.06177  -1.02739  -0.96686  -0.91988
 Alpha  occ. eigenvalues --   -0.84924  -0.76056  -0.67253  -0.63749  -0.59117
 Alpha  occ. eigenvalues --   -0.56001  -0.53266  -0.47647  -0.44611  -0.43184
 Alpha  occ. eigenvalues --   -0.42323  -0.37999  -0.36815  -0.36273  -0.35313
 Alpha  occ. eigenvalues --   -0.34513  -0.31857  -0.31429  -0.30360  -0.29611
 Alpha  occ. eigenvalues --   -0.27452  -0.26454  -0.25658  -0.24136  -0.22584
 Alpha  occ. eigenvalues --   -0.20521  -0.17920  -0.17324  -0.15699   0.04485
 Alpha virt. eigenvalues --    0.06991   0.07061   0.07475   0.08646   0.09403
 Alpha virt. eigenvalues --    0.09885   0.11028   0.11326   0.12017   0.12964
 Alpha virt. eigenvalues --    0.13268   0.14099   0.15158   0.16540   0.17086

  Beta  occ. eigenvalues --  -19.07887 -19.01694 -19.00564 -14.24967 -10.23261
  Beta  occ. eigenvalues --  -10.20346 -10.12620 -10.09913 -10.09037 -10.08463
  Beta  occ. eigenvalues --  -10.07883 -10.06149  -1.02652  -0.96553  -0.91902
  Beta  occ. eigenvalues --   -0.84864  -0.75993  -0.67167  -0.63676  -0.58993
  Beta  occ. eigenvalues --   -0.55919  -0.53152  -0.47535  -0.44466  -0.43074
  Beta  occ. eigenvalues --   -0.42243  -0.37817  -0.36673  -0.36147  -0.35236
  Beta  occ. eigenvalues --   -0.34462  -0.31788  -0.31229  -0.30224  -0.29519
  Beta  occ. eigenvalues --   -0.27359  -0.26404  -0.25531  -0.24090  -0.22323
  Beta  occ. eigenvalues --   -0.20469  -0.17840  -0.17247  -0.15623
  Beta virt. eigenvalues --    0.07125   0.07674   0.08181   0.08464   0.09128
  Beta virt. eigenvalues --    0.10123   0.10467   0.11438   0.11684   0.12450
  Beta virt. eigenvalues --    0.13414   0.13700   0.14348   0.15078   0.16613

 Mulliken charges and spin densities:
               1          2
     1  C   -0.486933   0.130852
     2  C   -0.876686   2.303225
     3  C    0.845123  -2.242780
     4  C   -0.600832   1.068640
     5  C   -0.126667  -0.106640
     6  C    2.555374  -3.584015
     7  N   -0.094650  -0.047669
     8  C    0.312341  -0.036377
     9  O   -0.349301   0.018088
    10  O   -0.173606   0.000214
    11  C    0.319157  -0.475252
    12  O   -0.295597   0.034038
    13  H   -0.082699   0.206935
    14  H   -0.326749   0.469314
    15  H   -0.001291   0.216670
    16  H    0.067773   0.109441
    17  H   -0.377489   0.651228
    18  H   -0.274278   0.531904
    19  H   -0.868669   1.071850
    20  H   -0.014391   0.211144
    21  H   -0.149930   0.469191
 Sum of Mulliken charges =  -1.00000   1.00000

 Dipole moment (field-independent basis, Debye):
    X=             -0.0179    Y=              3.2871    Z=              1.9064  Tot=              3.8000
 Quadrupole moment (field-independent basis, Debye-Ang):
   XX=           -128.3772   YY=           -116.9637   ZZ=            -94.8691
   XY=              6.7205   XZ=              4.2573   YZ=             -4.1147

 Summary of Natural Population Analysis:

                                       Natural Population
                Natural  -----------------------------------------------
    Atom  No    Charge         Core      Valence    Rydberg      Total
 -----------------------------------------------------------------------
      C    1   -0.19128      0.99947     2.18422    0.00759     3.19128
      C    2    0.00396      0.99955     1.98330    0.01319     2.99604
      C    3   -0.20125      0.99958     2.19278    0.00889     3.20125
      C    4   -0.16582      0.99952     2.15499    0.01131     3.16582
      C    5   -0.00278      0.99955     1.98952    0.01371     3.00278
      C    6   -0.20498      0.99957     2.19460    0.01080     3.20498
      N    7   -0.32811      0.99965     2.81821    0.01025     3.82811
      C    8    0.46658      0.99968     1.50851    0.02523     2.53342
      O    9   -0.30685      0.99986     3.30084    0.00614     4.30685
      O   10   -0.28958      0.99984     3.28257    0.00717     4.28958
      C   11    0.43241      0.99962     1.54314    0.02483     2.56759
      O   12   -0.27161      0.99986     3.26601    0.00573     4.27161
      H   13    0.09319      0.00000     0.40574    0.00107     0.40681
      H   14    0.09736      0.00000     0.40139    0.00125     0.40264
      H   15    0.11286      0.00000     0.38563    0.00151     0.38714
      H   16    0.11004      0.00000     0.38886    0.00109     0.38996
      H   17    0.11745      0.00000     0.38029    0.00226     0.38255
      H   18    0.09474      0.00000     0.40293    0.00232     0.40526
      H   19    0.11727      0.00000     0.37495    0.00779     0.38273
      H   20    0.10841      0.00000     0.38978    0.00181     0.39159
      H   21    0.20799      0.00000     0.28761    0.00441     0.29201
 =======================================================================
   * Total *    0.00000     11.99575    31.83588    0.16837    44.00000

 Normal termination of Gaussian 16 at Wed Dec  9 18:34:44 2020.
