 Gaussian 16, Revision A.03,

 -----------------------------------------------------------
 # opt freq B3LYP/6-31G(d) empiricaldispersion=gd3bj scf=xqc
 -----------------------------------------------------------

 ------------------------------
 CID_61584071_JID_9693_neutraal
 ------------------------------
 Symbolic Z-matrix:
 Charge =  0 Multiplicity = 1

 SCF Done:  E(RB3LYP) =  -920.320395693     A.U. after   15 cycles
 SCF Done:  E(RB3LYP) =  -920.325266280     A.U. after   12 cycles
 SCF Done:  E(RB3LYP) =  -920.322034008     A.U. after   13 cycles
 SCF Done:  E(RB3LYP) =  -920.325945156     A.U. after   13 cycles
 SCF Done:  E(RB3LYP) =  -920.326999545     A.U. after   13 cycles
 SCF Done:  E(RB3LYP) =  -920.327024177     A.U. after   13 cycles
 SCF Done:  E(RB3LYP) =  -920.327346316     A.U. after   12 cycles
 SCF Done:  E(RB3LYP) =  -920.327472912     A.U. after   11 cycles
 SCF Done:  E(RB3LYP) =  -920.327598571     A.U. after   12 cycles
 SCF Done:  E(RB3LYP) =  -920.327700308     A.U. after   11 cycles
 SCF Done:  E(RB3LYP) =  -920.328434605     A.U. after    8 cycles
 SCF Done:  E(RB3LYP) =  -920.328434584     A.U. after    7 cycles
 SCF Done:  E(RB3LYP) =  -920.328434558     A.U. after    6 cycles
 SCF Done:  E(RB3LYP) =  -920.328434792     A.U. after    8 cycles
 SCF Done:  E(RB3LYP) =  -920.328434570     A.U. after    8 cycles
 Optimization completed.
    -- Stationary point found.
 Normal termination of Gaussian 16 at Sat Dec 12 10:33:06 2020.

 --------------------------------------------------------------------
 #N Geom=AllCheck Guess=TCheck SCRF=Check GenChk RB3LYP/6-31G(d) Freq
 --------------------------------------------------------------------

 Structure from the checkpoint file:  "JID_9693.chk"
 ------------------------------
 CID_61584071_JID_9693_neutraal
 ------------------------------
 Charge =  0 Multiplicity = 1

 SCF Done:  E(RB3LYP) =  -920.328434570     A.U. after    1 cycles

  Exact polarizability: 179.157  -1.086 149.973  -2.227   0.817 143.299
 Approx polarizability: 229.710  -5.232 213.657 -15.506  12.032 222.595

                      1                      2                      3
                      A                      A                      A
 Frequencies --     23.2157                38.1160                40.3173
 Red. masses --      6.3842                 3.1535                 3.7499
 Frc consts  --      0.0020                 0.0027                 0.0036
 IR Inten    --      0.5897                 0.6837                 2.4665

                      4                      5                      6
                      A                      A                      A
 Frequencies --     55.9120                66.7310                76.9548
 Red. masses --      3.2312                 3.6166                 3.0195
 Frc consts  --      0.0060                 0.0095                 0.0105
 IR Inten    --      0.5752                 0.1832                 0.0525

                      7                      8                      9
                      A                      A                      A
 Frequencies --     88.2491               102.3638               122.9460
 Red. masses --      5.5041                 4.2076                 4.1786
 Frc consts  --      0.0253                 0.0260                 0.0372
 IR Inten    --      0.1338                 1.1311                 1.5047

                     10                     11                     12
                      A                      A                      A
 Frequencies --    126.5758               152.5885               187.4933
 Red. masses --      3.7628                 3.1552                 3.1718
 Frc consts  --      0.0355                 0.0433                 0.0657
 IR Inten    --      2.3326                 1.1281                 6.8388

                     13                     14                     15
                      A                      A                      A
 Frequencies --    193.9655               212.9777               228.3691
 Red. masses --      2.7726                 3.0929                 1.5364
 Frc consts  --      0.0615                 0.0827                 0.0472
 IR Inten    --      0.6342                 0.0636                 0.1382

                     16                     17                     18
                      A                      A                      A
 Frequencies --    247.3680               255.3337               266.2772
 Red. masses --      1.8987                 1.1214                 3.7844
 Frc consts  --      0.0685                 0.0431                 0.1581
 IR Inten    --      0.9837                 0.9798                 2.2392

                     19                     20                     21
                      A                      A                      A
 Frequencies --    281.8419               317.2837               341.2832
 Red. masses --      3.0127                 2.7030                 2.3452
 Frc consts  --      0.1410                 0.1603                 0.1609
 IR Inten    --      6.0346                 4.5140                 1.0241

                     22                     23                     24
                      A                      A                      A
 Frequencies --    389.0860               415.4611               437.5616
 Red. masses --      3.9904                 8.4680                 2.7410
 Frc consts  --      0.3559                 0.8612                 0.3092
 IR Inten    --      0.7170                 2.8596                 5.4105

                     25                     26                     27
                      A                      A                      A
 Frequencies --    460.9439               474.8839               508.7814
 Red. masses --      2.6422                 3.3066                 2.2032
 Frc consts  --      0.3308                 0.4394                 0.3360
 IR Inten    --      0.7550                 2.9998                 0.4372

                     28                     29                     30
                      A                      A                      A
 Frequencies --    525.7187               543.5809               567.1434
 Red. masses --      1.8542                 1.9869                 1.2571
 Frc consts  --      0.3019                 0.3459                 0.2382
 IR Inten    --     20.1230                53.3380                83.4164

                     31                     32                     33
                      A                      A                      A
 Frequencies --    596.6893               610.9317               640.5316
 Red. masses --      3.5844                 2.4606                 5.1500
 Frc consts  --      0.7519                 0.5411                 1.2449
 IR Inten    --     73.7911                 5.4944                16.3396

                     34                     35                     36
                      A                      A                      A
 Frequencies --    675.5038               698.2896               774.8417
 Red. masses --      3.9873                 1.4640                 5.2288
 Frc consts  --      1.0720                 0.4206                 1.8496
 IR Inten    --      7.7235                89.0921                20.9039

                     37                     38                     39
                      A                      A                      A
 Frequencies --    787.9516               806.8857               826.4281
 Red. masses --      1.2017                 4.2406                 2.0248
 Frc consts  --      0.4396                 1.6267                 0.8148
 IR Inten    --      0.8584                 6.9802                 3.0332

                     40                     41                     42
                      A                      A                      A
 Frequencies --    856.5534               867.4032               871.7714
 Red. masses --      3.7068                 2.8777                 2.2863
 Frc consts  --      1.6024                 1.2757                 1.0238
 IR Inten    --      2.1822                 0.4999                 6.8544

                     43                     44                     45
                      A                      A                      A
 Frequencies --    890.2352               902.0044               923.5242
 Red. masses --      3.3919                 2.3079                 2.1553
 Frc consts  --      1.5838                 1.1064                 1.0831
 IR Inten    --      2.9842                 3.2092                 1.7629

                     46                     47                     48
                      A                      A                      A
 Frequencies --    946.0582               956.3290               966.2884
 Red. masses --      1.1678                 2.0420                 1.7818
 Frc consts  --      0.6158                 1.1003                 0.9802
 IR Inten    --      1.8011                22.8656                 3.7259

                     49                     50                     51
                      A                      A                      A
 Frequencies --    967.1978               985.0240              1016.7116
 Red. masses --      1.5865                 1.5419                 1.3514
 Frc consts  --      0.8744                 0.8814                 0.8230
 IR Inten    --      4.3754                 0.8776                 3.9847

                     52                     53                     54
                      A                      A                      A
 Frequencies --   1029.4210              1055.3736              1081.2537
 Red. masses --      2.5220                 2.2671                 2.1160
 Frc consts  --      1.5747                 1.4878                 1.4575
 IR Inten    --     14.5970                13.0247                37.8256

                     55                     56                     57
                      A                      A                      A
 Frequencies --   1098.4786              1120.0916              1142.0575
 Red. masses --      3.3072                 3.4032                 2.3206
 Frc consts  --      2.3512                 2.5156                 1.7833
 IR Inten    --     91.0526                 7.5353                38.7342

                     58                     59                     60
                      A                      A                      A
 Frequencies --   1166.4053              1168.6969              1189.3981
 Red. masses --      2.3856                 2.3992                 2.2785
 Frc consts  --      1.9123                 1.9307                 1.8991
 IR Inten    --      4.4548                 4.3225               123.9611

                     61                     62                     63
                      A                      A                      A
 Frequencies --   1196.3411              1205.3951              1219.9630
 Red. masses --      2.0987                 1.8679                 1.4253
 Frc consts  --      1.7698                 1.5990                 1.2499
 IR Inten    --    102.1553                 8.7724                18.0470

                     64                     65                     66
                      A                      A                      A
 Frequencies --   1223.3593              1247.4271              1253.2973
 Red. masses --      1.4845                 1.4168                 1.7664
 Frc consts  --      1.3090                 1.2989                 1.6347
 IR Inten    --      4.2313                67.9490                64.4699

                     67                     68                     69
                      A                      A                      A
 Frequencies --   1269.1887              1279.0096              1292.6139
 Red. masses --      2.3778                 1.3792                 1.2039
 Frc consts  --      2.2567                 1.3293                 1.1852
 IR Inten    --     39.5014                80.5179                 0.8576

                     70                     71                     72
                      A                      A                      A
 Frequencies --   1318.0702              1329.7217              1345.0843
 Red. masses --      1.3093                 1.3460                 1.3241
 Frc consts  --      1.3402                 1.4022                 1.4115
 IR Inten    --      3.5465                 6.7143                 3.5121

                     73                     74                     75
                      A                      A                      A
 Frequencies --   1356.6767              1364.0970              1368.6956
 Red. masses --      1.3313                 1.6043                 1.5103
 Frc consts  --      1.4438                 1.7588                 1.6669
 IR Inten    --     13.4392                19.8158                63.2825

                     76                     77                     78
                      A                      A                      A
 Frequencies --   1373.0689              1374.2863              1384.2479
 Red. masses --      1.4203                 1.3230                 1.5541
 Frc consts  --      1.5777                 1.4722                 1.7545
 IR Inten    --     22.0863                 7.9824               117.7202

                     79                     80                     81
                      A                      A                      A
 Frequencies --   1388.4639              1405.7652              1421.2551
 Red. masses --      1.9655                 1.4110                 1.2818
 Frc consts  --      2.2325                 1.6429                 1.5255
 IR Inten    --     26.9517                73.6253                 9.1700

                     82                     83                     84
                      A                      A                      A
 Frequencies --   1427.4827              1436.3535              1451.0292
 Red. masses --      1.2684                 1.2635                 1.3083
 Frc consts  --      1.5229                 1.5358                 1.6229
 IR Inten    --      1.3315                27.9524                17.0184

                     85                     86                     87
                      A                      A                      A
 Frequencies --   1456.1545              1475.1934              1502.5653
 Red. masses --      1.1998                 1.2416                 1.4011
 Frc consts  --      1.4988                 1.5920                 1.8637
 IR Inten    --     63.2650                21.8259                60.2722

                     88                     89                     90
                      A                      A                      A
 Frequencies --   1511.1042              1516.5828              1523.7357
 Red. masses --      1.0435                 1.0792                 1.0792
 Frc consts  --      1.4039                 1.4625                 1.4763
 IR Inten    --      0.3477                 3.1773                25.5399

                     91                     92                     93
                      A                      A                      A
 Frequencies --   1526.4608              1527.0827              1530.2340
 Red. masses --      1.0960                 1.1272                 1.0918
 Frc consts  --      1.5047                 1.5487                 1.5063
 IR Inten    --      1.7132                27.0161                 5.1247

                     94                     95                     96
                      A                      A                      A
 Frequencies --   1532.8656              1540.2860              1551.3093
 Red. masses --      1.0539                 1.1218                 1.0959
 Frc consts  --      1.4590                 1.5681                 1.5538
 IR Inten    --      2.1977                12.9129                 6.1448

                     97                     98                     99
                      A                      A                      A
 Frequencies --   1552.0759              1711.7012              1852.0871
 Red. masses --      1.0726                 8.7165                10.0716
 Frc consts  --      1.5223                15.0470                20.3550
 IR Inten    --      9.5165               262.6314               322.3891

                    100                    101                    102
                      A                      A                      A
 Frequencies --   3026.6147              3032.4218              3042.8408
 Red. masses --      1.0832                 1.0674                 1.0657
 Frc consts  --      5.8460                 5.7833                 5.8134
 IR Inten    --      9.5705                30.5864                73.1378

                    103                    104                    105
                      A                      A                      A
 Frequencies --   3045.2703              3052.6780              3054.3945
 Red. masses --      1.0692                 1.0713                 1.0426
 Frc consts  --      5.8419                 5.8817                 5.7310
 IR Inten    --     37.2948                 9.8388                15.6049

                    106                    107                    108
                      A                      A                      A
 Frequencies --   3063.6598              3066.3849              3069.3031
 Red. masses --      1.0696                 1.0605                 1.0474
 Frc consts  --      5.9149                 5.8749                 5.8137
 IR Inten    --     37.4027                38.1803                28.8516

                    109                    110                    111
                      A                      A                      A
 Frequencies --   3077.6812              3091.6987              3091.9868
 Red. masses --      1.0621                 1.0945                 1.0836
 Frc consts  --      5.9275                 6.1642                 6.1037
 IR Inten    --     43.0460                47.8422                14.3807

                    112                    113                    114
                      A                      A                      A
 Frequencies --   3098.2743              3109.3237              3115.5951
 Red. masses --      1.0849                 1.0979                 1.1016
 Frc consts  --      6.1361                 6.2541                 6.3004
 IR Inten    --      4.8989                19.0223                32.5642

                    115                    116                    117
                      A                      A                      A
 Frequencies --   3120.9329              3124.8758              3132.5843
 Red. masses --      1.0958                 1.1048                 1.1006
 Frc consts  --      6.2883                 6.3562                 6.3636
 IR Inten    --     31.6077                54.2397                28.8452

                    118                    119                    120
                      A                      A                      A
 Frequencies --   3135.5635              3147.4970              3164.4998
 Red. masses --      1.0924                 1.1069                 1.0999
 Frc consts  --      6.3280                 6.4607                 6.4898
 IR Inten    --     11.2825                21.3245                 6.5881

                    121                    122                    123
                      A                      A                      A
 Frequencies --   3174.0461              3676.8442              3682.4385
 Red. masses --      1.1004                 1.0667                 1.0641
 Frc consts  --      6.5319                 8.4962                 8.5015
 IR Inten    --     10.7409                64.3555                68.1472

 - Thermochemistry -
 -------------------
 Temperature   298.150 Kelvin.  Pressure   1.00000 Atm.
 Atom     1 has atomic number  6 and mass  12.00000

 Molecular mass:   272.17361 amu.
 Principal axes and moments of inertia in atomic units:
                           1         2         3
     Eigenvalues --  3386.539737048.779577399.84309
           X            0.99955   0.01584   0.02532
           Y           -0.01519   0.99956  -0.02540
           Z           -0.02571   0.02500   0.99936
 This molecule is an asymmetric top.
 Rotational symmetry number  1.
 Warning -- assumption of classical behavior for rotation
           may cause significant error
 Rotational temperatures (Kelvin)      0.02558     0.01229     0.01170
 Rotational constants (GHZ):           0.53292     0.25604     0.24389
 Zero-point vibrational energy     992932.8 (Joules/Mol)
                                  237.31663 (Kcal/Mol)
 Warning -- explicit consideration of  32 degrees of freedom as
           vibrations may cause significant error
 Vibrational temperatures:     33.40    54.84    58.01    80.44    96.01
          (Kelvin)            110.72   126.97   147.28   176.89   182.11
                              219.54   269.76   279.07   306.43   328.57
                              355.91   367.37   383.11   405.51   456.50
                              491.03   559.81   597.76   629.55   663.20
                              683.25   732.02   756.39   782.09   815.99
                              858.50   878.99   921.58   971.90  1004.68
                             1114.82  1133.69  1160.93  1189.05  1232.39
                             1248.00  1254.28  1280.85  1297.78  1328.75
                             1361.17  1375.94  1390.27  1391.58  1417.23
                             1462.82  1481.11  1518.45  1555.68  1580.47
                             1611.56  1643.17  1678.20  1681.49  1711.28
                             1721.27  1734.29  1755.25  1760.14  1794.77
                             1803.22  1826.08  1840.21  1859.78  1896.41
                             1913.17  1935.28  1951.96  1962.63  1969.25
                             1975.54  1977.29  1991.62  1997.69  2022.58
                             2044.87  2053.83  2066.59  2087.71  2095.08
                             2122.47  2161.86  2174.14  2182.02  2192.32
                             2196.24  2197.13  2201.67  2205.45  2216.13
                             2231.99  2233.09  2462.76  2664.74  4354.62
                             4362.98  4377.97  4381.46  4392.12  4394.59
                             4407.92  4411.84  4416.04  4428.10  4448.26
                             4448.68  4457.73  4473.62  4482.65  4490.33
                             4496.00  4507.09  4511.38  4528.55  4553.01
                             4566.74  5290.16  5298.21

 Zero-point correction=                           0.378188 (Hartree/Particle)
 Thermal correction to Energy=                    0.398695
 Thermal correction to Enthalpy=                  0.399639
 Thermal correction to Gibbs Free Energy=         0.327730
 Sum of electronic and zero-point Energies=           -919.950246
 Sum of electronic and thermal Energies=              -919.929739
 Sum of electronic and thermal Enthalpies=            -919.928795
 Sum of electronic and thermal Free Energies=         -920.000705

                     E (Thermal)             CV                S
                      KCal/Mol        Cal/Mol-Kelvin    Cal/Mol-Kelvin
 Total                  250.185             76.237            151.347
 Electronic               0.000              0.000              0.000
 Translational            0.889              2.981             42.703
 Rotational               0.889              2.981             33.535
 Vibrational            248.408             70.276             75.110
 Vibration     1          0.593              1.985              6.338
 Vibration     2          0.594              1.982              5.355
 Vibration     3          0.594              1.981              5.243
 Vibration     4          0.596              1.975              4.597
 Vibration     5          0.598              1.970              4.248
 Vibration     6          0.599              1.965              3.967
 Vibration     7          0.601              1.957              3.699
 Vibration     8          0.604              1.947              3.409
 Vibration     9          0.610              1.930              3.054
 Vibration    10          0.611              1.927              2.997
 Vibration    11          0.619              1.900              2.640
 Vibration    12          0.632              1.857              2.252
 Vibration    13          0.635              1.848              2.190
 Vibration    14          0.644              1.821              2.018
 Vibration    15          0.651              1.798              1.892
 Vibration    16          0.661              1.767              1.749
 Vibration    17          0.666              1.754              1.693
 Vibration    18          0.672              1.735              1.620
 Vibration    19          0.681              1.707              1.522
 Vibration    20          0.704              1.641              1.324
 Vibration    21          0.721              1.593              1.206
 Vibration    22          0.757              1.494              1.004
 Vibration    23          0.779              1.437              0.908
 Vibration    24          0.798              1.388              0.834
 Vibration    25          0.819              1.337              0.763
 Vibration    26          0.832              1.306              0.724
 Vibration    27          0.864              1.231              0.637
 Vibration    28          0.881              1.193              0.597
 Vibration    29          0.899              1.154              0.558
 Vibration    30          0.923              1.102              0.510
 Vibration    31          0.955              1.039              0.455
 Vibration    32          0.970              1.009              0.431

 Optimization completed.
    -- Stationary point found.
 Normal termination of Gaussian 16 at Sat Dec 12 10:56:40 2020.

 ----------------------------------------------------------------------
 # B3LYP/6-311++G(d,p) empiricaldispersion=gd3bj scf=xqc pop=npa geom=c
 heck
 ----------------------------------------------------------------------

 --------------------------------------
 CID_61584071_JID_9693_Energie_neutraal
 --------------------------------------
 Structure from the checkpoint file:  "JID_9693.chk"
 Charge =  0 Multiplicity = 1

 SCF Done:  E(RB3LYP) =  -920.606391721     A.U. after   16 cycles
 Normal termination of Gaussian 16 at Sat Dec 12 11:06:40 2020.

 ----------------------------------------------------------------------
 # B3LYP/6-311++G(d,p) empiricaldispersion=gd3bj scf=xqc pop=npa geom=c
 heck
 ----------------------------------------------------------------------

 ------------------------------------
 CID_61584071_JID_9693_Energie_kation
 ------------------------------------
 Structure from the checkpoint file:  "JID_9693.chk"
 Charge =  1 Multiplicity = 2

 SCF Done:  E(UB3LYP) =  -920.308800200     A.U. after   24 cycles
 Normal termination of Gaussian 16 at Sat Dec 12 11:27:09 2020.
 Gaussian 16:  ES64L-G16RevA.03 25-Dec-2016

 ----------------------------------------------------------------------
 # B3LYP/6-311++G(d,p) empiricaldispersion=gd3bj scf=xqc pop=npa geom=c
 heck
 ----------------------------------------------------------------------

 -----------------------------------
 CID_61584071_JID_9693_Energie_anion
 -----------------------------------
 Structure from the checkpoint file:  "JID_9693.chk"
 Charge = -1 Multiplicity = 2

                         Standard orientation:
 ---------------------------------------------------------------------
 Center     Atomic      Atomic             Coordinates (Angstroms)
 Number     Number       Type             X           Y           Z
 ---------------------------------------------------------------------
      1          6           0        1.630163    3.105205    0.210010
      2          6           0        2.103012    1.679585    0.513206
      3          6           0        2.248234    1.401133    2.010613
      4          7           0        1.250957    0.672538   -0.166360
      5          6           0        1.758818    0.136166   -1.408940
      6          6           0        2.889105   -0.876242   -1.293920
      7          8           0        3.514308   -1.283963   -2.245201
      8          8           0        3.126833   -1.284162   -0.024094
      9          6           0       -0.045789    0.473203    0.233535
     10          8           0       -0.581401    1.182554    1.092239
     11          7           0       -0.704216   -0.607566   -0.388721
     12          6           0       -0.242727   -1.949779    0.017320
     13          6           0        0.113432   -2.054718    1.507168
     14          8           0       -0.934079   -1.627999    2.358102
     15          6           0       -2.143516   -0.457475   -0.657454
     16          6           0       -3.157051   -0.430425    0.502907
     17          6           0       -4.450850   -0.041983   -0.224496
     18          6           0       -4.009694    1.010951   -1.279219
     19          6           0       -2.480356    0.814050   -1.462213
     20          1           0        0.647321    3.277522    0.652788
     21          1           0        1.562009    3.272811   -0.871206
     22          1           0        2.338906    3.832166    0.621620
     23          1           0        3.092489    1.542702    0.063151
     24          1           0        1.295325    1.523892    2.527109
     25          1           0        2.616512    0.383982    2.172682
     26          1           0        2.971711    2.102293    2.440639
     27          1           0        0.936792   -0.341428   -1.946951
     28          1           0        2.135795    0.943830   -2.049293
     29          1           0        3.858417   -1.927670   -0.082880
     30          1           0       -1.058238   -2.640662   -0.210987
     31          1           0        0.626096   -2.265380   -0.576652
     32          1           0        0.312741   -3.105130    1.747649
     33          1           0        1.039669   -1.496221    1.700269
     34          1           0       -1.022677   -0.665157    2.239013
     35          1           0       -2.391192   -1.323236   -1.286251
     36          1           0       -3.214742   -1.378387    1.043342
     37          1           0       -2.868821    0.350965    1.211068
     38          1           0       -5.221990    0.338076    0.452577
     39          1           0       -4.871889   -0.922322   -0.727154
     40          1           0       -4.221791    2.024809   -0.925215
     41          1           0       -4.553995    0.885346   -2.220565
     42          1           0       -1.938622    1.664634   -1.038400
     43          1           0       -2.178983    0.718300   -2.510266
 ---------------------------------------------------------------------

 SCF Done:  E(UB3LYP) =  -920.598962182     A.U. after   33 cycles
 SCF Done:  E(UB3LYP) =  -920.598962182     a.u. after    1 cycles

 The electronic state is 2-A.
 Alpha  occ. eigenvalues --  -19.07841 -19.02552 -19.02438 -19.00445 -14.25937
 Alpha  occ. eigenvalues --  -14.23535 -10.21875 -10.21024 -10.13308 -10.12514
 Alpha  occ. eigenvalues --  -10.12090 -10.11702 -10.11414 -10.08179 -10.08097
 Alpha  occ. eigenvalues --  -10.07607 -10.06944 -10.06809 -10.06457  -1.02040
 Alpha  occ. eigenvalues --   -0.96840  -0.93209  -0.92799  -0.86210  -0.83508
 Alpha  occ. eigenvalues --   -0.74473  -0.70016  -0.65843  -0.65279  -0.62352
 Alpha  occ. eigenvalues --   -0.60925  -0.59944  -0.55711  -0.53073  -0.52890
 Alpha  occ. eigenvalues --   -0.50234  -0.48243  -0.45341  -0.43271  -0.42144
 Alpha  occ. eigenvalues --   -0.41075  -0.40456  -0.39977  -0.39487  -0.38153
 Alpha  occ. eigenvalues --   -0.37657  -0.36881  -0.35947  -0.34114  -0.33868
 Alpha  occ. eigenvalues --   -0.33285  -0.33099  -0.32539  -0.31629  -0.31126
 Alpha  occ. eigenvalues --   -0.30727  -0.30508  -0.29340  -0.28135  -0.27607
 Alpha  occ. eigenvalues --   -0.26106  -0.25944  -0.25669  -0.25455  -0.25240
 Alpha  occ. eigenvalues --   -0.24639  -0.24051  -0.23498  -0.23284  -0.20601
 Alpha  occ. eigenvalues --   -0.18815  -0.18646  -0.16160  -0.14023   0.03876
 Alpha virt. eigenvalues --    0.05642   0.06299   0.07223   0.07589   0.08054
 Alpha virt. eigenvalues --    0.08136   0.08615   0.08721   0.09637   0.09805
 Alpha virt. eigenvalues --    0.10284   0.10530   0.11055   0.11341   0.11749

  Beta  occ. eigenvalues --  -19.07768 -19.02534 -19.02436 -19.00443 -14.25939
  Beta  occ. eigenvalues --  -14.23536 -10.21872 -10.21020 -10.13273 -10.12500
  Beta  occ. eigenvalues --  -10.12077 -10.11694 -10.11396 -10.08171 -10.08090
  Beta  occ. eigenvalues --  -10.07595 -10.06923 -10.06807 -10.06442  -1.01945
  Beta  occ. eigenvalues --   -0.96837  -0.93134  -0.92793  -0.86202  -0.83501
  Beta  occ. eigenvalues --   -0.74459  -0.69983  -0.65793  -0.65246  -0.62334
  Beta  occ. eigenvalues --   -0.60900  -0.59905  -0.55680  -0.52965  -0.52841
  Beta  occ. eigenvalues --   -0.50211  -0.48216  -0.45282  -0.43255  -0.42116
  Beta  occ. eigenvalues --   -0.41059  -0.40425  -0.39945  -0.39458  -0.38102
  Beta  occ. eigenvalues --   -0.37632  -0.36846  -0.35915  -0.34085  -0.33843
  Beta  occ. eigenvalues --   -0.33261  -0.33087  -0.32515  -0.31593  -0.31081
  Beta  occ. eigenvalues --   -0.30699  -0.30480  -0.29321  -0.28112  -0.27589
  Beta  occ. eigenvalues --   -0.26084  -0.25924  -0.25646  -0.25429  -0.25223
  Beta  occ. eigenvalues --   -0.24621  -0.24038  -0.23456  -0.23264  -0.20546
  Beta  occ. eigenvalues --   -0.18808  -0.18629  -0.16140  -0.14013
  Beta virt. eigenvalues --    0.05817   0.06512   0.07040   0.07630   0.08077
  Beta virt. eigenvalues --    0.08209   0.08410   0.08743   0.08874   0.09844
  Beta virt. eigenvalues --    0.10336   0.10403   0.10754   0.11177   0.11430

 Mulliken charges and spin densities:
               1          2
     1  C    0.170670  -0.701520
     2  C   -0.740941   0.698984
     3  C    0.554877  -0.916306
     4  N    0.419022  -0.002810
     5  C    0.167405  -0.422720
     6  C    0.517848  -0.642939
     7  O   -0.275763   0.059030
     8  O   -0.279742   0.094337
     9  C   -0.643328  -0.372409
    10  O   -0.163297  -0.000254
    11  N    0.158322  -0.014457
    12  C   -0.284541   0.385285
    13  C    0.083189  -0.664876
    14  O   -0.171364  -0.000359
    15  C   -0.395394   0.424032
    16  C   -0.267960   0.092830
    17  C   -0.236407  -0.373609
    18  C   -0.182405  -0.220776
    19  C    0.630900  -0.911300
    20  H    0.107788   0.073080
    21  H   -0.096908   0.226693
    22  H   -0.053122   0.209866
    23  H   -0.265117   0.464757
    24  H    0.207125  -0.022834
    25  H   -0.130273   0.260779
    26  H   -0.111767   0.276539
    27  H    0.151717   0.128443
    28  H   -0.190552   0.419437
    29  H   -0.487293   0.827633
    30  H   -0.052080   0.230255
    31  H   -0.320679   0.519029
    32  H   -0.290456   0.475046
    33  H    0.581301  -0.411016
    34  H    0.219042   0.035885
    35  H    0.036500   0.157152
    36  H    0.190117  -0.007781
    37  H    0.143461   0.028226
    38  H    0.145912   0.008353
    39  H   -0.038219   0.175090
    40  H    0.046126   0.090196
    41  H    0.033610   0.111048
    42  H    0.332989  -0.180152
    43  H   -0.220313   0.394114
 Sum of Mulliken charges =  -1.00000   1.00000

 Dipole moment (field-independent basis, Debye):
    X=             -6.4341    Y=              2.8441    Z=              0.9667  Tot=              7.1008
 Quadrupole moment (field-independent basis, Debye-Ang):
   XX=           -196.7442   YY=           -164.6220   ZZ=           -162.7977
   XY=              7.3411   XZ=              2.5899   YZ=              2.1387

 Summary of Natural Population Analysis:

                                       Natural Population
                Natural  -----------------------------------------------
    Atom  No    Charge         Core      Valence    Rydberg      Total
 -----------------------------------------------------------------------
      C    1   -0.29223      0.99963     2.28630    0.00630     3.29223
      C    2   -0.00161      0.99960     1.98886    0.01316     3.00161
      C    3   -0.29198      0.99963     2.28607    0.00628     3.29198
      N    4   -0.26177      0.99962     2.74616    0.01600     3.76177
      C    5   -0.13583      0.99954     2.12449    0.01180     3.13583
      C    6    0.40078      0.99971     1.57467    0.02483     2.59922
      O    7   -0.30222      0.99987     3.29601    0.00634     4.30222
      O    8   -0.34438      0.99988     3.33599    0.00852     4.34438
      C    9    0.42811      0.99962     1.54540    0.02687     2.57189
      O   10   -0.34696      0.99988     3.34257    0.00452     4.34696
      N   11   -0.29993      0.99965     2.78599    0.01429     3.79993
      C   12   -0.09113      0.99959     2.08073    0.01080     3.09113
      C   13   -0.02314      0.99959     2.01089    0.01266     3.02314
      O   14   -0.37546      0.99990     3.36935    0.00621     4.37546
      C   15    0.00214      0.99956     1.98399    0.01431     2.99786
      C   16   -0.20582      0.99960     2.19886    0.00736     3.20582
      C   17   -0.19063      0.99964     2.18430    0.00669     3.19063
      C   18   -0.19260      0.99965     2.18540    0.00756     3.19260
      C   19   -0.19658      0.99961     2.18793    0.00903     3.19658
      H   20    0.10989      0.00000     0.38915    0.00096     0.39011
      H   21    0.09976      0.00000     0.39930    0.00094     0.40024
      H   22    0.09937      0.00000     0.39992    0.00071     0.40063
      H   23    0.09764      0.00000     0.39982    0.00254     0.40236
      H   24    0.10852      0.00000     0.39053    0.00095     0.39148
      H   25    0.10731      0.00000     0.39128    0.00140     0.39269
      H   26    0.09933      0.00000     0.39996    0.00071     0.40067
      H   27    0.12896      0.00000     0.36976    0.00128     0.37104
      H   28    0.11388      0.00000     0.38481    0.00131     0.38612
      H   29    0.25076      0.00000     0.22289    0.02635     0.24924
      H   30    0.09911      0.00000     0.39969    0.00121     0.40089
      H   31    0.09653      0.00000     0.40159    0.00187     0.40347
      H   32    0.08900      0.00000     0.40990    0.00110     0.41100
      H   33    0.08654      0.00000     0.41155    0.00191     0.41346
      H   34    0.23813      0.00000     0.25896    0.00291     0.26187
      H   35    0.09454      0.00000     0.40401    0.00145     0.40546
      H   36    0.10730      0.00000     0.39174    0.00096     0.39270
      H   37    0.10631      0.00000     0.39247    0.00122     0.39369
      H   38    0.09757      0.00000     0.40152    0.00091     0.40243
      H   39    0.09312      0.00000     0.40561    0.00127     0.40688
      H   40    0.09585      0.00000     0.40323    0.00092     0.40415
      H   41    0.09731      0.00000     0.40179    0.00090     0.40269
      H   42    0.10344      0.00000     0.39513    0.00143     0.39656
      H   43    0.10108      0.00000     0.39776    0.00116     0.39892
 =======================================================================
   * Total *    0.00000     18.99376    54.73631    0.26992    74.00000

 Normal termination of Gaussian 16 at Sat Dec 12 11:55:05 2020.
