 Gaussian 16, Revision A.03,

 -----------------------------------------------------------
 # opt freq B3LYP/6-31G(d) empiricaldispersion=gd3bj scf=xqc
 -----------------------------------------------------------

 -------------------------------
 CID_139385849_JID_4396_neutraal
 -------------------------------
 Symbolic Z-matrix:
 Charge =  0 Multiplicity = 1

 SCF Done:  E(RB3LYP) =  -1351.09921077     A.U. after   15 cycles
 SCF Done:  E(RB3LYP) =  -1351.10307428     A.U. after   12 cycles
 SCF Done:  E(RB3LYP) =  -1351.10466100     A.U. after   12 cycles
 SCF Done:  E(RB3LYP) =  -1351.10561486     A.U. after   13 cycles
 SCF Done:  E(RB3LYP) =  -1351.10628981     A.U. after   13 cycles
 SCF Done:  E(RB3LYP) =  -1351.10659598     A.U. after   12 cycles
 SCF Done:  E(RB3LYP) =  -1351.10671985     A.U. after   12 cycles
 SCF Done:  E(RB3LYP) =  -1351.10673913     A.U. after   10 cycles
 SCF Done:  E(RB3LYP) =  -1351.10674581     A.U. after   10 cycles
 SCF Done:  E(RB3LYP) =  -1351.10674575     A.U. after   10 cycles
 SCF Done:  E(RB3LYP) =  -1351.10674695     A.U. after   11 cycles
 SCF Done:  E(RB3LYP) =  -1351.10674029     A.U. after   11 cycles
 SCF Done:  E(RB3LYP) =  -1351.10673983     A.U. after    7 cycles
 SCF Done:  E(RB3LYP) =  -1351.10674693     A.U. after   11 cycles
 SCF Done:  E(RB3LYP) =  -1351.10674024     A.U. after   11 cycles
 Optimization completed.
    -- Stationary point found.
 Normal termination of Gaussian 16 at Thu Dec 10 09:29:41 2020.

 --------------------------------------------------------------------
 #N Geom=AllCheck Guess=TCheck SCRF=Check GenChk RB3LYP/6-31G(d) Freq
 --------------------------------------------------------------------

 Structure from the checkpoint file:  "JID_4396.chk"
 -------------------------------
 CID_139385849_JID_4396_neutraal
 -------------------------------
 Charge =  0 Multiplicity = 1

 SCF Done:  E(RB3LYP) =  -1351.10674024     A.U. after    1 cycles

  Exact polarizability: 162.746 -12.281  99.735   7.200   5.428 136.916
 Approx polarizability: 232.537 -31.580 149.235  19.205  14.641 242.836

                      1                      2                      3
                      A                      A                      A
 Frequencies --     16.0474                43.0159                69.7410
 Red. masses --      5.9480                 4.0529                 2.7434
 Frc consts  --      0.0009                 0.0044                 0.0079
 IR Inten    --      0.3426                 0.8874                 0.4849

                      4                      5                      6
                      A                      A                      A
 Frequencies --    118.7081               131.5616               134.8127
 Red. masses --      1.1759                 7.5134                 4.1675
 Frc consts  --      0.0098                 0.0766                 0.0446
 IR Inten    --     19.4887                 2.1347                 1.0781

                      7                      8                      9
                      A                      A                      A
 Frequencies --    154.5999               191.2969               254.3440
 Red. masses --      4.3950                 4.0986                 4.8467
 Frc consts  --      0.0619                 0.0884                 0.1847
 IR Inten    --      1.5337                 1.2074                 2.1985

                     10                     11                     12
                      A                      A                      A
 Frequencies --    263.5280               299.1031               323.2041
 Red. masses --      7.0098                 7.8710                 3.9908
 Frc consts  --      0.2868                 0.4149                 0.2456
 IR Inten    --      1.3513                 3.1347                 2.1422

                     13                     14                     15
                      A                      A                      A
 Frequencies --    337.0048               400.9287               434.7718
 Red. masses --      5.3455                 6.5546                 3.3379
 Frc consts  --      0.3577                 0.6208                 0.3717
 IR Inten    --      2.1783                 0.2105                 1.5371

                     16                     17                     18
                      A                      A                      A
 Frequencies --    454.7433               486.3419               491.6002
 Red. masses --      4.0943                 3.5225                 7.0130
 Frc consts  --      0.4988                 0.4909                 0.9986
 IR Inten    --      0.9840                 7.6705                17.0866

                     19                     20                     21
                      A                      A                      A
 Frequencies --    542.6475               586.0241               629.9249
 Red. masses --      3.2271                 6.7315                 3.0442
 Frc consts  --      0.5599                 1.3621                 0.7117
 IR Inten    --    107.8670                48.0181               112.0112

                     22                     23                     24
                      A                      A                      A
 Frequencies --    679.8410               691.1460               779.4805
 Red. masses --      6.5210                 2.7404                 1.2900
 Frc consts  --      1.7757                 0.7713                 0.4618
 IR Inten    --     12.7977                25.9632                 6.4292

                     25                     26                     27
                      A                      A                      A
 Frequencies --    790.2387               802.2183               834.5971
 Red. masses --      3.6734                 1.3895                 1.7602
 Frc consts  --      1.3516                 0.5269                 0.7224
 IR Inten    --     16.2366                27.7817                27.9054

                     28                     29                     30
                      A                      A                      A
 Frequencies --    856.8642               876.2806               884.0480
 Red. masses --      1.5824                 1.3930                 3.1304
 Frc consts  --      0.6845                 0.6302                 1.4414
 IR Inten    --      6.0568                 8.9997                71.4301

                     31                     32                     33
                      A                      A                      A
 Frequencies --    925.4311               946.8044               984.5596
 Red. masses --      1.3342                 1.1607                 2.8364
 Frc consts  --      0.6732                 0.6130                 1.6200
 IR Inten    --      0.0515                11.3958                38.9159

                     34                     35                     36
                      A                      A                      A
 Frequencies --    988.9944              1017.7736              1022.0061
 Red. masses --      1.2943                 5.1880                 2.5762
 Frc consts  --      0.7459                 3.1663                 1.5854
 IR Inten    --      0.3157                 3.7100                 2.2519

                     37                     38                     39
                      A                      A                      A
 Frequencies --   1070.3276              1091.8844              1100.9915
 Red. masses --      1.3035                 1.3527                 5.7750
 Frc consts  --      0.8798                 0.9502                 4.1245
 IR Inten    --      8.2753                 5.7940                86.8285

                     40                     41                     42
                      A                      A                      A
 Frequencies --   1119.6206              1133.9802              1143.7838
 Red. masses --      1.9532                 1.8810                 1.2214
 Frc consts  --      1.4426                 1.4251                 0.9415
 IR Inten    --     26.4577                24.2556                 8.1350

                     43                     44                     45
                      A                      A                      A
 Frequencies --   1159.9362              1199.0195              1208.6515
 Red. masses --      3.5353                 1.9614                 1.1403
 Frc consts  --      2.8025                 1.6614                 0.9815
 IR Inten    --    157.5802                15.7221                 2.1939

                     46                     47                     48
                      A                      A                      A
 Frequencies --   1210.0385              1253.2709              1317.6435
 Red. masses --      1.3593                 1.9112                 6.9933
 Frc consts  --      1.1726                 1.7687                 7.1537
 IR Inten    --      0.2927                 6.3186               123.8077

                     49                     50                     51
                      A                      A                      A
 Frequencies --   1328.5962              1362.4074              1394.7559
 Red. masses --      1.7075                 3.2753                 1.4915
 Frc consts  --      1.7758                 3.5819                 1.7095
 IR Inten    --      8.9974                 1.6301                63.9031

                     52                     53                     54
                      A                      A                      A
 Frequencies --   1421.1868              1465.9049              1485.7561
 Red. masses --      1.3437                 2.8598                 1.0919
 Frc consts  --      1.5990                 3.6208                 1.4201
 IR Inten    --      3.6884                16.6004                 0.8883

                     55                     56                     57
                      A                      A                      A
 Frequencies --   1516.0872              1529.0086              1629.9704
 Red. masses --      2.1063                 1.3842                 5.6788
 Frc consts  --      2.8525                 1.9066                 8.8893
 IR Inten    --     27.6464                 4.0342                 0.4195

                     58                     59                     60
                      A                      A                      A
 Frequencies --   1645.2306              2700.6705              3155.4115
 Red. masses --      5.9060                 1.0385                 1.0805
 Frc consts  --      9.4189                 4.4627                 6.3382
 IR Inten    --     33.0928                 7.4799                10.5208

                     61                     62                     63
                      A                      A                      A
 Frequencies --   3159.9978              3168.9856              3196.2442
 Red. masses --      1.0582                 1.0598                 1.0878
 Frc consts  --      6.2260                 6.2708                 6.5474
 IR Inten    --     17.9137                 5.1247                 3.4734

                     64                     65                     66
                      A                      A                      A
 Frequencies --   3212.2492              3219.5917              3240.9917
 Red. masses --      1.0938                 1.0911                 1.1198
 Frc consts  --      6.6495                 6.6638                 6.9305
 IR Inten    --     11.8039                 1.2771                 2.5116

                     67                     68                     69
                      A                      A                      A
 Frequencies --   3243.4820              3257.2756              3502.3194
 Red. masses --      1.0930                 1.1168                 1.0748
 Frc consts  --      6.7746                 6.9815                 7.7675
 IR Inten    --      2.4276                10.4364                25.5374

 - Thermochemistry -
 -------------------
 Temperature   298.150 Kelvin.  Pressure   1.00000 Atm.
 Atom     1 has atomic number  6 and mass  12.00000

 Molecular mass:   229.02312 amu.
 Principal axes and moments of inertia in atomic units:
                           1         2         3
     Eigenvalues --  2234.647405059.138985407.18610
           X            0.99955   0.02908  -0.00751
           Y           -0.02902   0.99955   0.00790
           Z            0.00774  -0.00768   0.99994
 This molecule is an asymmetric top.
 Rotational symmetry number  1.
 Warning -- assumption of classical behavior for rotation
           may cause significant error
 Rotational temperatures (Kelvin)      0.03876     0.01712     0.01602
 Rotational constants (GHZ):           0.80762     0.35673     0.33377
 Zero-point vibrational energy     498181.9 (Joules/Mol)
                                  119.06832 (Kcal/Mol)
 Warning -- explicit consideration of  20 degrees of freedom as
           vibrations may cause significant error
 Vibrational temperatures:     23.09    61.89   100.34   170.79   189.29
          (Kelvin)            193.97   222.43   275.23   365.94   379.16
                              430.34   465.02   484.87   576.85   625.54
                              654.27   699.74   707.30   780.75   843.16
                              906.32   978.14   994.40  1121.50  1136.98
                             1154.21  1200.80  1232.84  1260.77  1271.95
                             1331.49  1362.24  1416.56  1422.94  1464.35
                             1470.44  1539.96  1570.98  1584.08  1610.88
                             1631.54  1645.65  1668.89  1725.12  1738.98
                             1740.98  1803.18  1895.80  1911.55  1960.20
                             2006.74  2044.77  2109.11  2137.67  2181.31
                             2199.90  2345.16  2367.12  3885.66  4539.93
                             4546.53  4559.46  4598.68  4621.71  4632.27
                             4663.06  4666.65  4686.49  5039.06

 Zero-point correction=                           0.189747 (Hartree/Particle)
 Thermal correction to Energy=                    0.203606
 Thermal correction to Enthalpy=                  0.204551
 Thermal correction to Gibbs Free Energy=         0.147192
 Sum of electronic and zero-point Energies=          -1350.916993
 Sum of electronic and thermal Energies=             -1350.903134
 Sum of electronic and thermal Enthalpies=           -1350.902190
 Sum of electronic and thermal Free Energies=        -1350.959549

                     E (Thermal)             CV                S
                      KCal/Mol        Cal/Mol-Kelvin    Cal/Mol-Kelvin
 Total                  127.765             51.734            120.722
 Electronic               0.000              0.000              0.000
 Translational            0.889              2.981             42.188
 Rotational               0.889              2.981             32.480
 Vibrational            125.988             45.772             46.054
 Vibration     1          0.593              1.986              7.071
 Vibration     2          0.595              1.980              5.115
 Vibration     3          0.598              1.969              4.161
 Vibration     4          0.609              1.934              3.121
 Vibration     5          0.612              1.922              2.923
 Vibration     6          0.613              1.919              2.876
 Vibration     7          0.620              1.898              2.615
 Vibration     8          0.634              1.852              2.215
 Vibration     9          0.665              1.755              1.700
 Vibration    10          0.670              1.740              1.638
 Vibration    11          0.692              1.675              1.422
 Vibration    12          0.708              1.629              1.294
 Vibration    13          0.718              1.602              1.226
 Vibration    14          0.767              1.468              0.959
 Vibration    15          0.795              1.394              0.843
 Vibration    16          0.813              1.350              0.782
 Vibration    17          0.842              1.280              0.693
 Vibration    18          0.847              1.269              0.679
 Vibration    19          0.898              1.156              0.560
 Vibration    20          0.943              1.062              0.474

 Optimization completed.
    -- Stationary point found.
 Normal termination of Gaussian 16 at Thu Dec 10 09:37:23 2020.

 ----------------------------------------------------------------------
 # B3LYP/6-311++G(d,p) empiricaldispersion=gd3bj scf=xqc pop=npa geom=c
 heck
 ----------------------------------------------------------------------

 ---------------------------------------
 CID_139385849_JID_4396_Energie_neutraal
 ---------------------------------------
 Structure from the checkpoint file:  "JID_4396.chk"
 Charge =  0 Multiplicity = 1

 SCF Done:  E(RB3LYP) =  -1351.31842072     A.U. after   17 cycles
 Normal termination of Gaussian 16 at Thu Dec 10 09:41:22 2020.

 ----------------------------------------------------------------------
 # B3LYP/6-311++G(d,p) empiricaldispersion=gd3bj scf=xqc pop=npa geom=c
 heck
 ----------------------------------------------------------------------

 -------------------------------------
 CID_139385849_JID_4396_Energie_kation
 -------------------------------------
 Structure from the checkpoint file:  "JID_4396.chk"
 Charge =  1 Multiplicity = 2

 SCF Done:  E(UB3LYP) =  -1351.00398598     A.U. after   29 cycles
 Normal termination of Gaussian 16 at Thu Dec 10 09:51:13 2020.
 Gaussian 16:  ES64L-G16RevA.03 25-Dec-2016

 ----------------------------------------------------------------------
 # B3LYP/6-311++G(d,p) empiricaldispersion=gd3bj scf=xqc pop=npa geom=c
 heck
 ----------------------------------------------------------------------

 ------------------------------------
 CID_139385849_JID_4396_Energie_anion
 ------------------------------------
 Structure from the checkpoint file:  "JID_4396.chk"
 Charge = -1 Multiplicity = 2

                         Standard orientation:
 ---------------------------------------------------------------------
 Center     Atomic      Atomic             Coordinates (Angstroms)
 Number     Number       Type             X           Y           Z
 ---------------------------------------------------------------------
      1          6           0        2.674523    2.528702   -0.716663
      2          6           0        1.756530    2.199835    0.430915
      3          6           0        2.636374    1.128534   -0.163070
      4          7           0        1.991930    0.132670   -0.987599
      5         16           0        1.381853   -1.230958   -0.181012
      6          8           0        2.201258   -1.564638    0.989728
      7          8           0        1.144285   -2.211951   -1.244269
      8          6           0       -0.185834   -0.612393    0.420942
      9          6           0       -0.338406   -0.350261    1.778658
     10          6           0       -1.562022    0.158378    2.217722
     11          6           0       -2.596716    0.391855    1.316318
     12          6           0       -2.427730    0.113266   -0.049479
     13          6           0       -1.208063   -0.394874   -0.501366
     14         16           0       -3.800649    0.434896   -1.140546
     15          1           0        3.566094    3.118315   -0.526293
     16          1           0        2.220499    2.685920   -1.690039
     17          1           0        2.007449    2.559576    1.423778
     18          1           0        0.694531    2.138702    0.220998
     19          1           0        3.482797    0.789454    0.430964
     20          1           0        2.565318   -0.208934   -1.758971
     21          1           0        0.481600   -0.543575    2.459613
     22          1           0       -1.711592    0.372605    3.271563
     23          1           0       -3.544377    0.786355    1.671211
     24          1           0       -1.042068   -0.625563   -1.548009
     25          1           0       -3.219291   -0.030081   -2.264227
 ---------------------------------------------------------------------

 SCF Done:  E(UB3LYP) =  -1351.31922903     A.U. after   33 cycles
 SCF Done:  E(UB3LYP) =  -1351.31951892     a.u. after    9 cycles

 The electronic state is 2-A.
 Alpha  occ. eigenvalues --  -88.92308 -88.74075 -18.98407 -18.98332 -14.22244
 Alpha  occ. eigenvalues --  -10.10837 -10.07913 -10.07694 -10.06785 -10.04388
 Alpha  occ. eigenvalues --  -10.03766 -10.03761 -10.03523 -10.02513  -7.98473
 Alpha  occ. eigenvalues --   -7.82768  -5.94784  -5.94751  -5.94509  -5.79155
 Alpha  occ. eigenvalues --   -5.78765  -5.78171  -0.98515  -0.87670  -0.82042
 Alpha  occ. eigenvalues --   -0.73586  -0.73133  -0.66577  -0.62709  -0.58136
 Alpha  occ. eigenvalues --   -0.54412  -0.50717  -0.49439  -0.47223  -0.44791
 Alpha  occ. eigenvalues --   -0.41925  -0.39528  -0.38630  -0.37695  -0.34628
 Alpha  occ. eigenvalues --   -0.34346  -0.32429  -0.31328  -0.30492  -0.29247
 Alpha  occ. eigenvalues --   -0.26883  -0.25426  -0.25248  -0.23635  -0.22801
 Alpha  occ. eigenvalues --   -0.22431  -0.21588  -0.19944  -0.19283  -0.18542
 Alpha  occ. eigenvalues --   -0.17617  -0.16888  -0.15727  -0.12931  -0.10024
 Alpha  occ. eigenvalues --    0.05167
 Alpha virt. eigenvalues --    0.06992   0.08547   0.08994   0.09865   0.09902
 Alpha virt. eigenvalues --    0.10509   0.11303   0.11581   0.11944   0.12435
 Alpha virt. eigenvalues --    0.13629   0.14035   0.14784   0.15190   0.15439

  Beta  occ. eigenvalues --  -88.92295 -88.74077 -18.98373 -18.98280 -14.22211
  Beta  occ. eigenvalues --  -10.10832 -10.08003 -10.07686 -10.06774 -10.04042
  Beta  occ. eigenvalues --  -10.03713 -10.03536 -10.03467 -10.02088  -7.98459
  Beta  occ. eigenvalues --   -7.82770  -5.94762  -5.94709  -5.94508  -5.79155
  Beta  occ. eigenvalues --   -5.78765  -5.78177  -0.98367  -0.87566  -0.81969
  Beta  occ. eigenvalues --   -0.73415  -0.72832  -0.66364  -0.62056  -0.57828
  Beta  occ. eigenvalues --   -0.54034  -0.50687  -0.49151  -0.47050  -0.44484
  Beta  occ. eigenvalues --   -0.41830  -0.39310  -0.38519  -0.37548  -0.34355
  Beta  occ. eigenvalues --   -0.34170  -0.32322  -0.31223  -0.30356  -0.29145
  Beta  occ. eigenvalues --   -0.26813  -0.25260  -0.24391  -0.23455  -0.22671
  Beta  occ. eigenvalues --   -0.22296  -0.21463  -0.19873  -0.19203  -0.18328
  Beta  occ. eigenvalues --   -0.17197  -0.16698  -0.15487  -0.11003  -0.09142
  Beta virt. eigenvalues --    0.07272   0.08527   0.08976   0.09780   0.09832
  Beta virt. eigenvalues --    0.10563   0.11104   0.11341   0.11634   0.12016
  Beta virt. eigenvalues --    0.12455   0.13590   0.13981   0.14795   0.15156

 Mulliken charges and spin densities:
               1          2
     1  C   -0.010868  -0.380488
     2  C    0.075773  -0.515129
     3  C   -0.630778   0.530927
     4  N   -0.268839   0.047015
     5  S    0.730128  -0.326792
     6  O   -0.235601   0.013621
     7  O   -0.252398  -0.017435
     8  C    0.172598  -0.042366
     9  C   -0.225995   0.195094
    10  C   -0.562413   0.177106
    11  C    0.061582   0.251869
    12  C    0.147100   0.081937
    13  C   -0.443487   0.318579
    14  S   -0.718293   0.021491
    15  H   -0.062747   0.190067
    16  H    0.108799   0.012837
    17  H   -0.119347   0.267432
    18  H    0.238944  -0.052953
    19  H    0.113134   0.142989
    20  H    0.299862   0.005734
    21  H    0.153961   0.026298
    22  H    0.073711   0.053872
    23  H    0.130480  -0.025452
    24  H    0.143982   0.020777
    25  H    0.080712   0.002971
 Sum of Mulliken charges =  -1.00000   1.00000

 Dipole moment (field-independent basis, Debye):
    X=              0.7345    Y=              2.2782    Z=             -2.5112  Tot=              3.4693
 Quadrupole moment (field-independent basis, Debye-Ang):
   XX=           -135.7732   YY=           -129.2937   ZZ=           -110.6061
   XY=              2.6357   XZ=             -3.7783   YZ=             -2.1044

 Summary of Natural Population Analysis:

                                       Natural Population
                Natural  -----------------------------------------------
    Atom  No    Charge         Core      Valence    Rydberg      Total
 -----------------------------------------------------------------------
      C    1   -0.20252      0.99962     2.19522    0.00768     3.20252
      C    2   -0.19653      0.99962     2.18654    0.01037     3.19653
      C    3   -0.03221      0.99958     2.01789    0.01474     3.03221
      N    4   -0.42936      0.99974     2.91671    0.01291     3.92936
      S    5    1.11303      4.99919     1.78929    0.09850     6.88697
      O    6   -0.47131      0.99991     3.46602    0.00539     4.47131
      O    7   -0.47217      0.99991     3.46679    0.00548     4.47217
      C    8   -0.08196      0.99935     2.06600    0.01661     3.08196
      C    9   -0.09260      0.99950     2.08193    0.01116     3.09260
      C   10   -0.09590      0.99957     2.08628    0.01006     3.09590
      C   11   -0.03336      0.99951     2.02376    0.01009     3.03336
      C   12   -0.10044      0.99940     2.09164    0.00939     3.10044
      C   13   -0.06590      0.99944     2.05677    0.00969     3.06590
      S   14   -0.00319      4.99956     2.98597    0.01765     8.00319
      H   15    0.10021      0.00000     0.39886    0.00094     0.39979
      H   16    0.10377      0.00000     0.39524    0.00099     0.39623
      H   17    0.10349      0.00000     0.39525    0.00126     0.39651
      H   18    0.11762      0.00000     0.38116    0.00122     0.38238
      H   19    0.09997      0.00000     0.39847    0.00156     0.40003
      H   20    0.19007      0.00000     0.30814    0.00179     0.30993
      H   21    0.10909      0.00000     0.38979    0.00112     0.39091
      H   22    0.09354      0.00000     0.40552    0.00094     0.40646
      H   23    0.08825      0.00000     0.41031    0.00144     0.41175
      H   24    0.10210      0.00000     0.39668    0.00123     0.39790
      H   25    0.05632      0.00000     0.44085    0.00283     0.44368
 =======================================================================
   * Total *    0.00000     21.99390    37.75107    0.25504    60.00000

 Normal termination of Gaussian 16 at Thu Dec 10 11:18:09 2020.
