 Gaussian 16, Revision A.03,

 -----------------------------------------------------------
 # opt freq B3LYP/6-31G(d) empiricaldispersion=gd3bj scf=xqc
 -----------------------------------------------------------

 -------------------------------
 CID_117543052_JID_9359_neutraal
 -------------------------------
 Symbolic Z-matrix:
 Charge =  0 Multiplicity = 1

 SCF Done:  E(RB3LYP) =  -900.618259577     A.U. after   14 cycles
 SCF Done:  E(RB3LYP) =  -900.624599424     A.U. after   12 cycles
 SCF Done:  E(RB3LYP) =  -900.624994626     A.U. after   13 cycles
 SCF Done:  E(RB3LYP) =  -900.626059409     A.U. after   13 cycles
 SCF Done:  E(RB3LYP) =  -900.626590475     A.U. after   12 cycles
 SCF Done:  E(RB3LYP) =  -900.627332318     A.U. after   12 cycles
 SCF Done:  E(RB3LYP) =  -900.627759802     A.U. after   11 cycles
 SCF Done:  E(RB3LYP) =  -900.627938860     A.U. after   12 cycles
 SCF Done:  E(RB3LYP) =  -900.627989419     A.U. after   10 cycles
 SCF Done:  E(RB3LYP) =  -900.628037797     A.U. after   11 cycles
 SCF Done:  E(RB3LYP) =  -900.628063511     A.U. after   10 cycles
 SCF Done:  E(RB3LYP) =  -900.628063875     A.U. after    9 cycles
 SCF Done:  E(RB3LYP) =  -900.628063975     A.U. after    8 cycles
 SCF Done:  E(RB3LYP) =  -900.628064027     A.U. after    8 cycles
 SCF Done:  E(RB3LYP) =  -900.628064104     A.U. after    7 cycles
 Optimization completed.
    -- Stationary point found.
 Normal termination of Gaussian 16 at Mon Dec 14 13:33:25 2020.

 --------------------------------------------------------------------
 #N Geom=AllCheck Guess=TCheck SCRF=Check GenChk RB3LYP/6-31G(d) Freq
 --------------------------------------------------------------------

 Structure from the checkpoint file:  "JID_9359.chk"
 -------------------------------
 CID_117543052_JID_9359_neutraal
 -------------------------------
 Charge =  0 Multiplicity = 1

 SCF Done:  E(RB3LYP) =  -900.628064104     A.U. after    1 cycles

  Exact polarizability: 204.157 -12.605 156.518  10.441  10.810 125.657
 Approx polarizability: 274.273 -18.107 243.992  25.117  22.784 196.393

                      1                      2                      3
                      A                      A                      A
 Frequencies --     13.9372                34.3528                40.4645
 Red. masses --      4.8567                 4.1667                10.8295
 Frc consts  --      0.0006                 0.0029                 0.0104
 IR Inten    --      0.0637                 1.0664                 0.7255

                      4                      5                      6
                      A                      A                      A
 Frequencies --     59.7423                69.2563                88.6429
 Red. masses --      3.4809                 3.2418                 3.5443
 Frc consts  --      0.0073                 0.0092                 0.0164
 IR Inten    --      0.2584                 1.9121                 5.1818

                      7                      8                      9
                      A                      A                      A
 Frequencies --    111.4878               157.6778               176.2442
 Red. masses --      4.1029                 5.6433                 3.6112
 Frc consts  --      0.0300                 0.0827                 0.0661
 IR Inten    --      1.1958                 2.9913                 0.6652

                     10                     11                     12
                      A                      A                      A
 Frequencies --    205.9223               213.4838               217.2311
 Red. masses --      3.0568                 3.5706                 1.8513
 Frc consts  --      0.0764                 0.0959                 0.0515
 IR Inten    --      0.7545                 0.3989                 1.9920

                     13                     14                     15
                      A                      A                      A
 Frequencies --    240.6732               259.9856               293.1481
 Red. masses --      3.3941                 1.2409                 1.6604
 Frc consts  --      0.1158                 0.0494                 0.0841
 IR Inten    --      0.8100                 0.0676                 1.5717

                     16                     17                     18
                      A                      A                      A
 Frequencies --    302.6024               317.6798               335.8545
 Red. masses --      2.9511                 2.1854                 3.3952
 Frc consts  --      0.1592                 0.1299                 0.2256
 IR Inten    --      2.1120                 0.6503                 4.6605

                     19                     20                     21
                      A                      A                      A
 Frequencies --    359.7594               376.0203               422.1217
 Red. masses --      3.5675                 2.1681                 7.0966
 Frc consts  --      0.2720                 0.1806                 0.7450
 IR Inten    --      0.8241                 1.2538                 1.4980

                     22                     23                     24
                      A                      A                      A
 Frequencies --    435.9971               474.0428               526.0003
 Red. masses --      4.7232                 3.1875                 3.7977
 Frc consts  --      0.5290                 0.4220                 0.6191
 IR Inten    --      3.9981                 0.6290                11.2576

                     25                     26                     27
                      A                      A                      A
 Frequencies --    536.0719               558.9668               597.6014
 Red. masses --      4.8787                 2.4238                 3.7127
 Frc consts  --      0.8260                 0.4462                 0.7812
 IR Inten    --     18.6151                36.6745                 0.8010

                     28                     29                     30
                      A                      A                      A
 Frequencies --    600.4410               610.1434               645.2667
 Red. masses --      3.7099                 1.2399                 3.5837
 Frc consts  --      0.7880                 0.2720                 0.8792
 IR Inten    --     18.2364                81.3858                32.7400

                     31                     32                     33
                      A                      A                      A
 Frequencies --    648.1016               718.9049               739.8314
 Red. masses --      3.2656                 3.0192                 4.1031
 Frc consts  --      0.8082                 0.9193                 1.3232
 IR Inten    --     23.1152                 4.0919                 1.2323

                     34                     35                     36
                      A                      A                      A
 Frequencies --    749.0038               774.3406               797.6709
 Red. masses --      3.1543                 4.6698                 1.8526
 Frc consts  --      1.0426                 1.6497                 0.6945
 IR Inten    --      5.7591                22.5844                 7.3477

                     37                     38                     39
                      A                      A                      A
 Frequencies --    819.6930               844.8321               852.4311
 Red. masses --      2.8989                 1.5917                 2.1784
 Frc consts  --      1.1476                 0.6694                 0.9326
 IR Inten    --      8.1171                37.4066                 9.8995

                     40                     41                     42
                      A                      A                      A
 Frequencies --    864.4158               913.6057               933.8305
 Red. masses --      2.2902                 2.0825                 1.8079
 Frc consts  --      1.0082                 1.0241                 0.9289
 IR Inten    --     32.9986                 9.6460                 4.7896

                     43                     44                     45
                      A                      A                      A
 Frequencies --    939.6089               956.8302               972.8541
 Red. masses --      1.5074                 4.2134                 2.3813
 Frc consts  --      0.7841                 2.2728                 1.3279
 IR Inten    --      3.6127                17.8406                 0.4558

                     46                     47                     48
                      A                      A                      A
 Frequencies --   1016.1079              1063.6659              1076.7983
 Red. masses --      1.9016                 1.8242                 3.6244
 Frc consts  --      1.1568                 1.2160                 2.4761
 IR Inten    --      1.2018                 0.6434                29.0409

                     49                     50                     51
                      A                      A                      A
 Frequencies --   1090.1354              1094.8065              1106.2933
 Red. masses --      2.9852                 4.5916                 3.0604
 Frc consts  --      2.0902                 3.2426                 2.2068
 IR Inten    --     20.1031                35.5795                47.5522

                     52                     53                     54
                      A                      A                      A
 Frequencies --   1116.9160              1151.5079              1172.9215
 Red. masses --      2.0841                 2.5506                 1.7677
 Frc consts  --      1.5318                 1.9926                 1.4328
 IR Inten    --     61.5659                94.0563                90.4329

                     55                     56                     57
                      A                      A                      A
 Frequencies --   1184.0807              1186.9403              1187.3890
 Red. masses --      1.6165                 1.2774                 1.2716
 Frc consts  --      1.3353                 1.0603                 1.0563
 IR Inten    --     96.2696                 3.6180                 1.7806

                     58                     59                     60
                      A                      A                      A
 Frequencies --   1201.1683              1221.0397              1231.8398
 Red. masses --      1.7328                 1.3997                 1.8830
 Frc consts  --      1.4730                 1.2295                 1.6835
 IR Inten    --     78.2466                 7.6068                23.0483

                     61                     62                     63
                      A                      A                      A
 Frequencies --   1239.1687              1253.5939              1258.0185
 Red. masses --      1.6111                 2.0723                 1.2991
 Frc consts  --      1.4576                 1.9187                 1.2114
 IR Inten    --      8.9589               221.6954                 8.3571

                     64                     65                     66
                      A                      A                      A
 Frequencies --   1272.0732              1292.0114              1313.8079
 Red. masses --      1.4689                 1.3308                 3.3992
 Frc consts  --      1.4005                 1.3088                 3.4569
 IR Inten    --      4.9050                 0.5541                64.7557

                     67                     68                     69
                      A                      A                      A
 Frequencies --   1323.3773              1335.9945              1350.5323
 Red. masses --      1.2914                 1.8020                 1.6249
 Frc consts  --      1.3326                 1.8950                 1.7461
 IR Inten    --     30.0505                71.9813                33.3233

                     70                     71                     72
                      A                      A                      A
 Frequencies --   1371.3450              1389.2415              1395.2243
 Red. masses --      1.4617                 2.6473                 2.3038
 Frc consts  --      1.6196                 3.0102                 2.6423
 IR Inten    --      3.1826                56.2749                 4.6843

                     73                     74                     75
                      A                      A                      A
 Frequencies --   1425.8791              1458.2356              1472.3806
 Red. masses --      1.4224                 1.3668                 2.2567
 Frc consts  --      1.7039                 1.7124                 2.8825
 IR Inten    --      3.0968                 3.9938                25.2071

                     76                     77                     78
                      A                      A                      A
 Frequencies --   1497.0766              1507.1947              1516.7212
 Red. masses --      1.2102                 1.1607                 1.3551
 Frc consts  --      1.5980                 1.5535                 1.8366
 IR Inten    --     30.2158                 2.8837                11.6223

                     79                     80                     81
                      A                      A                      A
 Frequencies --   1519.8447              1520.1987              1523.4281
 Red. masses --      1.0492                 1.0524                 1.0914
 Frc consts  --      1.4279                 1.4329                 1.4924
 IR Inten    --      4.3659                 6.7357                 4.7686

                     82                     83                     84
                      A                      A                      A
 Frequencies --   1534.5808              1537.6498              1538.8923
 Red. masses --      1.1068                 1.0649                 1.0811
 Frc consts  --      1.5356                 1.4835                 1.5084
 IR Inten    --     70.8224                22.0122                 2.3774

                     85                     86                     87
                      A                      A                      A
 Frequencies --   1556.7972              1562.9883              1640.6830
 Red. masses --      1.1058                 2.5484                 6.8076
 Frc consts  --      1.5791                 3.6680                10.7968
 IR Inten    --      3.8830                88.3874                59.5137

                     88                     89                     90
                      A                      A                      A
 Frequencies --   1676.4380              1833.0675              2969.3501
 Red. masses --      6.2944                 9.9658                 1.0723
 Frc consts  --     10.4227                19.7297                 5.5706
 IR Inten    --    156.7950               280.4129                79.0621

                     91                     92                     93
                      A                      A                      A
 Frequencies --   2986.6731              3025.1210              3029.1826
 Red. masses --      1.0737                 1.0346                 1.0342
 Frc consts  --      5.6431                 5.5785                 5.5910
 IR Inten    --     85.5507                60.0475                53.7084

                     94                     95                     96
                      A                      A                      A
 Frequencies --   3078.9137              3083.1283              3083.2802
 Red. masses --      1.0622                 1.1052                 1.0917
 Frc consts  --      5.9328                 6.1895                 6.1147
 IR Inten    --     15.0932                28.6821                52.7358

                     97                     98                     99
                      A                      A                      A
 Frequencies --   3089.3604              3109.2667              3113.0579
 Red. masses --      1.1066                 1.0703                 1.0864
 Frc consts  --      6.2229                 6.0962                 6.2034
 IR Inten    --     40.9998                37.3688                13.3170

                    100                    101                    102
                      A                      A                      A
 Frequencies --   3125.1773              3156.4393              3158.2328
 Red. masses --      1.1018                 1.0998                 1.1004
 Frc consts  --      6.3399                 6.4562                 6.4667
 IR Inten    --     10.5690                31.1085                22.9684

                    103                    104                    105
                      A                      A                      A
 Frequencies --   3184.3901              3185.6130              3234.8545
 Red. masses --      1.0970                 1.0889                 1.0913
 Frc consts  --      6.5541                 6.5104                 6.7285
 IR Inten    --      3.4473                18.6209                11.4281

                    106                    107                    108
                      A                      A                      A
 Frequencies --   3243.6117              3507.4788              3687.4317
 Red. masses --      1.0897                 1.0748                 1.0641
 Frc consts  --      6.7548                 7.7905                 8.5247
 IR Inten    --      3.2125                 1.0153                48.6408

 - Thermochemistry -
 -------------------
 Temperature   298.150 Kelvin.  Pressure   1.00000 Atm.
 Atom     1 has atomic number  6 and mass  12.00000

 Molecular mass:   265.13141 amu.
 Principal axes and moments of inertia in atomic units:
                           1         2         3
     Eigenvalues --  2700.298298279.001808983.35344
           X            0.99996  -0.00415  -0.00770
           Y            0.00443   0.99931   0.03677
           Z            0.00755  -0.03680   0.99929
 This molecule is an asymmetric top.
 Rotational symmetry number  1.
 Warning -- assumption of classical behavior for rotation
           may cause significant error
 Rotational temperatures (Kelvin)      0.03208     0.01046     0.00964
 Rotational constants (GHZ):           0.66835     0.21799     0.20090
 Zero-point vibrational energy     843818.2 (Joules/Mol)
                                  201.67740 (Kcal/Mol)
 Warning -- explicit consideration of  29 degrees of freedom as
           vibrations may cause significant error
 Vibrational temperatures:     20.05    49.43    58.22    85.96    99.64
          (Kelvin)            127.54   160.41   226.86   253.58   296.28
                              307.16   312.55   346.28   374.06   421.77
                              435.38   457.07   483.22   517.61   541.01
                              607.34   627.30   682.04   756.80   771.29
                              804.23   859.82   863.90   877.86   928.39
                              932.47  1034.34  1064.45  1077.65  1114.10
                             1147.67  1179.36  1215.52  1226.46  1243.70
                             1314.47  1343.57  1351.89  1376.67  1399.72
                             1461.95  1530.38  1549.27  1568.46  1575.18
                             1591.71  1606.99  1656.76  1687.57  1703.63
                             1707.74  1708.39  1728.21  1756.80  1772.34
                             1782.89  1803.64  1810.01  1830.23  1858.92
                             1890.28  1904.04  1922.20  1943.11  1973.06
                             1998.81  2007.42  2051.52  2098.08  2118.43
                             2153.96  2168.52  2182.22  2186.72  2187.23
                             2191.87  2207.92  2212.34  2214.12  2239.88
                             2248.79  2360.58  2412.02  2637.38  4272.23
                             4297.16  4352.47  4358.32  4429.87  4435.93
                             4436.15  4444.90  4473.54  4479.00  4496.43
                             4541.41  4543.99  4581.63  4583.39  4654.23
                             4666.83  5046.48  5305.39

 Zero-point correction=                           0.321393 (Hartree/Particle)
 Thermal correction to Energy=                    0.339705
 Thermal correction to Enthalpy=                  0.340649
 Thermal correction to Gibbs Free Energy=         0.273114
 Sum of electronic and zero-point Energies=           -900.306671
 Sum of electronic and thermal Energies=              -900.288359
 Sum of electronic and thermal Enthalpies=            -900.287415
 Sum of electronic and thermal Free Energies=         -900.354950

                     E (Thermal)             CV                S
                      KCal/Mol        Cal/Mol-Kelvin    Cal/Mol-Kelvin
 Total                  213.168             69.507            142.140
 Electronic               0.000              0.000              0.000
 Translational            0.889              2.981             42.624
 Rotational               0.889              2.981             33.662
 Vibrational            211.391             63.545             65.854
 Vibration     1          0.593              1.986              7.352
 Vibration     2          0.594              1.983              5.561
 Vibration     3          0.594              1.981              5.236
 Vibration     4          0.597              1.973              4.466
 Vibration     5          0.598              1.969              4.174
 Vibration     6          0.601              1.957              3.690
 Vibration     7          0.607              1.940              3.243
 Vibration     8          0.621              1.894              2.577
 Vibration     9          0.628              1.872              2.368
 Vibration    10          0.640              1.831              2.080
 Vibration    11          0.644              1.820              2.014
 Vibration    12          0.646              1.815              1.982
 Vibration    13          0.658              1.778              1.798
 Vibration    14          0.668              1.746              1.662
 Vibration    15          0.688              1.687              1.456
 Vibration    16          0.694              1.669              1.402
 Vibration    17          0.704              1.640              1.322
 Vibration    18          0.717              1.604              1.232
 Vibration    19          0.734              1.555              1.123
 Vibration    20          0.747              1.521              1.055
 Vibration    21          0.784              1.422              0.885
 Vibration    22          0.796              1.392              0.839
 Vibration    23          0.831              1.308              0.726
 Vibration    24          0.881              1.192              0.596
 Vibration    25          0.891              1.170              0.574
 Vibration    26          0.915              1.120              0.526
 Vibration    27          0.956              1.037              0.454
 Vibration    28          0.959              1.031              0.449
 Vibration    29          0.969              1.010              0.433

                           ! Non-Optimized Parameters !
 Normal termination of Gaussian 16 at Mon Dec 14 13:55:06 2020.

 ----------------------------------------------------------------------
 # B3LYP/6-311++G(d,p) empiricaldispersion=gd3bj scf=xqc pop=npa geom=c
 heck
 ----------------------------------------------------------------------

 ---------------------------------------
 CID_117543052_JID_9359_Energie_neutraal
 ---------------------------------------
 Structure from the checkpoint file:  "JID_9359.chk"
 Charge =  0 Multiplicity = 1

 SCF Done:  E(RB3LYP) =  -900.890645556     A.U. after   15 cycles
 Normal termination of Gaussian 16 at Mon Dec 14 14:04:39 2020.

 ----------------------------------------------------------------------
 # B3LYP/6-311++G(d,p) empiricaldispersion=gd3bj scf=xqc pop=npa geom=c
 heck
 ----------------------------------------------------------------------

 -------------------------------------
 CID_117543052_JID_9359_Energie_kation
 -------------------------------------
 Structure from the checkpoint file:  "JID_9359.chk"
 Charge =  1 Multiplicity = 2

 SCF Done:  E(UB3LYP) =  -900.619242727     A.U. after   24 cycles
 Normal termination of Gaussian 16 at Mon Dec 14 14:26:39 2020.
 Gaussian 16:  ES64L-G16RevA.03 25-Dec-2016

 ----------------------------------------------------------------------
 # B3LYP/6-311++G(d,p) empiricaldispersion=gd3bj scf=xqc pop=npa geom=c
 heck
 ----------------------------------------------------------------------

 ------------------------------------
 CID_117543052_JID_9359_Energie_anion
 ------------------------------------
 Structure from the checkpoint file:  "JID_9359.chk"
 Charge = -1 Multiplicity = 2

                         Standard orientation:
 ---------------------------------------------------------------------
 Center     Atomic      Atomic             Coordinates (Angstroms)
 Number     Number       Type             X           Y           Z
 ---------------------------------------------------------------------
      1          6           0        5.179788   -1.505634    0.069204
      2          8           0        4.467029   -0.299454    0.280465
      3          6           0        3.160195   -0.258623   -0.116727
      4          6           0        2.504805    0.956847    0.122704
      5          6           0        1.168979    1.109319   -0.236065
      6          6           0        0.443103    0.052785   -0.830933
      7          6           0        1.140925   -1.125149   -1.082727
      8          6           0        2.481846   -1.309168   -0.732328
      9          6           0       -1.004286    0.210162   -1.231526
     10          6           0       -2.053646   -0.230716   -0.174877
     11          6           0       -1.992490    0.595523    1.154094
     12          6           0       -2.048552   -0.452843    2.268526
     13          7           0       -1.314677   -1.565881    1.665472
     14          6           0       -1.855239   -1.704830    0.313267
     15          6           0       -3.429510   -0.096838   -0.810123
     16          8           0       -3.665681    0.185606   -1.964930
     17          8           0       -4.434860   -0.334948    0.078173
     18          8           0        0.479639    2.279395   -0.052113
     19          6           0        1.167364    3.384303    0.508307
     20          1           0        6.183499   -1.335038    0.462594
     21          1           0        5.245207   -1.753379   -0.998598
     22          1           0        4.716621   -2.345446    0.603771
     23          1           0        3.073137    1.753544    0.584630
     24          1           0        0.623834   -1.936179   -1.588334
     25          1           0        2.970445   -2.250456   -0.950447
     26          1           0       -1.204416    1.252941   -1.491408
     27          1           0       -1.188747   -0.371928   -2.139657
     28          1           0       -2.801016    1.327004    1.225773
     29          1           0       -1.047203    1.133854    1.190640
     30          1           0       -1.553124   -0.117773    3.186502
     31          1           0       -3.098093   -0.696343    2.510480
     32          1           0       -1.416525   -2.427581    2.196944
     33          1           0       -2.819090   -2.238903    0.288074
     34          1           0       -1.154390   -2.249077   -0.324822
     35          1           0       -5.261584   -0.225509   -0.427628
     36          1           0        0.442178    4.198949    0.546883
     37          1           0        1.522952    3.163859    1.523113
     38          1           0        2.020351    3.682995   -0.114341
 ---------------------------------------------------------------------

 SCF Done:  E(UB3LYP) =  -900.878904633     A.U. after   33 cycles
 SCF Done:  E(UB3LYP) =  -900.878904633     a.u. after    1 cycles

 The electronic state is 2-A.
 Alpha  occ. eigenvalues --  -19.07694 -19.06944 -19.06604 -19.02673 -14.20474
 Alpha  occ. eigenvalues --  -10.21434 -10.14689 -10.14584 -10.14012 -10.13440
 Alpha  occ. eigenvalues --  -10.10971 -10.10431 -10.09657 -10.08541 -10.08376
 Alpha  occ. eigenvalues --  -10.07995 -10.07938 -10.07715 -10.07450  -1.01932
 Alpha  occ. eigenvalues --   -0.98565  -0.98180  -0.92985  -0.83060  -0.76780
 Alpha  occ. eigenvalues --   -0.71828  -0.67875  -0.66749  -0.64343  -0.62271
 Alpha  occ. eigenvalues --   -0.61645  -0.57491  -0.55324  -0.51916  -0.50555
 Alpha  occ. eigenvalues --   -0.49989  -0.46740  -0.45192  -0.43279  -0.42240
 Alpha  occ. eigenvalues --   -0.40745  -0.40123  -0.39205  -0.38227  -0.38026
 Alpha  occ. eigenvalues --   -0.37691  -0.36913  -0.36411  -0.35564  -0.34622
 Alpha  occ. eigenvalues --   -0.33320  -0.32830  -0.31973  -0.30899  -0.29860
 Alpha  occ. eigenvalues --   -0.28955  -0.28569  -0.27856  -0.27439  -0.26479
 Alpha  occ. eigenvalues --   -0.25689  -0.25078  -0.24568  -0.24353  -0.23655
 Alpha  occ. eigenvalues --   -0.23343  -0.21274  -0.19103  -0.14933  -0.13764
 Alpha  occ. eigenvalues --   -0.12481   0.03791
 Alpha virt. eigenvalues --    0.05111   0.05568   0.06851   0.07266   0.07935
 Alpha virt. eigenvalues --    0.08118   0.08495   0.08679   0.09033   0.09106
 Alpha virt. eigenvalues --    0.09692   0.09914   0.10442   0.10733   0.10985

  Beta  occ. eigenvalues --  -19.07652 -19.06940 -19.06596 -19.02664 -14.20461
  Beta  occ. eigenvalues --  -10.21430 -10.14688 -10.14582 -10.13983 -10.13402
  Beta  occ. eigenvalues --  -10.10967 -10.10418 -10.09644 -10.08534 -10.08375
  Beta  occ. eigenvalues --  -10.07993 -10.07934 -10.07705 -10.07441  -1.01880
  Beta  occ. eigenvalues --   -0.98555  -0.98162  -0.92940  -0.83042  -0.76770
  Beta  occ. eigenvalues --   -0.71809  -0.67853  -0.66729  -0.64317  -0.62232
  Beta  occ. eigenvalues --   -0.61607  -0.57461  -0.55263  -0.51890  -0.50513
  Beta  occ. eigenvalues --   -0.49954  -0.46704  -0.45158  -0.43234  -0.42219
  Beta  occ. eigenvalues --   -0.40729  -0.40104  -0.39185  -0.38201  -0.38004
  Beta  occ. eigenvalues --   -0.37670  -0.36886  -0.36377  -0.35539  -0.34595
  Beta  occ. eigenvalues --   -0.33291  -0.32806  -0.31948  -0.30875  -0.29839
  Beta  occ. eigenvalues --   -0.28934  -0.28550  -0.27836  -0.27416  -0.26457
  Beta  occ. eigenvalues --   -0.25670  -0.25055  -0.24549  -0.24331  -0.23625
  Beta  occ. eigenvalues --   -0.23328  -0.21257  -0.19069  -0.14922  -0.13735
  Beta  occ. eigenvalues --   -0.12467
  Beta virt. eigenvalues --    0.05701   0.06237   0.06357   0.07366   0.07661
  Beta virt. eigenvalues --    0.08115   0.08447   0.08540   0.09105   0.09313
  Beta virt. eigenvalues --    0.09455   0.09839   0.09996   0.10694   0.10913

 Mulliken charges and spin densities:
               1          2
     1  C    0.628796  -0.974077
     2  O   -0.208963   0.049450
     3  C    0.403283  -0.809045
     4  C   -0.808881   0.309019
     5  C   -1.182201   0.963762
     6  C    1.311681  -0.501473
     7  C   -0.155052  -0.291867
     8  C    0.110143  -0.155031
     9  C   -0.100205  -0.158785
    10  C    0.035472   0.670644
    11  C   -0.503650  -0.082014
    12  C    0.013054  -0.364939
    13  N   -0.354196   0.161200
    14  C    0.240840  -0.886085
    15  C    0.592333  -0.668772
    16  O   -0.273718  -0.003384
    17  O   -0.161109   0.044061
    18  O   -0.128859   0.014782
    19  C    0.249077  -0.538322
    20  H   -0.461639   0.636438
    21  H   -0.116135   0.272323
    22  H   -0.146142   0.308834
    23  H    0.127426   0.082131
    24  H   -0.197552   0.336759
    25  H   -0.134139   0.330208
    26  H    0.197805   0.039356
    27  H    0.232701   0.004613
    28  H   -0.138688   0.339547
    29  H    0.626151  -0.499620
    30  H   -0.103016   0.281362
    31  H    0.015526   0.134938
    32  H    0.090732   0.168564
    33  H   -0.233185   0.418923
    34  H    0.225375  -0.114589
    35  H   -0.277488   0.581126
    36  H   -0.276553   0.461718
    37  H   -0.061575   0.219937
    38  H   -0.077450   0.218306
 Sum of Mulliken charges =  -1.00000   1.00000

 Dipole moment (field-independent basis, Debye):
    X=              0.1075    Y=              1.0055    Z=             -0.2011  Tot=              1.0310
 Quadrupole moment (field-independent basis, Debye-Ang):
   XX=           -225.5919   YY=           -155.7289   ZZ=           -149.1701
   XY=              8.0658   XZ=             -3.6190   YZ=              0.7740

 Summary of Natural Population Analysis:

                                       Natural Population
                Natural  -----------------------------------------------
    Atom  No    Charge         Core      Valence    Rydberg      Total
 -----------------------------------------------------------------------
      C    1   -0.10079      0.99960     2.09209    0.00911     3.10079
      O    2   -0.27377      0.99986     3.26396    0.00995     4.27377
      C    3    0.16963      0.99939     1.81778    0.01321     2.83037
      C    4   -0.16264      0.99948     2.15453    0.00863     3.16264
      C    5    0.17180      0.99934     1.81662    0.01223     2.82820
      C    6   -0.04711      0.99947     2.03691    0.01073     3.04711
      C    7   -0.07725      0.99953     2.06865    0.00906     3.07725
      C    8   -0.15637      0.99951     2.14801    0.00884     3.15637
      C    9   -0.19477      0.99957     2.18455    0.01064     3.19477
      C   10   -0.07672      0.99951     2.06368    0.01353     3.07672
      C   11   -0.19042      0.99959     2.18102    0.00982     3.19042
      C   12   -0.08834      0.99963     2.07849    0.01022     3.08834
      N   13   -0.33781      0.99975     2.82743    0.01063     3.83781
      C   14   -0.08115      0.99959     2.07038    0.01117     3.08115
      C   15    0.41691      0.99961     1.55694    0.02654     2.58309
      O   16   -0.30800      0.99987     3.30208    0.00605     4.30800
      O   17   -0.34893      0.99988     3.34184    0.00722     4.34893
      O   18   -0.27602      0.99986     3.26718    0.00899     4.27602
      C   19   -0.10178      0.99960     2.09290    0.00928     3.10178
      H   20    0.09416      0.00000     0.40457    0.00127     0.40584
      H   21    0.08442      0.00000     0.41402    0.00156     0.41558
      H   22    0.08609      0.00000     0.41224    0.00166     0.41391
      H   23    0.11013      0.00000     0.38823    0.00163     0.38987
      H   24    0.09792      0.00000     0.40061    0.00148     0.40208
      H   25    0.10646      0.00000     0.39225    0.00128     0.39354
      H   26    0.11435      0.00000     0.38425    0.00139     0.38565
      H   27    0.10897      0.00000     0.38993    0.00110     0.39103
      H   28    0.10490      0.00000     0.39374    0.00136     0.39510
      H   29    0.11123      0.00000     0.38673    0.00204     0.38877
      H   30    0.09366      0.00000     0.40539    0.00095     0.40634
      H   31    0.08302      0.00000     0.41512    0.00187     0.41698
      H   32    0.17544      0.00000     0.32225    0.00230     0.32456
      H   33    0.08807      0.00000     0.41011    0.00182     0.41193
      H   34    0.09649      0.00000     0.40201    0.00150     0.40351
      H   35    0.24224      0.00000     0.24754    0.01022     0.25776
      H   36    0.09521      0.00000     0.40387    0.00092     0.40479
      H   37    0.08548      0.00000     0.41325    0.00127     0.41452
      H   38    0.08530      0.00000     0.41347    0.00123     0.41470
 =======================================================================
   * Total *    0.00000     18.99263    51.76464    0.24272    71.00000

 Normal termination of Gaussian 16 at Mon Dec 14 14:57:05 2020.
