 Gaussian 16, Revision A.03,

 -----------------------------------------------------------
 # opt freq B3LYP/6-31G(d) empiricaldispersion=gd3bj scf=xqc
 -----------------------------------------------------------

 ------------------------------
 CID_90256630_JID_7307_neutraal
 ------------------------------
 Symbolic Z-matrix:
 Charge =  0 Multiplicity = 1

 SCF Done:  E(RB3LYP) =  -779.838265464     A.U. after   15 cycles
 SCF Done:  E(RB3LYP) =  -779.844865117     A.U. after   13 cycles
 SCF Done:  E(RB3LYP) =  -779.844604986     A.U. after   13 cycles
 SCF Done:  E(RB3LYP) =  -779.846316696     A.U. after   12 cycles
 SCF Done:  E(RB3LYP) =  -779.846714624     A.U. after   12 cycles
 SCF Done:  E(RB3LYP) =  -779.846945423     A.U. after   13 cycles
 SCF Done:  E(RB3LYP) =  -779.847113718     A.U. after   11 cycles
 SCF Done:  E(RB3LYP) =  -779.847188027     A.U. after   12 cycles
 SCF Done:  E(RB3LYP) =  -779.847221761     A.U. after   10 cycles
 SCF Done:  E(RB3LYP) =  -779.847231529     A.U. after   10 cycles
 SCF Done:  E(RB3LYP) =  -779.847245250     A.U. after    8 cycles
 SCF Done:  E(RB3LYP) =  -779.847245552     A.U. after    8 cycles
 SCF Done:  E(RB3LYP) =  -779.847245697     A.U. after    8 cycles
 SCF Done:  E(RB3LYP) =  -779.847245743     A.U. after    7 cycles
 Optimization completed.
    -- Stationary point found.
 Normal termination of Gaussian 16 at Thu Dec 17 20:12:15 2020.

 --------------------------------------------------------------------
 #N Geom=AllCheck Guess=TCheck SCRF=Check GenChk RB3LYP/6-31G(d) Freq
 --------------------------------------------------------------------

 Structure from the checkpoint file:  "JID_7307.chk"
 ------------------------------
 CID_90256630_JID_7307_neutraal
 ------------------------------
 Charge =  0 Multiplicity = 1

 SCF Done:  E(RB3LYP) =  -779.847245743     A.U. after    1 cycles

  Exact polarizability: 226.366  -3.881 158.335   3.584   0.167  73.651
 Approx polarizability: 293.727 -12.185 292.747   4.068   2.666 116.340

                      1                      2                      3
                      A                      A                      A
 Frequencies --     31.7655                42.3340                59.7410
 Red. masses --      4.7932                 4.4402                 3.8044
 Frc consts  --      0.0028                 0.0047                 0.0080
 IR Inten    --      1.0210                 2.8895                 4.0811

                      4                      5                      6
                      A                      A                      A
 Frequencies --     74.4998                97.3487               112.0544
 Red. masses --      4.7497                 1.7277                 2.4965
 Frc consts  --      0.0155                 0.0096                 0.0185
 IR Inten    --      4.6651                 2.1866                 1.1889

                      7                      8                      9
                      A                      A                      A
 Frequencies --    136.1993               164.5106               204.8249
 Red. masses --      1.3268                 2.9895                 4.1931
 Frc consts  --      0.0145                 0.0477                 0.1036
 IR Inten    --      0.7200                 1.4591                 4.3196

                     10                     11                     12
                      A                      A                      A
 Frequencies --    227.2816               264.3076               271.7988
 Red. masses --      2.9146                 5.7673                 4.1638
 Frc consts  --      0.0887                 0.2374                 0.1812
 IR Inten    --      3.7621                 6.7181                 5.8976

                     13                     14                     15
                      A                      A                      A
 Frequencies --    282.5755               334.3504               367.3999
 Red. masses --      5.1143                 4.2816                 6.2518
 Frc consts  --      0.2406                 0.2820                 0.4972
 IR Inten    --      4.0238                 3.6473                 1.4636

                     16                     17                     18
                      A                      A                      A
 Frequencies --    394.9128               417.2341               439.0909
 Red. masses --      2.9448                 3.1306                 5.4084
 Frc consts  --      0.2706                 0.3211                 0.6144
 IR Inten    --      8.8291                 4.3693                10.1903

                     19                     20                     21
                      A                      A                      A
 Frequencies --    480.4508               503.1044               536.5889
 Red. masses --      3.5190                 3.0064                 2.8464
 Frc consts  --      0.4786                 0.4483                 0.4829
 IR Inten    --     19.2799                15.7066                11.5644

                     22                     23                     24
                      A                      A                      A
 Frequencies --    602.6261               631.0838               645.2642
 Red. masses --      2.7934                 5.8766                 3.4982
 Frc consts  --      0.5977                 1.3789                 0.8582
 IR Inten    --    133.2104                13.3422               177.8526

                     25                     26                     27
                      A                      A                      A
 Frequencies --    676.1454               705.2664               709.6257
 Red. masses --      6.5703                 2.5888                 7.1374
 Frc consts  --      1.7698                 0.7587                 2.1176
 IR Inten    --      8.5000                11.8337                15.5162

                     28                     29                     30
                      A                      A                      A
 Frequencies --    750.7140               768.4347               775.5711
 Red. masses --      3.1190                 3.3813                 2.5509
 Frc consts  --      1.0356                 1.1764                 0.9040
 IR Inten    --     29.4395                 1.8146                37.2168

                     31                     32                     33
                      A                      A                      A
 Frequencies --    783.4987               846.1681               875.1653
 Red. masses --      6.5942                 1.2494                 1.6500
 Frc consts  --      2.3850                 0.5271                 0.7446
 IR Inten    --     17.7707                 2.1047                19.9268

                     34                     35                     36
                      A                      A                      A
 Frequencies --    901.8457               912.0600               958.6299
 Red. masses --      5.0415                 1.4072                 3.9004
 Frc consts  --      2.4159                 0.6897                 2.1118
 IR Inten    --     67.8271                 4.9872                 3.6671

                     37                     38                     39
                      A                      A                      A
 Frequencies --    964.6449               992.6867              1019.9924
 Red. masses --      1.3275                 1.2525                 5.9123
 Frc consts  --      0.7278                 0.7272                 3.6241
 IR Inten    --      0.8378                 0.6302                 0.2937

                     40                     41                     42
                      A                      A                      A
 Frequencies --   1054.5198              1078.6973              1093.2041
 Red. masses --      3.3264                 2.2587                 1.3916
 Frc consts  --      2.1794                 1.5485                 0.9798
 IR Inten    --     14.0373                76.0335                 3.5091

                     43                     44                     45
                      A                      A                      A
 Frequencies --   1104.7765              1128.2933              1139.5736
 Red. masses --      1.9052                 1.5035                 1.4139
 Frc consts  --      1.3700                 1.1277                 1.0818
 IR Inten    --     12.6243                 3.0377                30.9275

                     46                     47                     48
                      A                      A                      A
 Frequencies --   1143.5995              1182.5498              1195.3216
 Red. masses --      1.7591                 1.3927                 1.0906
 Frc consts  --      1.3555                 1.1475                 0.9181
 IR Inten    --     69.5444                12.9195                 0.7176

                     49                     50                     51
                      A                      A                      A
 Frequencies --   1216.1903              1257.3875              1280.4116
 Red. masses --      1.1416                 2.8134                 4.9103
 Frc consts  --      0.9949                 2.6208                 4.7431
 IR Inten    --      1.2631                55.6716                 3.4232

                     52                     53                     54
                      A                      A                      A
 Frequencies --   1315.2940              1324.0350              1357.4758
 Red. masses --      3.3635                 2.7851                 4.2090
 Frc consts  --      3.4283                 2.8766                 4.5698
 IR Inten    --     83.2241                11.1337                 1.2873

                     55                     56                     57
                      A                      A                      A
 Frequencies --   1368.9847              1375.8722              1447.6995
 Red. masses --      3.3447                 1.9023                 2.0151
 Frc consts  --      3.6932                 2.1217                 2.4883
 IR Inten    --    159.5073                97.3849               105.1797

                     58                     59                     60
                      A                      A                      A
 Frequencies --   1458.9385              1471.4975              1491.9427
 Red. masses --      1.2737                 1.9766                 1.1471
 Frc consts  --      1.5973                 2.5216                 1.5044
 IR Inten    --     30.4313                22.0118                 6.7433

                     61                     62                     63
                      A                      A                      A
 Frequencies --   1509.9044              1510.9843              1522.7105
 Red. masses --      1.2359                 1.8932                 1.0781
 Frc consts  --      1.6601                 2.5467                 1.4728
 IR Inten    --     47.2390                11.1368                16.1876

                     64                     65                     66
                      A                      A                      A
 Frequencies --   1532.4936              1549.2710              1563.3045
 Red. masses --      1.0486                 2.3152                 1.3263
 Frc consts  --      1.4510                 3.2742                 1.9097
 IR Inten    --     13.6688               130.4498                36.8692

                     67                     68                     69
                      A                      A                      A
 Frequencies --   1639.3479              1648.3777              1665.0120
 Red. masses --      6.3111                 6.0946                 5.5531
 Frc consts  --      9.9931                 9.7568                 9.0702
 IR Inten    --    185.7137                31.1746                27.2868

                     70                     71                     72
                      A                      A                      A
 Frequencies --   1725.5089              1785.5541              3029.8981
 Red. masses --      9.6801                12.1907                 1.0442
 Frc consts  --     16.9810                22.8995                 5.6480
 IR Inten    --    257.5966               333.5740                50.1183

                     73                     74                     75
                      A                      A                      A
 Frequencies --   3042.3486              3087.5905              3107.8275
 Red. masses --      1.0477                 1.0976                 1.0971
 Frc consts  --      5.7134                 6.1649                 6.2433
 IR Inten    --     88.3349                36.3093                22.5149

                     76                     77                     78
                      A                      A                      A
 Frequencies --   3189.5235              3192.5777              3198.6592
 Red. masses --      1.0855                 1.0967                 1.0900
 Frc consts  --      6.5065                 6.5860                 6.5709
 IR Inten    --      1.2542                 1.3889                16.8928

                     79                     80                     81
                      A                      A                      A
 Frequencies --   3202.0085              3212.7511              3222.3473
 Red. masses --      1.0955                 1.0944                 1.0942
 Frc consts  --      6.6178                 6.6557                 6.6942
 IR Inten    --     13.5831                31.0887                 5.5626

                     82                     83                     84
                      A                      A                      A
 Frequencies --   3266.7201              3283.4594              3530.2249
 Red. masses --      1.0926                 1.0979                 1.0777
 Frc consts  --      6.8698                 6.9738                 7.9130
 IR Inten    --      1.0491                 1.9172                23.0246

 - Thermochemistry -
 -------------------
 Temperature   298.150 Kelvin.  Pressure   1.00000 Atm.
 Atom     1 has atomic number  6 and mass  12.00000

 Molecular mass:   231.10078 amu.
 Principal axes and moments of inertia in atomic units:
                           1         2         3
     Eigenvalues --  1378.506397530.643978598.03043
           X            0.99992  -0.01256   0.00253
           Y            0.01257   0.99992  -0.00335
           Z           -0.00249   0.00338   0.99999
 This molecule is an asymmetric top.
 Rotational symmetry number  1.
 Warning -- assumption of classical behavior for rotation
           may cause significant error
 Rotational temperatures (Kelvin)      0.06283     0.01150     0.01007
 Rotational constants (GHZ):           1.30920     0.23965     0.20990
 Zero-point vibrational energy     632025.8 (Joules/Mol)
                                  151.05780 (Kcal/Mol)
 Warning -- explicit consideration of  22 degrees of freedom as
           vibrations may cause significant error
 Vibrational temperatures:     45.70    60.91    85.95   107.19   140.06
          (Kelvin)            161.22   195.96   236.69   294.70   327.01
                              380.28   391.06   406.56   481.06   528.61
                              568.19   600.31   631.75   691.26   723.86
                              772.03   867.04   907.99   928.39   972.82
                             1014.72  1020.99  1080.11  1105.61  1115.87
                             1127.28  1217.45  1259.17  1297.55  1312.25
                             1379.25  1387.91  1428.25  1467.54  1517.22
                             1552.00  1572.88  1589.53  1623.36  1639.59
                             1645.38  1701.43  1719.80  1749.83  1809.10
                             1842.23  1892.41  1904.99  1953.10  1969.66
                             1979.57  2082.92  2099.09  2117.16  2146.57
                             2172.42  2173.97  2190.84  2204.92  2229.06
                             2249.25  2358.66  2371.65  2395.58  2482.62
                             2569.01  4359.35  4377.26  4442.35  4471.47
                             4589.01  4593.41  4602.16  4606.98  4622.43
                             4636.24  4700.08  4724.17  5079.21

 Zero-point correction=                           0.240726 (Hartree/Particle)
 Thermal correction to Energy=                    0.256193
 Thermal correction to Enthalpy=                  0.257137
 Thermal correction to Gibbs Free Energy=         0.196708
 Sum of electronic and zero-point Energies=           -779.606520
 Sum of electronic and thermal Energies=              -779.591053
 Sum of electronic and thermal Enthalpies=            -779.590109
 Sum of electronic and thermal Free Energies=         -779.650537

                     E (Thermal)             CV                S
                      KCal/Mol        Cal/Mol-Kelvin    Cal/Mol-Kelvin
 Total                  160.763             57.876            127.183
 Electronic               0.000              0.000              0.000
 Translational            0.889              2.981             42.215
 Rotational               0.889              2.981             32.856
 Vibrational            158.986             51.915             52.111
 Vibration     1          0.594              1.983              5.716
 Vibration     2          0.595              1.980              5.147
 Vibration     3          0.597              1.973              4.466
 Vibration     4          0.599              1.966              4.031
 Vibration     5          0.603              1.951              3.507
 Vibration     6          0.607              1.939              3.233
 Vibration     7          0.614              1.917              2.857
 Vibration     8          0.623              1.886              2.497
 Vibration     9          0.640              1.833              2.089
 Vibration    10          0.651              1.799              1.900
 Vibration    11          0.671              1.738              1.633
 Vibration    12          0.675              1.725              1.585
 Vibration    13          0.682              1.706              1.518
 Vibration    14          0.716              1.607              1.239
 Vibration    15          0.740              1.539              1.091
 Vibration    16          0.762              1.481              0.982
 Vibration    17          0.780              1.433              0.901
 Vibration    18          0.799              1.385              0.829
 Vibration    19          0.837              1.293              0.709
 Vibration    20          0.858              1.243              0.650
 Vibration    21          0.892              1.169              0.573
 Vibration    22          0.961              1.026              0.445

                           ! Non-Optimized Parameters !
 Normal termination of Gaussian 16 at Thu Dec 17 20:21:52 2020.

 ----------------------------------------------------------------------
 # B3LYP/6-311++G(d,p) empiricaldispersion=gd3bj scf=xqc pop=npa geom=c
 heck
 ----------------------------------------------------------------------

 --------------------------------------
 CID_90256630_JID_7307_Energie_neutraal
 --------------------------------------
 Structure from the checkpoint file:  "JID_7307.chk"
 Charge =  0 Multiplicity = 1

 SCF Done:  E(RB3LYP) =  -780.064043212     A.U. after   15 cycles
 Normal termination of Gaussian 16 at Thu Dec 17 20:25:40 2020.

 ----------------------------------------------------------------------
 # B3LYP/6-311++G(d,p) empiricaldispersion=gd3bj scf=xqc pop=npa geom=c
 heck
 ----------------------------------------------------------------------

 ------------------------------------
 CID_90256630_JID_7307_Energie_kation
 ------------------------------------
 Structure from the checkpoint file:  "JID_7307.chk"
 Charge =  1 Multiplicity = 2

 SCF Done:  E(UB3LYP) =  -779.772430586     A.U. after   33 cycles
 SCF Done:  E(UB3LYP) =  -779.772430592     a.u. after    2 cycles
 Normal termination of Gaussian 16 at Thu Dec 17 20:47:18 2020.
 Gaussian 16:  ES64L-G16RevA.03 25-Dec-2016

 ----------------------------------------------------------------------
 # B3LYP/6-311++G(d,p) empiricaldispersion=gd3bj scf=xqc pop=npa geom=c
 heck
 ----------------------------------------------------------------------

 -----------------------------------
 CID_90256630_JID_7307_Energie_anion
 -----------------------------------
 Structure from the checkpoint file:  "JID_7307.chk"
 Charge = -1 Multiplicity = 2

                         Standard orientation:
 ---------------------------------------------------------------------
 Center     Atomic      Atomic             Coordinates (Angstroms)
 Number     Number       Type             X           Y           Z
 ---------------------------------------------------------------------
      1          6           0        4.837102   -0.736628   -0.531465
      2          7           0        3.475358   -0.610536   -0.038304
      3          6           0        3.004547   -1.708189    0.791859
      4          6           0        2.832961    0.583276   -0.214952
      5          8           0        3.401728    1.580356   -0.667212
      6          6           0        1.390774    0.683255    0.142501
      7          6           0        0.829865    1.871769    0.493825
      8          7           0       -0.538493    1.783929    0.544769
      9          7           0       -0.867024    0.437518    0.352722
     10          6           0        0.298808   -0.289047   -0.002665
     11          8           0        0.295479   -1.459443   -0.361268
     12          6           0       -2.211496    0.086331    0.100325
     13          6           0       -3.158170    1.078216   -0.186104
     14          6           0       -4.490970    0.722618   -0.386086
     15          6           0       -4.885731   -0.612824   -0.317338
     16          6           0       -3.931906   -1.595429   -0.044771
     17          6           0       -2.598620   -1.259254    0.173598
     18          1           0        5.563852   -0.676209    0.290812
     19          1           0        5.033352    0.071580   -1.234116
     20          1           0        4.956389   -1.706049   -1.029125
     21          1           0        2.123502   -1.415333    1.357696
     22          1           0        2.746777   -2.585266    0.189960
     23          1           0        3.797391   -1.979215    1.501308
     24          1           0        1.319825    2.814575    0.692586
     25          1           0       -1.038103    2.219214    1.316315
     26          1           0       -2.848704    2.113160   -0.280290
     27          1           0       -5.218636    1.497536   -0.609523
     28          1           0       -5.924031   -0.886139   -0.478817
     29          1           0       -4.226548   -2.639633    0.006537
     30          1           0       -1.854589   -2.016472    0.377828
 ---------------------------------------------------------------------

 SCF Done:  E(UB3LYP) =  -780.064906763     A.U. after   33 cycles
 SCF Done:  E(UB3LYP) =  -780.064906763     a.u. after    1 cycles

 The electronic state is 2-A.
 Alpha  occ. eigenvalues --  -18.95193 -18.94623 -14.25275 -14.24413 -14.22222
 Alpha  occ. eigenvalues --  -10.14158 -10.13151 -10.09644 -10.09300 -10.08731
 Alpha  occ. eigenvalues --  -10.06432 -10.06104 -10.05910 -10.05453 -10.05449
 Alpha  occ. eigenvalues --  -10.05380 -10.03231  -0.93352  -0.90671  -0.87923
 Alpha  occ. eigenvalues --   -0.81492  -0.75872  -0.71127  -0.66006  -0.63362
 Alpha  occ. eigenvalues --   -0.62142  -0.61073  -0.58454  -0.51678  -0.50867
 Alpha  occ. eigenvalues --   -0.48264  -0.45083  -0.43401  -0.42221  -0.39465
 Alpha  occ. eigenvalues --   -0.37173  -0.36773  -0.36050  -0.35183  -0.34366
 Alpha  occ. eigenvalues --   -0.32559  -0.31431  -0.30909  -0.30543  -0.29772
 Alpha  occ. eigenvalues --   -0.29042  -0.28330  -0.28054  -0.26979  -0.25788
 Alpha  occ. eigenvalues --   -0.25223  -0.25141  -0.23573  -0.22743  -0.18210
 Alpha  occ. eigenvalues --   -0.14607  -0.14197  -0.12573  -0.12048  -0.11415
 Alpha  occ. eigenvalues --   -0.09016   0.04841
 Alpha virt. eigenvalues --    0.07259   0.07482   0.08258   0.09272   0.09597
 Alpha virt. eigenvalues --    0.09855   0.10057   0.10612   0.11008   0.11713
 Alpha virt. eigenvalues --    0.12164   0.13106   0.13694   0.14070   0.14374

  Beta  occ. eigenvalues --  -18.95151 -18.94497 -14.25309 -14.24269 -14.22208
  Beta  occ. eigenvalues --  -10.14098 -10.13030 -10.09515 -10.09300 -10.08724
  Beta  occ. eigenvalues --  -10.06454 -10.05849 -10.05527 -10.05409 -10.05386
  Beta  occ. eigenvalues --  -10.05367 -10.03274  -0.93173  -0.90587  -0.87685
  Beta  occ. eigenvalues --   -0.81447  -0.75625  -0.70877  -0.65723  -0.63261
  Beta  occ. eigenvalues --   -0.61973  -0.60945  -0.58336  -0.51465  -0.50570
  Beta  occ. eigenvalues --   -0.47972  -0.44830  -0.43188  -0.42097  -0.39365
  Beta  occ. eigenvalues --   -0.37017  -0.36646  -0.35952  -0.34917  -0.34179
  Beta  occ. eigenvalues --   -0.32405  -0.31331  -0.30636  -0.30399  -0.29749
  Beta  occ. eigenvalues --   -0.28944  -0.28229  -0.27873  -0.26845  -0.25446
  Beta  occ. eigenvalues --   -0.25119  -0.24803  -0.23515  -0.21847  -0.17251
  Beta  occ. eigenvalues --   -0.14350  -0.13977  -0.12419  -0.11939  -0.10526
  Beta  occ. eigenvalues --   -0.08397
  Beta virt. eigenvalues --    0.07203   0.07562   0.08778   0.09301   0.09695
  Beta virt. eigenvalues --    0.09764   0.09985   0.10259   0.10946   0.11828
  Beta virt. eigenvalues --    0.12029   0.12308   0.13110   0.13647   0.14018

 Mulliken charges and spin densities:
               1          2
     1  C   -0.277054  -0.032751
     2  N    0.012362   0.006148
     3  C   -0.384667  -0.060578
     4  C   -0.736661   0.133456
     5  O   -0.386191   0.014608
     6  C    0.362747   0.256080
     7  C    0.266210  -0.063859
     8  N   -0.140153  -0.024630
     9  N    0.361710   0.009288
    10  C   -0.102266  -0.096824
    11  O   -0.392249   0.045994
    12  C   -0.241620  -0.269890
    13  C    0.066925   0.010810
    14  C   -0.067678   0.019024
    15  C   -0.327408  -0.011130
    16  C   -0.339958   0.147623
    17  C    0.032063   0.092103
    18  H    0.122557   0.014252
    19  H    0.170083   0.001463
    20  H    0.123541   0.004189
    21  H    0.175994   0.030697
    22  H    0.193085  -0.009381
    23  H    0.037477   0.058850
    24  H    0.124854   0.007734
    25  H   -0.242053   0.555504
    26  H    0.095446   0.076176
    27  H    0.047943   0.096435
    28  H    0.111985  -0.013909
    29  H    0.132364   0.006199
    30  H    0.200613  -0.003681
 Sum of Mulliken charges =  -1.00000   1.00000

 Dipole moment (field-independent basis, Debye):
    X=              0.6616    Y=             -3.0622    Z=              0.8882  Tot=              3.2563
 Quadrupole moment (field-independent basis, Debye-Ang):
   XX=           -145.9733   YY=           -123.3061   ZZ=           -115.2744
   XY=             -7.3168   XZ=              6.9509   YZ=             -2.5818

 Summary of Natural Population Analysis:

                                       Natural Population
                Natural  -----------------------------------------------
    Atom  No    Charge         Core      Valence    Rydberg      Total
 -----------------------------------------------------------------------
      C    1   -0.17727      0.99966     2.17105    0.00655     3.17727
      N    2   -0.24967      0.99965     2.74215    0.00787     3.74967
      C    3   -0.17141      0.99965     2.16515    0.00662     3.17141
      C    4    0.34798      0.99959     1.63045    0.02198     2.65202
      O    5   -0.33846      0.99988     3.33351    0.00507     4.33846
      C    6   -0.17445      0.99941     2.16348    0.01157     3.17445
      C    7    0.15827      0.99953     1.82917    0.01302     2.84173
      N    8   -0.18242      0.99969     2.67102    0.01171     3.68242
      N    9   -0.16063      0.99961     2.64906    0.01196     3.66063
      C   10    0.33504      0.99961     1.64119    0.02417     2.66496
      O   11   -0.32888      0.99988     3.32348    0.00552     4.32888
      C   12    0.10201      0.99948     1.88676    0.01175     2.89799
      C   13   -0.11082      0.99953     2.10194    0.00935     3.11082
      C   14   -0.10636      0.99957     2.09576    0.01102     3.10636
      C   15   -0.11002      0.99957     2.10125    0.00920     3.11002
      C   16   -0.09032      0.99958     2.08259    0.00815     3.09032
      C   17   -0.11673      0.99953     2.10684    0.01037     3.11673
      H   18    0.08427      0.00000     0.41440    0.00133     0.41573
      H   19    0.11331      0.00000     0.38557    0.00111     0.38669
      H   20    0.08675      0.00000     0.41212    0.00113     0.41325
      H   21    0.11210      0.00000     0.38702    0.00088     0.38790
      H   22    0.09671      0.00000     0.40225    0.00103     0.40329
      H   23    0.08054      0.00000     0.41793    0.00154     0.41946
      H   24    0.09551      0.00000     0.40340    0.00109     0.40449
      H   25    0.19703      0.00000     0.29475    0.00822     0.30297
      H   26    0.10753      0.00000     0.39124    0.00124     0.39247
      H   27    0.09544      0.00000     0.40381    0.00075     0.40456
      H   28    0.09293      0.00000     0.40628    0.00079     0.40707
      H   29    0.09375      0.00000     0.40545    0.00080     0.40625
      H   30    0.11827      0.00000     0.38062    0.00112     0.38173
 =======================================================================
   * Total *    0.00000     16.99342    43.79967    0.20691    61.00000

 Normal termination of Gaussian 16 at Thu Dec 17 20:58:40 2020.
