 Gaussian 16, Revision A.03,

 -----------------------------------------------------------
 # opt freq B3LYP/6-31G(d) empiricaldispersion=gd3bj scf=xqc
 -----------------------------------------------------------

 ------------------------------
 CID_20270934_JID_2165_neutraal
 ------------------------------
 Symbolic Z-matrix:
 Charge =  0 Multiplicity = 1

 SCF Done:  E(RB3LYP) =  -486.616089808     A.U. after   12 cycles
 SCF Done:  E(RB3LYP) =  -486.619144570     A.U. after   11 cycles
 SCF Done:  E(RB3LYP) =  -486.619480407     A.U. after   10 cycles
 SCF Done:  E(RB3LYP) =  -486.619770037     A.U. after   10 cycles
 SCF Done:  E(RB3LYP) =  -486.619944386     A.U. after   10 cycles
 SCF Done:  E(RB3LYP) =  -486.620127093     A.U. after   10 cycles
 SCF Done:  E(RB3LYP) =  -486.620182778     A.U. after    9 cycles
 SCF Done:  E(RB3LYP) =  -486.620201026     A.U. after    9 cycles
 SCF Done:  E(RB3LYP) =  -486.620205893     A.U. after    8 cycles
 SCF Done:  E(RB3LYP) =  -486.620212480     A.U. after    8 cycles
 SCF Done:  E(RB3LYP) =  -486.620561390     A.U. after    8 cycles
 SCF Done:  E(RB3LYP) =  -486.620566585     A.U. after    9 cycles
 SCF Done:  E(RB3LYP) =  -486.620564530     A.U. after    9 cycles
 SCF Done:  E(RB3LYP) =  -486.620569064     A.U. after    9 cycles
 SCF Done:  E(RB3LYP) =  -486.620569257     A.U. after    7 cycles
 SCF Done:  E(RB3LYP) =  -486.620569274     A.U. after    6 cycles
 Optimization completed.
    -- Stationary point found.
 Normal termination of Gaussian 16 at Wed Dec  9 17:24:00 2020.

 --------------------------------------------------------------------
 #N Geom=AllCheck Guess=TCheck SCRF=Check GenChk RB3LYP/6-31G(d) Freq
 --------------------------------------------------------------------

 Structure from the checkpoint file:  "JID_2165.chk"
 ------------------------------
 CID_20270934_JID_2165_neutraal
 ------------------------------
 Charge =  0 Multiplicity = 1

 SCF Done:  E(RB3LYP) =  -486.620569274     A.U. after    1 cycles

  Exact polarizability: 137.321   1.046 110.762   0.061   1.531 103.195
 Approx polarizability: 162.190  -0.028 160.108  -1.396   3.363 158.083

                      1                      2                      3
                      A                      A                      A
 Frequencies --     29.6715                45.4579                96.8286
 Red. masses --      2.8374                 2.5833                 2.6280
 Frc consts  --      0.0015                 0.0031                 0.0145
 IR Inten    --      0.0740                 0.0068                 0.3181

                      4                      5                      6
                      A                      A                      A
 Frequencies --    120.1405               200.9045               213.8027
 Red. masses --      2.5957                 2.5569                 2.5476
 Frc consts  --      0.0221                 0.0608                 0.0686
 IR Inten    --      0.3601                 0.5178                 0.9195

                      7                      8                      9
                      A                      A                      A
 Frequencies --    227.1204               251.8850               281.8523
 Red. masses --      1.2260                 1.4599                 1.7972
 Frc consts  --      0.0373                 0.0546                 0.0841
 IR Inten    --      0.1261                 0.0668                 0.6255

                     10                     11                     12
                      A                      A                      A
 Frequencies --    297.3315               311.5080               393.6107
 Red. masses --      1.3634                 2.4612                 2.1629
 Frc consts  --      0.0710                 0.1407                 0.1974
 IR Inten    --      0.0835                 1.1331                 0.0320

                     13                     14                     15
                      A                      A                      A
 Frequencies --    398.8860               456.7175               489.0834
 Red. masses --      2.3233                 2.8837                 2.6253
 Frc consts  --      0.2178                 0.3544                 0.3700
 IR Inten    --      1.3745                 6.5277                 0.4865

                     16                     17                     18
                      A                      A                      A
 Frequencies --    536.4490               632.2120               642.1756
 Red. masses --      1.7828                 2.6517                 2.3993
 Frc consts  --      0.3023                 0.6244                 0.5830
 IR Inten    --      1.2652                 0.2568                 0.5674

                     19                     20                     21
                      A                      A                      A
 Frequencies --    672.2023               773.9592               802.3049
 Red. masses --      2.7138                 2.6655                 2.5672
 Frc consts  --      0.7225                 0.9407                 0.9736
 IR Inten    --      2.2779                 0.4603                 1.3273

                     22                     23                     24
                      A                      A                      A
 Frequencies --    841.9920               870.1057               892.6606
 Red. masses --      1.9888                 2.1292                 2.3815
 Frc consts  --      0.8307                 0.9498                 1.1181
 IR Inten    --      0.4930                 3.9580                 0.6436

                     25                     26                     27
                      A                      A                      A
 Frequencies --    902.5279               918.8326               931.8916
 Red. masses --      2.7749                 2.4723                 1.9470
 Frc consts  --      1.3317                 1.2298                 0.9962
 IR Inten    --      6.6099                 0.3716                 2.5526

                     28                     29                     30
                      A                      A                      A
 Frequencies --    935.1728               958.0063               977.7773
 Red. masses --      1.5947                 1.5268                 1.4442
 Frc consts  --      0.8217                 0.8256                 0.8135
 IR Inten    --      1.1126                 3.2819                 2.8717

                     31                     32                     33
                      A                      A                      A
 Frequencies --    982.2010              1028.6585              1034.1104
 Red. masses --      1.5886                 1.6039                 1.4426
 Frc consts  --      0.9029                 0.9999                 0.9089
 IR Inten    --      0.6146                 3.6180                 0.3653

                     34                     35                     36
                      A                      A                      A
 Frequencies --   1043.1612              1046.3857              1098.4291
 Red. masses --      1.5684                 1.5837                 2.4677
 Frc consts  --      1.0056                 1.0217                 1.7543
 IR Inten    --      1.8489                 2.6359                 3.6565

                     37                     38                     39
                      A                      A                      A
 Frequencies --   1102.0168              1116.3044              1136.6522
 Red. masses --      2.0518                 1.6402                 1.8564
 Frc consts  --      1.4682                 1.2043                 1.4131
 IR Inten    --      4.9315                 6.0071                12.9468

                     40                     41                     42
                      A                      A                      A
 Frequencies --   1149.4971              1184.9695              1194.7605
 Red. masses --      1.7385                 1.9821                 1.6025
 Frc consts  --      1.3535                 1.6398                 1.3478
 IR Inten    --     13.7107                13.4707                 9.1339

                     43                     44                     45
                      A                      A                      A
 Frequencies --   1211.2912              1243.6496              1251.9423
 Red. masses --      2.2278                 1.3762                 1.5071
 Frc consts  --      1.9259                 1.2541                 1.3917
 IR Inten    --      8.1175                 5.2325                13.7926

                     46                     47                     48
                      A                      A                      A
 Frequencies --   1255.0079              1265.8985              1268.2182
 Red. masses --      1.7371                 1.3991                 1.3393
 Frc consts  --      1.6120                 1.3210                 1.2691
 IR Inten    --     14.1136                 8.8672                 1.8612

                     49                     50                     51
                      A                      A                      A
 Frequencies --   1302.3511              1320.5728              1333.3843
 Red. masses --      1.6102                 1.3045                 1.2292
 Frc consts  --      1.6091                 1.3403                 1.2876
 IR Inten    --      0.4687                 0.1046                 2.0392

                     52                     53                     54
                      A                      A                      A
 Frequencies --   1343.2683              1347.7674              1358.2360
 Red. masses --      1.2905                 1.3633                 1.3119
 Frc consts  --      1.3719                 1.4590                 1.4259
 IR Inten    --      7.2569                 3.4484                 9.9279

                     55                     56                     57
                      A                      A                      A
 Frequencies --   1366.3148              1369.8182              1385.9892
 Red. masses --      1.4618                 1.4615                 1.4259
 Frc consts  --      1.6078                 1.6157                 1.6138
 IR Inten    --      4.4775                 1.8166                 4.4400

                     58                     59                     60
                      A                      A                      A
 Frequencies --   1397.3989              1410.5900              1437.1285
 Red. masses --      1.3218                 1.5212                 1.3228
 Frc consts  --      1.5208                 1.7834                 1.6097
 IR Inten    --      3.7068                11.1417                14.0741

                     61                     62                     63
                      A                      A                      A
 Frequencies --   1440.0795              1445.4756              1513.9994
 Red. masses --      1.3393                 1.3299                 1.0888
 Frc consts  --      1.6364                 1.6371                 1.4705
 IR Inten    --      7.2971                 2.6832                 1.1298

                     64                     65                     66
                      A                      A                      A
 Frequencies --   1520.5333              1520.7497              1522.0575
 Red. masses --      1.0475                 1.0852                 1.0878
 Frc consts  --      1.4269                 1.4787                 1.4848
 IR Inten    --      3.8795                 7.8876                 3.6079

                     67                     68                     69
                      A                      A                      A
 Frequencies --   1528.2303              1535.5545              1539.9995
 Red. masses --      1.0492                 1.0548                 1.0507
 Frc consts  --      1.4437                 1.4653                 1.4681
 IR Inten    --      3.3326                 3.7327                 1.9072

                     70                     71                     72
                      A                      A                      A
 Frequencies --   1542.8542              1549.1876              1559.4230
 Red. masses --      1.1054                 1.0819                 1.0926
 Frc consts  --      1.5503                 1.5298                 1.5654
 IR Inten    --      4.9325                 1.5949                 6.0377

                     73                     74                     75
                      A                      A                      A
 Frequencies --   2928.0880              2965.5756              3021.8935
 Red. masses --      1.0732                 1.0727                 1.0843
 Frc consts  --      5.4211                 5.5586                 5.8337
 IR Inten    --     70.4819                53.4942                23.2949

                     76                     77                     78
                      A                      A                      A
 Frequencies --   3036.0116              3039.2596              3043.3809
 Red. masses --      1.0897                 1.0701                 1.0705
 Frc consts  --      5.9177                 5.8238                 5.8417
 IR Inten    --     41.1644                24.3196                29.1265

                     79                     80                     81
                      A                      A                      A
 Frequencies --   3044.7633              3047.3027              3051.1983
 Red. masses --      1.0360                 1.0651                 1.0418
 Frc consts  --      5.6589                 5.8276                 5.7142
 IR Inten    --     32.4480                13.1457                32.9055

                     82                     83                     84
                      A                      A                      A
 Frequencies --   3059.0114              3061.8878              3073.3088
 Red. masses --      1.0805                 1.0788                 1.0684
 Frc consts  --      5.9570                 5.9590                 5.9456
 IR Inten    --     53.9435                42.4473                20.5840

                     85                     86                     87
                      A                      A                      A
 Frequencies --   3085.6002              3095.0295              3096.9540
 Red. masses --      1.0826                 1.0937                 1.0958
 Frc consts  --      6.0728                 6.1730                 6.1925
 IR Inten    --     27.0257                25.5224                51.8007

                     88                     89                     90
                      A                      A                      A
 Frequencies --   3103.6070              3105.9276              3111.8539
 Red. masses --      1.1043                 1.1023                 1.1012
 Frc consts  --      6.2671                 6.2649                 6.2831
 IR Inten    --     47.9553                37.0946                39.2452

                     91                     92                     93
                      A                      A                      A
 Frequencies --   3118.9259              3119.5450              3133.4247
 Red. masses --      1.1043                 1.1014                 1.1022
 Frc consts  --      6.3292                 6.3149                 6.3758
 IR Inten    --     53.9243                47.6623                31.4928

 - Thermochemistry -
 -------------------
 Temperature   298.150 Kelvin.  Pressure   1.00000 Atm.
 Atom     1 has atomic number  6 and mass  12.00000

 Molecular mass:   167.16740 amu.
 Principal axes and moments of inertia in atomic units:
                           1         2         3
     Eigenvalues --   883.650553486.326363757.19040
           X            0.99999   0.00023   0.00423
           Y           -0.00022   0.99999  -0.00317
           Z           -0.00423   0.00317   0.99999
 This molecule is an asymmetric top.
 Rotational symmetry number  1.
 Warning -- assumption of classical behavior for rotation
           may cause significant error
 Rotational temperatures (Kelvin)      0.09802     0.02484     0.02305
 Rotational constants (GHZ):           2.04237     0.51766     0.48034
 Zero-point vibrational energy     811365.6 (Joules/Mol)
                                  193.92104 (Kcal/Mol)
 Warning -- explicit consideration of  16 degrees of freedom as
           vibrations may cause significant error
 Vibrational temperatures:     42.69    65.40   139.31   172.86   289.06
          (Kelvin)            307.61   326.78   362.41   405.52   427.79
                              448.19   566.32   573.91   657.11   703.68
                              771.83   909.61   923.95   967.15  1113.55
                             1154.34  1211.44  1251.89  1284.34  1298.54
                             1322.00  1340.78  1345.51  1378.36  1406.80
                             1413.17  1480.01  1487.85  1500.88  1505.52
                             1580.39  1585.56  1606.11  1635.39  1653.87
                             1704.91  1718.99  1742.78  1789.33  1801.27
                             1805.68  1821.35  1824.68  1873.79  1900.01
                             1918.44  1932.66  1939.14  1954.20  1965.82
                             1970.86  1994.13  2010.55  2029.52  2067.71
                             2071.95  2079.72  2178.31  2187.71  2188.02
                             2189.90  2198.78  2209.32  2215.72  2219.82
                             2228.94  2243.66  4212.87  4266.80  4347.83
                             4368.14  4372.82  4378.75  4380.74  4384.39
                             4389.99  4401.24  4405.37  4421.81  4439.49
                             4453.06  4455.83  4465.40  4468.74  4477.26
                             4487.44  4488.33  4508.30

 Zero-point correction=                           0.309033 (Hartree/Particle)
 Thermal correction to Energy=                    0.321310
 Thermal correction to Enthalpy=                  0.322254
 Thermal correction to Gibbs Free Energy=         0.270112
 Sum of electronic and zero-point Energies=           -486.311536
 Sum of electronic and thermal Energies=              -486.299260
 Sum of electronic and thermal Enthalpies=            -486.298315
 Sum of electronic and thermal Free Energies=         -486.350457

                     E (Thermal)             CV                S
                      KCal/Mol        Cal/Mol-Kelvin    Cal/Mol-Kelvin
 Total                  201.625             48.123            109.741
 Electronic               0.000              0.000              0.000
 Translational            0.889              2.981             41.250
 Rotational               0.889              2.981             30.827
 Vibrational            199.847             42.162             37.665
 Vibration     1          0.593              1.984              5.851
 Vibration     2          0.595              1.979              5.006
 Vibration     3          0.603              1.951              3.517
 Vibration     4          0.609              1.932              3.098
 Vibration     5          0.638              1.839              2.125
 Vibration     6          0.644              1.820              2.011
 Vibration     7          0.651              1.800              1.902
 Vibration     8          0.664              1.760              1.717
 Vibration     9          0.681              1.707              1.522
 Vibration    10          0.691              1.679              1.432
 Vibration    11          0.700              1.652              1.354
 Vibration    12          0.761              1.484              0.986
 Vibration    13          0.765              1.473              0.967
 Vibration    14          0.815              1.346              0.776
 Vibration    15          0.845              1.274              0.686
 Vibration    16          0.891              1.169              0.573

 Optimization completed.
    -- Stationary point found.
 Normal termination of Gaussian 16 at Wed Dec  9 17:33:23 2020.

 ----------------------------------------------------------------------
 # B3LYP/6-311++G(d,p) empiricaldispersion=gd3bj scf=xqc pop=npa geom=c
 heck
 ----------------------------------------------------------------------

 --------------------------------------
 CID_20270934_JID_2165_Energie_neutraal
 --------------------------------------
 Structure from the checkpoint file:  "JID_2165.chk"
 Charge =  0 Multiplicity = 1

 SCF Done:  E(RB3LYP) =  -486.750865654     A.U. after   13 cycles
 Normal termination of Gaussian 16 at Wed Dec  9 17:37:25 2020.

 ----------------------------------------------------------------------
 # B3LYP/6-311++G(d,p) empiricaldispersion=gd3bj scf=xqc pop=npa geom=c
 heck
 ----------------------------------------------------------------------

 ------------------------------------
 CID_20270934_JID_2165_Energie_kation
 ------------------------------------
 Structure from the checkpoint file:  "JID_2165.chk"
 Charge =  1 Multiplicity = 2

 SCF Done:  E(UB3LYP) =  -486.477298587     A.U. after   17 cycles
 Normal termination of Gaussian 16 at Wed Dec  9 17:47:21 2020.
 Gaussian 16:  ES64L-G16RevA.03 25-Dec-2016

 ----------------------------------------------------------------------
 # B3LYP/6-311++G(d,p) empiricaldispersion=gd3bj scf=xqc pop=npa geom=c
 heck
 ----------------------------------------------------------------------

 -----------------------------------
 CID_20270934_JID_2165_Energie_anion
 -----------------------------------
 Structure from the checkpoint file:  "JID_2165.chk"
 Charge = -1 Multiplicity = 2

                         Standard orientation:
 ---------------------------------------------------------------------
 Center     Atomic      Atomic             Coordinates (Angstroms)
 Number     Number       Type             X           Y           Z
 ---------------------------------------------------------------------
      1          6           0       -3.622253   -0.932576   -0.255347
      2          6           0       -2.245829   -0.706380    0.365521
      3          6           0       -1.066037   -1.119445   -0.552536
      4          7           0       -0.081614   -0.036599   -0.443792
      5          6           0       -0.372469    0.692250    0.788578
      6          6           0       -1.906152    0.750742    0.780744
      7          6           0       -2.420388    1.823321   -0.184357
      8          6           0        1.296462   -0.423875   -0.720754
      9          6           0        2.207997    0.808868   -0.989728
     10          6           0        3.511939    0.551532   -0.214712
     11          6           0        3.047209   -0.253940    1.008591
     12          6           0        2.022705   -1.229361    0.409145
     13          1           0       -4.422869   -0.603327    0.417563
     14          1           0       -3.782975   -1.996184   -0.467208
     15          1           0       -3.728969   -0.387580   -1.199503
     16          1           0       -2.183928   -1.313104    1.278439
     17          1           0       -0.660099   -2.093803   -0.230367
     18          1           0       -1.376340   -1.233897   -1.600916
     19          1           0        0.090099    1.684823    0.776971
     20          1           0       -0.019177    0.172404    1.700353
     21          1           0       -2.293926    0.957531    1.785783
     22          1           0       -3.513737    1.824301   -0.244812
     23          1           0       -2.106234    2.818743    0.150833
     24          1           0       -2.016786    1.665401   -1.189332
     25          1           0        1.247955   -1.041630   -1.624290
     26          1           0        2.368940    0.968184   -2.060247
     27          1           0        1.718339    1.710777   -0.609013
     28          1           0        4.041874    1.473826    0.046575
     29          1           0        4.198357   -0.060302   -0.815447
     30          1           0        2.556593    0.416097    1.727071
     31          1           0        3.866201   -0.756342    1.534714
     32          1           0        1.320331   -1.630108    1.147728
     33          1           0        2.548540   -2.086438   -0.029230
 ---------------------------------------------------------------------

 SCF Done:  E(UB3LYP) =  -486.734342652     A.U. after   27 cycles

 The electronic state is 2-A.
 Alpha  occ. eigenvalues --  -14.18974 -10.09030 -10.08071 -10.08061 -10.06763
 Alpha  occ. eigenvalues --  -10.06638 -10.06142 -10.05993 -10.05786 -10.05665
 Alpha  occ. eigenvalues --  -10.05506 -10.05108  -0.82632  -0.73071  -0.69000
 Alpha  occ. eigenvalues --   -0.64466  -0.60723  -0.60186  -0.57715  -0.55051
 Alpha  occ. eigenvalues --   -0.48667  -0.47062  -0.44718  -0.43607  -0.40072
 Alpha  occ. eigenvalues --   -0.38036  -0.36707  -0.35437  -0.34040  -0.32030
 Alpha  occ. eigenvalues --   -0.31295  -0.30798  -0.29887  -0.28172  -0.27830
 Alpha  occ. eigenvalues --   -0.26864  -0.26090  -0.24327  -0.23881  -0.23381
 Alpha  occ. eigenvalues --   -0.22959  -0.22695  -0.22023  -0.21387  -0.20923
 Alpha  occ. eigenvalues --   -0.20510  -0.10011   0.04563
 Alpha virt. eigenvalues --    0.06416   0.07314   0.07654   0.08552   0.08705
 Alpha virt. eigenvalues --    0.09077   0.10083   0.10258   0.10978   0.11062
 Alpha virt. eigenvalues --    0.11442   0.12092   0.12280   0.13401   0.13857

  Beta  occ. eigenvalues --  -14.18971 -10.09026 -10.08055 -10.08044 -10.06752
  Beta  occ. eigenvalues --  -10.06626 -10.06124 -10.05976 -10.05777 -10.05636
  Beta  occ. eigenvalues --  -10.05485 -10.05088  -0.82615  -0.73045  -0.68971
  Beta  occ. eigenvalues --   -0.64435  -0.60691  -0.60147  -0.57672  -0.55001
  Beta  occ. eigenvalues --   -0.48624  -0.47001  -0.44679  -0.43562  -0.40036
  Beta  occ. eigenvalues --   -0.37990  -0.36671  -0.35405  -0.34007  -0.32001
  Beta  occ. eigenvalues --   -0.31269  -0.30770  -0.29863  -0.28143  -0.27800
  Beta  occ. eigenvalues --   -0.26831  -0.26062  -0.24296  -0.23847  -0.23349
  Beta  occ. eigenvalues --   -0.22931  -0.22665  -0.21993  -0.21352  -0.20886
  Beta  occ. eigenvalues --   -0.20484  -0.09985
  Beta virt. eigenvalues --    0.06630   0.07249   0.07958   0.08196   0.09027
  Beta virt. eigenvalues --    0.09263   0.09537   0.10484   0.10688   0.11404
  Beta virt. eigenvalues --    0.11446   0.11794   0.12470   0.12689   0.13763

 Mulliken charges and spin densities:
               1          2
     1  C    1.031795  -1.776607
     2  C   -0.740204   0.988243
     3  C    0.355236  -0.996517
     4  N    0.342157  -0.022602
     5  C   -0.895607   0.280240
     6  C    0.903039  -0.640677
     7  C    0.451704  -1.112307
     8  C   -1.164269   0.893853
     9  C    0.033117  -0.053973
    10  C    0.420365  -0.977302
    11  C   -0.121109  -0.064981
    12  C    0.934277  -1.255988
    13  H   -0.248538   0.392043
    14  H   -0.162007   0.297023
    15  H   -0.024008   0.175659
    16  H   -0.300232   0.495755
    17  H    0.049445   0.091153
    18  H   -0.109238   0.279215
    19  H   -0.203372   0.335669
    20  H    0.049698   0.055322
    21  H   -0.482576   0.711806
    22  H   -0.010559   0.153379
    23  H   -0.032049   0.161988
    24  H   -0.017413   0.188631
    25  H   -0.164903   0.335256
    26  H   -0.113063   0.265273
    27  H    0.137869  -0.004366
    28  H   -0.267614   0.421359
    29  H    0.029941   0.095313
    30  H   -0.060664   0.188220
    31  H   -0.287680   0.459167
    32  H   -0.082905   0.239408
    33  H   -0.250629   0.401347
 Sum of Mulliken charges =  -1.00000   1.00000

 Dipole moment (field-independent basis, Debye):
    X=              0.5947    Y=              1.0382    Z=             -1.6629  Tot=              2.0486
 Quadrupole moment (field-independent basis, Debye-Ang):
   XX=           -154.4017   YY=           -119.1003   ZZ=           -114.3737
   XY=              0.5580   XZ=              3.0934   YZ=             -0.2677

 Summary of Natural Population Analysis:

                                       Natural Population
                Natural  -----------------------------------------------
    Atom  No    Charge         Core      Valence    Rydberg      Total
 -----------------------------------------------------------------------
      C    1   -0.28484      0.99965     2.27889    0.00630     3.28484
      C    2   -0.11377      0.99959     2.10316    0.01102     3.11377
      C    3   -0.07711      0.99960     2.06684    0.01066     3.07711
      N    4   -0.28623      0.99970     2.77435    0.01217     3.78623
      C    5   -0.08346      0.99960     2.07203    0.01184     3.08346
      C    6   -0.10950      0.99959     2.09800    0.01191     3.10950
      C    7   -0.28960      0.99965     2.28318    0.00677     3.28960
      C    8    0.00208      0.99959     1.98540    0.01293     2.99792
      C    9   -0.19382      0.99962     2.18501    0.00919     3.19382
      C   10   -0.19164      0.99964     2.18445    0.00755     3.19164
      C   11   -0.19266      0.99964     2.18529    0.00773     3.19266
      C   12   -0.20418      0.99962     2.19652    0.00804     3.20418
      H   13    0.10019      0.00000     0.39869    0.00112     0.39981
      H   14    0.09971      0.00000     0.39932    0.00097     0.40029
      H   15    0.09716      0.00000     0.40182    0.00102     0.40284
      H   16    0.09798      0.00000     0.40014    0.00188     0.40202
      H   17    0.08684      0.00000     0.41169    0.00147     0.41316
      H   18    0.08956      0.00000     0.40901    0.00143     0.41044
      H   19    0.09532      0.00000     0.40306    0.00163     0.40468
      H   20    0.08307      0.00000     0.41513    0.00180     0.41693
      H   21    0.09857      0.00000     0.39991    0.00152     0.40143
      H   22    0.09844      0.00000     0.40068    0.00088     0.40156
      H   23    0.09824      0.00000     0.40093    0.00083     0.40176
      H   24    0.10246      0.00000     0.39620    0.00133     0.39754
      H   25    0.09548      0.00000     0.40326    0.00126     0.40452
      H   26    0.09944      0.00000     0.39959    0.00097     0.40056
      H   27    0.09930      0.00000     0.39919    0.00151     0.40070
      H   28    0.09802      0.00000     0.40099    0.00099     0.40198
      H   29    0.09238      0.00000     0.40623    0.00138     0.40762
      H   30    0.09357      0.00000     0.40481    0.00161     0.40643
      H   31    0.09841      0.00000     0.40048    0.00111     0.40159
      H   32    0.10309      0.00000     0.39571    0.00120     0.39691
      H   33    0.09750      0.00000     0.40108    0.00142     0.40250
 =======================================================================
   * Total *    0.00000     11.99549    34.86104    0.14347    47.00000

 Normal termination of Gaussian 16 at Wed Dec  9 18:01:19 2020.
