 Gaussian 16, Revision A.03,

 -----------------------------------------------------------
 # opt freq B3LYP/6-31G(d) empiricaldispersion=gd3bj scf=xqc
 -----------------------------------------------------------

 -------------------------------
 CID_146958600_JID_2013_neutraal
 -------------------------------
 Symbolic Z-matrix:
 Charge =  0 Multiplicity = 1

 SCF Done:  E(RB3LYP) =  -487.820379898     A.U. after   13 cycles
 SCF Done:  E(RB3LYP) =  -487.822078311     A.U. after   11 cycles
 SCF Done:  E(RB3LYP) =  -487.822392561     A.U. after   11 cycles
 SCF Done:  E(RB3LYP) =  -487.822610233     A.U. after   10 cycles
 SCF Done:  E(RB3LYP) =  -487.822731626     A.U. after   10 cycles
 SCF Done:  E(RB3LYP) =  -487.822826369     A.U. after   11 cycles
 SCF Done:  E(RB3LYP) =  -487.822865874     A.U. after   10 cycles
 SCF Done:  E(RB3LYP) =  -487.822908435     A.U. after   10 cycles
 SCF Done:  E(RB3LYP) =  -487.822976390     A.U. after   11 cycles
 SCF Done:  E(RB3LYP) =  -487.822992558     A.U. after   11 cycles
 SCF Done:  E(RB3LYP) =  -487.823283404     A.U. after   10 cycles
 SCF Done:  E(RB3LYP) =  -487.823284449     A.U. after    8 cycles
 SCF Done:  E(RB3LYP) =  -487.823284241     A.U. after    8 cycles
 SCF Done:  E(RB3LYP) =  -487.823284874     A.U. after    9 cycles
 SCF Done:  E(RB3LYP) =  -487.823285032     A.U. after    7 cycles
 Optimization completed.
    -- Stationary point found.
 Normal termination of Gaussian 16 at Wed Dec  9 16:53:23 2020.

 --------------------------------------------------------------------
 #N Geom=AllCheck Guess=TCheck SCRF=Check GenChk RB3LYP/6-31G(d) Freq
 --------------------------------------------------------------------

 Structure from the checkpoint file:  "JID_2013.chk"
 -------------------------------
 CID_146958600_JID_2013_neutraal
 -------------------------------
 Charge =  0 Multiplicity = 1

 SCF Done:  E(RB3LYP) =  -487.823285032     A.U. after    1 cycles

  Exact polarizability: 131.279   0.883 134.862  -0.947   4.644 102.560
 Approx polarizability: 164.190   7.340 185.201  -2.755   8.758 156.002

                      1                      2                      3
                      A                      A                      A
 Frequencies --     31.0022                35.2149                52.5824
 Red. masses --      2.6883                 3.6238                 2.7887
 Frc consts  --      0.0015                 0.0026                 0.0045
 IR Inten    --      0.2357                 0.0925                 0.1181

                      4                      5                      6
                      A                      A                      A
 Frequencies --     63.8415                74.7808               112.5388
 Red. masses --      2.7796                 2.6536                 2.5840
 Frc consts  --      0.0067                 0.0087                 0.0193
 IR Inten    --      0.1277                 0.2459                 0.1002

                      7                      8                      9
                      A                      A                      A
 Frequencies --    155.1452               178.4295               202.3996
 Red. masses --      2.5580                 2.4931                 1.5651
 Frc consts  --      0.0363                 0.0468                 0.0378
 IR Inten    --      1.0954                 0.9326                 0.1097

                     10                     11                     12
                      A                      A                      A
 Frequencies --    212.3431               236.4762               267.9678
 Red. masses --      1.1151                 1.2513                 1.5386
 Frc consts  --      0.0296                 0.0412                 0.0651
 IR Inten    --      0.0675                 0.2534                 0.0911

                     13                     14                     15
                      A                      A                      A
 Frequencies --    288.0002               316.1507               335.2574
 Red. masses --      2.1947                 1.7841                 2.4863
 Frc consts  --      0.1073                 0.1051                 0.1646
 IR Inten    --      0.4047                 0.0691                 0.5705

                     16                     17                     18
                      A                      A                      A
 Frequencies --    376.0265               393.7794               428.9251
 Red. masses --      2.2681                 2.0023                 2.1677
 Frc consts  --      0.1889                 0.1829                 0.2350
 IR Inten    --      1.2403                 0.3904                 1.4928

                     19                     20                     21
                      A                      A                      A
 Frequencies --    457.7670               541.2613               579.9596
 Red. masses --      2.0280                 2.5639                 3.5251
 Frc consts  --      0.2504                 0.4425                 0.6986
 IR Inten    --      0.1564                 0.7565                 5.1321

                     22                     23                     24
                      A                      A                      A
 Frequencies --    628.1397               715.3795               754.8184
 Red. masses --      2.9129                 1.2697                 1.5333
 Frc consts  --      0.6772                 0.3828                 0.5147
 IR Inten    --     12.6127                12.4194                 0.5963

                     25                     26                     27
                      A                      A                      A
 Frequencies --    818.5288               828.7186               829.1610
 Red. masses --      1.9995                 1.3073                 1.5412
 Frc consts  --      0.7893                 0.5290                 0.6243
 IR Inten    --      0.2265                 1.0508                 1.3529

                     28                     29                     30
                      A                      A                      A
 Frequencies --    863.2719               878.4032               916.8141
 Red. masses --      2.3250                 1.7027                 1.8468
 Frc consts  --      1.0209                 0.7741                 0.9146
 IR Inten    --      1.1027                 3.1547                 7.8299

                     31                     32                     33
                      A                      A                      A
 Frequencies --    926.9721               945.5869               948.7048
 Red. masses --      1.4838                 1.5257                 1.6373
 Frc consts  --      0.7512                 0.8038                 0.8683
 IR Inten    --      0.1111                 1.4027                13.2523

                     34                     35                     36
                      A                      A                      A
 Frequencies --    996.6726              1001.1055              1039.4533
 Red. masses --      1.6607                 1.6469                 3.0366
 Frc consts  --      0.9720                 0.9725                 1.9331
 IR Inten    --      2.5483                 1.4651                 8.9109

                     37                     38                     39
                      A                      A                      A
 Frequencies --   1060.0053              1073.5738              1080.7436
 Red. masses --      1.7498                 1.8102                 1.4156
 Frc consts  --      1.1584                 1.2292                 0.9742
 IR Inten    --      0.0567                 1.5864                 0.3623

                     40                     41                     42
                      A                      A                      A
 Frequencies --   1117.8246              1128.4569              1146.8775
 Red. masses --      2.3017                 1.8539                 2.0755
 Frc consts  --      1.6945                 1.3910                 1.6085
 IR Inten    --      0.0619                 5.6894                 2.1695

                     43                     44                     45
                      A                      A                      A
 Frequencies --   1164.4186              1179.0262              1193.6993
 Red. masses --      2.0238                 2.0003                 1.7887
 Frc consts  --      1.6167                 1.6383                 1.5017
 IR Inten    --      2.1053                 1.0976                 6.1789

                     46                     47                     48
                      A                      A                      A
 Frequencies --   1223.6202              1241.0382              1282.7751
 Red. masses --      1.3484                 1.4210                 1.3128
 Frc consts  --      1.1895                 1.2895                 1.2728
 IR Inten    --      0.9509                 1.6345                 1.4226

                     49                     50                     51
                      A                      A                      A
 Frequencies --   1304.9489              1311.2468              1333.8465
 Red. masses --      1.2048                 1.1642                 1.2005
 Frc consts  --      1.2088                 1.1794                 1.2584
 IR Inten    --      0.1827                 1.1710                 3.2660

                     52                     53                     54
                      A                      A                      A
 Frequencies --   1348.6033              1368.2967              1380.3392
 Red. masses --      1.1765                 1.2669                 1.4311
 Frc consts  --      1.2607                 1.3975                 1.6065
 IR Inten    --      5.5260                 5.6189                 8.6591

                     55                     56                     57
                      A                      A                      A
 Frequencies --   1388.2028              1394.0958              1402.9912
 Red. masses --      1.3041                 1.4103                 1.3711
 Frc consts  --      1.4807                 1.6149                 1.5901
 IR Inten    --      6.5775                 4.9868                 0.8895

                     58                     59                     60
                      A                      A                      A
 Frequencies --   1420.2292              1421.6109              1428.8494
 Red. masses --      1.4112                 1.4086                 1.2461
 Frc consts  --      1.6771                 1.6772                 1.4989
 IR Inten    --      2.3876                 1.8010                 4.1609

                     61                     62                     63
                      A                      A                      A
 Frequencies --   1438.4022              1443.8990              1449.9957
 Red. masses --      1.2557                 1.2733                 1.2191
 Frc consts  --      1.5308                 1.5640                 1.5102
 IR Inten    --      3.0751                 3.8142                 4.0131

                     64                     65                     66
                      A                      A                      A
 Frequencies --   1506.7703              1517.4320              1517.5998
 Red. masses --      1.0744                 1.0630                 1.0620
 Frc consts  --      1.4371                 1.4421                 1.4411
 IR Inten    --      0.5777                 5.0911                 2.6785

                     67                     68                     69
                      A                      A                      A
 Frequencies --   1519.4891              1525.7854              1527.3324
 Red. masses --      1.0575                 1.0541                 1.0526
 Frc consts  --      1.4386                 1.4459                 1.4467
 IR Inten    --      0.9887                 7.9265                 2.7712

                     70                     71                     72
                      A                      A                      A
 Frequencies --   1528.2222              1532.4522              1537.7813
 Red. masses --      1.0562                 1.0719                 1.0678
 Frc consts  --      1.4534                 1.4831                 1.4878
 IR Inten    --      8.3535                 5.1921                 4.6241

                     73                     74                     75
                      A                      A                      A
 Frequencies --   1538.9702              1545.1299              1548.0687
 Red. masses --      1.0527                 1.0809                 1.0932
 Frc consts  --      1.4689                 1.5204                 1.5436
 IR Inten    --      1.7134                 2.1942                 4.0150

                     76                     77                     78
                      A                      A                      A
 Frequencies --   1753.2468              3013.3421              3029.8326
 Red. masses --      9.5760                 1.0647                 1.0651
 Frc consts  --     17.3429                 5.6963                 5.7606
 IR Inten    --     72.6096                46.6191                15.5962

                     79                     80                     81
                      A                      A                      A
 Frequencies --   3032.9657              3036.8523              3040.0479
 Red. masses --      1.0647                 1.0618                 1.0575
 Frc consts  --      5.7704                 5.7697                 5.7582
 IR Inten    --     22.3517                15.0348                32.6185

                     82                     83                     84
                      A                      A                      A
 Frequencies --   3044.5807              3045.9237              3047.9240
 Red. masses --      1.0427                 1.0431                 1.0665
 Frc consts  --      5.6949                 5.7020                 5.8376
 IR Inten    --     12.9047                12.0670                 9.6202

                     85                     86                     87
                      A                      A                      A
 Frequencies --   3053.3120              3055.4770              3062.7466
 Red. masses --      1.0402                 1.0753                 1.0947
 Frc consts  --      5.7136                 5.9150                 6.0502
 IR Inten    --     33.1449                40.1721                 5.5336

                     88                     89                     90
                      A                      A                      A
 Frequencies --   3065.1720              3066.3546              3071.0238
 Red. masses --      1.0937                 1.0987                 1.0985
 Frc consts  --      6.0540                 6.0866                 6.1041
 IR Inten    --     35.3968                24.9975                27.7115

                     91                     92                     93
                      A                      A                      A
 Frequencies --   3079.5817              3084.5063              3092.4606
 Red. masses --      1.0959                 1.0939                 1.0940
 Frc consts  --      6.1233                 6.1319                 6.1639
 IR Inten    --    124.6169                44.2970                58.1344

                     94                     95                     96
                      A                      A                      A
 Frequencies --   3109.9283              3113.6922              3116.4639
 Red. masses --      1.1016                 1.0992                 1.1020
 Frc consts  --      6.2775                 6.2786                 6.3058
 IR Inten    --     44.7616                45.0969                44.7942

                     97                     98                     99
                      A                      A                      A
 Frequencies --   3121.7527              3127.0536              3134.6272
 Red. masses --      1.1025                 1.1013                 1.1029
 Frc consts  --      6.3304                 6.3451                 6.3849
 IR Inten    --     45.4928                29.7305                35.3291

 - Thermochemistry -
 -------------------
 Temperature   298.150 Kelvin.  Pressure   1.00000 Atm.
 Atom     1 has atomic number  6 and mass  12.00000

 Molecular mass:   169.18305 amu.
 Principal axes and moments of inertia in atomic units:
                           1         2         3
     Eigenvalues --  1674.453793362.706944537.36428
           X            0.99993  -0.01112   0.00431
           Y            0.01113   0.99994  -0.00110
           Z           -0.00429   0.00115   0.99999
 This molecule is an asymmetric top.
 Rotational symmetry number  1.
 Warning -- assumption of classical behavior for rotation
           may cause significant error
 Rotational temperatures (Kelvin)      0.05173     0.02576     0.01909
 Rotational constants (GHZ):           1.07781     0.53669     0.39775
 Zero-point vibrational energy     860731.7 (Joules/Mol)
                                  205.71981 (Kcal/Mol)
 Warning -- explicit consideration of  21 degrees of freedom as
           vibrations may cause significant error
 Vibrational temperatures:     44.61    50.67    75.65    91.85   107.59
          (Kelvin)            161.92   223.22   256.72   291.21   305.51
                              340.24   385.55   414.37   454.87   482.36
                              541.02   566.56   617.13   658.62   778.75
                              834.43   903.75  1029.27  1086.02  1177.68
                             1192.34  1192.98  1242.06  1263.83  1319.09
                             1333.71  1360.49  1364.97  1433.99  1440.37
                             1495.54  1525.11  1544.63  1554.95  1608.30
                             1623.60  1650.10  1675.34  1696.36  1717.47
                             1760.52  1785.58  1845.63  1877.53  1886.59
                             1919.11  1940.34  1968.67  1986.00  1997.31
                             2005.79  2018.59  2043.39  2045.38  2055.80
                             2069.54  2077.45  2086.22  2167.91  2183.25
                             2183.49  2186.21  2195.26  2197.49  2198.77
                             2204.86  2212.52  2214.23  2223.10  2227.33
                             2522.53  4335.53  4359.25  4363.76  4369.35
                             4373.95  4380.47  4382.40  4385.28  4393.03
                             4396.15  4406.61  4410.10  4411.80  4418.52
                             4430.83  4437.92  4449.36  4474.49  4479.91
                             4483.90  4491.51  4499.13  4510.03

 Zero-point correction=                           0.327835 (Hartree/Particle)
 Thermal correction to Energy=                    0.342998
 Thermal correction to Enthalpy=                  0.343942
 Thermal correction to Gibbs Free Energy=         0.284372
 Sum of electronic and zero-point Energies=           -487.495450
 Sum of electronic and thermal Energies=              -487.480287
 Sum of electronic and thermal Enthalpies=            -487.479343
 Sum of electronic and thermal Free Energies=         -487.538913

                     E (Thermal)             CV                S
                      KCal/Mol        Cal/Mol-Kelvin    Cal/Mol-Kelvin
 Total                  215.234             55.356            125.375
 Electronic               0.000              0.000              0.000
 Translational            0.889              2.981             41.285
 Rotational               0.889              2.981             31.613
 Vibrational            213.457             49.394             52.477
 Vibration     1          0.594              1.984              5.764
 Vibration     2          0.594              1.982              5.512
 Vibration     3          0.596              1.977              4.718
 Vibration     4          0.597              1.972              4.335
 Vibration     5          0.599              1.966              4.023
 Vibration     6          0.607              1.939              3.225
 Vibration     7          0.620              1.897              2.608
 Vibration     8          0.629              1.869              2.345
 Vibration     9          0.639              1.836              2.111
 Vibration    10          0.643              1.822              2.023
 Vibration    11          0.655              1.785              1.829
 Vibration    12          0.673              1.732              1.609
 Vibration    13          0.685              1.696              1.486
 Vibration    14          0.703              1.643              1.330
 Vibration    15          0.716              1.605              1.235
 Vibration    16          0.747              1.521              1.055
 Vibration    17          0.761              1.483              0.986
 Vibration    18          0.790              1.407              0.862
 Vibration    19          0.816              1.344              0.773
 Vibration    20          0.896              1.159              0.563
 Vibration    21          0.937              1.075              0.485

 Optimization completed.
    -- Stationary point found.
 Normal termination of Gaussian 16 at Wed Dec  9 17:02:07 2020.

 ----------------------------------------------------------------------
 # B3LYP/6-311++G(d,p) empiricaldispersion=gd3bj scf=xqc pop=npa geom=c
 heck
 ----------------------------------------------------------------------

 ---------------------------------------
 CID_146958600_JID_2013_Energie_neutraal
 ---------------------------------------
 Structure from the checkpoint file:  "JID_2013.chk"
 Charge =  0 Multiplicity = 1

 SCF Done:  E(RB3LYP) =  -487.959617120     A.U. after   13 cycles
 Normal termination of Gaussian 16 at Wed Dec  9 17:05:49 2020.

 ----------------------------------------------------------------------
 # B3LYP/6-311++G(d,p) empiricaldispersion=gd3bj scf=xqc pop=npa geom=c
 heck
 ----------------------------------------------------------------------

 -------------------------------------
 CID_146958600_JID_2013_Energie_kation
 -------------------------------------
 Structure from the checkpoint file:  "JID_2013.chk"
 Charge =  1 Multiplicity = 2

 SCF Done:  E(UB3LYP) =  -487.641090849     A.U. after   24 cycles
 Normal termination of Gaussian 16 at Wed Dec  9 17:14:24 2020.
 Gaussian 16:  ES64L-G16RevA.03 25-Dec-2016

 ----------------------------------------------------------------------
 # B3LYP/6-311++G(d,p) empiricaldispersion=gd3bj scf=xqc pop=npa geom=c
 heck
 ----------------------------------------------------------------------

 ------------------------------------
 CID_146958600_JID_2013_Energie_anion
 ------------------------------------
 Structure from the checkpoint file:  "JID_2013.chk"
 Charge = -1 Multiplicity = 2

                         Standard orientation:
 ---------------------------------------------------------------------
 Center     Atomic      Atomic             Coordinates (Angstroms)
 Number     Number       Type             X           Y           Z
 ---------------------------------------------------------------------
      1          6           0       -4.147873    0.611580   -0.304481
      2          6           0       -2.703608    1.120297   -0.279411
      3          6           0       -1.850404    0.517465    0.846724
      4          6           0       -1.708267   -1.013195    0.812412
      5          6           0       -1.141451   -1.584444   -0.496974
      6          6           0        0.206589   -0.988891   -0.930352
      7          6           0        1.346890   -1.119405    0.106685
      8          6           0        1.695413   -2.582622    0.411198
      9          6           0        2.568488   -0.398571   -0.431834
     10          7           0        2.983543    0.788464   -0.239106
     11          6           0        2.263921    1.712915    0.626952
     12          6           0        1.566096    2.782270   -0.219471
     13          1           0       -4.195471   -0.463350   -0.511458
     14          1           0       -4.733582    1.121809   -1.077120
     15          1           0       -4.642567    0.784795    0.659317
     16          1           0       -2.231070    0.922293   -1.250539
     17          1           0       -2.707073    2.212115   -0.164893
     18          1           0       -0.854877    0.979030    0.818622
     19          1           0       -2.286842    0.803209    1.813872
     20          1           0       -1.072872   -1.322202    1.652827
     21          1           0       -2.685902   -1.475802    0.997512
     22          1           0       -1.052351   -2.673424   -0.397592
     23          1           0       -1.860904   -1.419269   -1.309411
     24          1           0        0.526248   -1.468363   -1.865963
     25          1           0        0.074916    0.073469   -1.166535
     26          1           0        1.023471   -0.641297    1.036334
     27          1           0        1.999809   -3.109437   -0.502022
     28          1           0        2.521545   -2.649554    1.127523
     29          1           0        0.840070   -3.116810    0.836206
     30          1           0        3.167094   -1.001510   -1.128423
     31          1           0        1.528988    1.234009    1.290699
     32          1           0        3.009969    2.197243    1.269134
     33          1           0        0.772378    2.338250   -0.830567
     34          1           0        1.116837    3.549233    0.420963
     35          1           0        2.282609    3.261915   -0.893421
 ---------------------------------------------------------------------

 SCF Done:  E(UB3LYP) =  -487.944990008     A.U. after   33 cycles
 SCF Done:  E(UB3LYP) =  -487.944990008     a.u. after    1 cycles

 The electronic state is 2-A.
 Alpha  occ. eigenvalues --  -14.20308 -10.10848 -10.09626 -10.08246 -10.07251
 Alpha  occ. eigenvalues --  -10.06679 -10.06509 -10.06493 -10.06324 -10.06161
 Alpha  occ. eigenvalues --  -10.06119 -10.05658  -0.82041  -0.72288  -0.69523
 Alpha  occ. eigenvalues --   -0.66032  -0.64554  -0.60353  -0.56814  -0.54675
 Alpha  occ. eigenvalues --   -0.52542  -0.48718  -0.45069  -0.43969  -0.39724
 Alpha  occ. eigenvalues --   -0.38429  -0.36896  -0.35823  -0.34574  -0.33162
 Alpha  occ. eigenvalues --   -0.32125  -0.31328  -0.30270  -0.29959  -0.29172
 Alpha  occ. eigenvalues --   -0.28512  -0.28052  -0.27187  -0.25746  -0.25288
 Alpha  occ. eigenvalues --   -0.24876  -0.24150  -0.23838  -0.22011  -0.21236
 Alpha  occ. eigenvalues --   -0.21128  -0.18951  -0.14495   0.04437
 Alpha virt. eigenvalues --    0.06600   0.06746   0.07478   0.08536   0.08686
 Alpha virt. eigenvalues --    0.08868   0.09386   0.09661   0.09967   0.11059
 Alpha virt. eigenvalues --    0.11347   0.11563   0.12246   0.12354   0.12892

  Beta  occ. eigenvalues --  -14.20282 -10.10815 -10.09616 -10.08241 -10.07244
  Beta  occ. eigenvalues --  -10.06658 -10.06471 -10.06467 -10.06306 -10.06143
  Beta  occ. eigenvalues --  -10.06104 -10.05623  -0.81980  -0.72255  -0.69486
  Beta  occ. eigenvalues --   -0.65995  -0.64515  -0.60303  -0.56750  -0.54612
  Beta  occ. eigenvalues --   -0.52481  -0.48657  -0.45008  -0.43912  -0.39691
  Beta  occ. eigenvalues --   -0.38393  -0.36864  -0.35785  -0.34533  -0.33115
  Beta  occ. eigenvalues --   -0.32090  -0.31274  -0.30237  -0.29917  -0.29129
  Beta  occ. eigenvalues --   -0.28478  -0.28009  -0.27148  -0.25710  -0.25253
  Beta  occ. eigenvalues --   -0.24839  -0.24102  -0.23805  -0.21980  -0.21189
  Beta  occ. eigenvalues --   -0.21092  -0.18832  -0.14458
  Beta virt. eigenvalues --    0.06533   0.07358   0.07445   0.07852   0.08893
  Beta virt. eigenvalues --    0.09144   0.09258   0.09706   0.09987   0.10386
  Beta virt. eigenvalues --    0.11507   0.11722   0.11857   0.12528   0.12627

 Mulliken charges and spin densities:
               1          2
     1  C    1.126027  -1.815053
     2  C   -0.948836   0.783828
     3  C    0.237962  -0.353228
     4  C   -0.409995   0.131510
     5  C    0.661453  -1.045986
     6  C   -0.481364   0.236475
     7  C   -0.846398   1.182834
     8  C    1.533002  -2.242061
     9  C   -0.445789   0.059488
    10  N   -0.015153   0.041883
    11  C   -0.100788  -0.209127
    12  C    0.186999  -0.647776
    13  H   -0.107191   0.241743
    14  H   -0.283162   0.418019
    15  H   -0.192600   0.330635
    16  H    0.059644   0.067992
    17  H   -0.249375   0.397163
    18  H    0.845102  -0.735345
    19  H   -0.427492   0.599936
    20  H   -0.306083   0.482435
    21  H   -0.015848   0.189215
    22  H    0.008758   0.153004
    23  H   -0.219798   0.395807
    24  H    0.040303   0.123471
    25  H    0.338887  -0.205801
    26  H    0.405410  -0.312776
    27  H   -0.148467   0.288132
    28  H   -0.214362   0.366549
    29  H   -0.277839   0.424437
    30  H    0.057191   0.110588
    31  H   -0.480338   0.593146
    32  H   -0.138708   0.321581
    33  H   -0.179050   0.337772
    34  H   -0.080713   0.206910
    35  H    0.068607   0.082601
 Sum of Mulliken charges =  -1.00000   1.00000

 Dipole moment (field-independent basis, Debye):
    X=              2.4803    Y=              0.1368    Z=             -1.8346  Tot=              3.0882
 Quadrupole moment (field-independent basis, Debye-Ang):
   XX=           -154.7810   YY=           -134.9405   ZZ=           -113.1461
   XY=              4.1556   XZ=             -1.0772   YZ=              0.9774

 Summary of Natural Population Analysis:

                                       Natural Population
                Natural  -----------------------------------------------
    Atom  No    Charge         Core      Valence    Rydberg      Total
 -----------------------------------------------------------------------
      C    1   -0.28495      0.99967     2.28093    0.00436     3.28495
      C    2   -0.19183      0.99964     2.18385    0.00834     3.19183
      C    3   -0.19216      0.99962     2.18356    0.00898     3.19216
      C    4   -0.19238      0.99963     2.18394    0.00881     3.19238
      C    5   -0.19235      0.99962     2.18358    0.00915     3.19235
      C    6   -0.18530      0.99960     2.17687    0.00882     3.18530
      C    7   -0.15258      0.99958     2.14352    0.00948     3.15258
      C    8   -0.28433      0.99965     2.27793    0.00675     3.28433
      C    9    0.08866      0.99959     1.89621    0.01554     2.91134
      N   10   -0.23203      0.99968     2.72018    0.01216     3.73203
      C   11   -0.10481      0.99961     2.09422    0.01099     3.10481
      C   12   -0.28596      0.99966     2.28040    0.00590     3.28596
      H   13    0.09602      0.00000     0.40274    0.00124     0.40398
      H   14    0.09816      0.00000     0.40068    0.00117     0.40184
      H   15    0.09590      0.00000     0.40273    0.00137     0.40410
      H   16    0.09157      0.00000     0.40706    0.00137     0.40843
      H   17    0.09675      0.00000     0.40204    0.00122     0.40325
      H   18    0.09454      0.00000     0.40331    0.00215     0.40546
      H   19    0.09696      0.00000     0.40176    0.00128     0.40304
      H   20    0.09676      0.00000     0.40188    0.00136     0.40324
      H   21    0.09883      0.00000     0.39998    0.00118     0.40117
      H   22    0.09928      0.00000     0.39951    0.00121     0.40072
      H   23    0.09833      0.00000     0.40059    0.00108     0.40167
      H   24    0.09662      0.00000     0.40235    0.00103     0.40338
      H   25    0.09802      0.00000     0.40039    0.00159     0.40198
      H   26    0.10142      0.00000     0.39569    0.00288     0.39858
      H   27    0.09635      0.00000     0.40252    0.00113     0.40365
      H   28    0.10140      0.00000     0.39757    0.00103     0.39860
      H   29    0.10471      0.00000     0.39404    0.00126     0.39529
      H   30    0.07708      0.00000     0.42116    0.00176     0.42292
      H   31    0.08256      0.00000     0.41534    0.00210     0.41744
      H   32    0.09324      0.00000     0.40530    0.00146     0.40676
      H   33    0.09655      0.00000     0.40227    0.00118     0.40345
      H   34    0.10025      0.00000     0.39867    0.00109     0.39975
      H   35    0.09872      0.00000     0.40028    0.00100     0.40128
 =======================================================================
   * Total *   -0.00000     11.99556    35.86304    0.14140    48.00000

 Normal termination of Gaussian 16 at Wed Dec  9 17:26:18 2020.
