 Gaussian 16, Revision A.03,

 -----------------------------------------------------------
 # opt freq B3LYP/6-31G(d) empiricaldispersion=gd3bj scf=xqc
 -----------------------------------------------------------

 ------------------------------
 CID_43665640_JID_9089_neutraal
 ------------------------------
 Symbolic Z-matrix:
 Charge =  0 Multiplicity = 1

 SCF Done:  E(RB3LYP) =  -1220.97828256     A.U. after   15 cycles
 SCF Done:  E(RB3LYP) =  -1220.98562824     A.U. after   13 cycles
 SCF Done:  E(RB3LYP) =  -1220.98678388     A.U. after   13 cycles
 SCF Done:  E(RB3LYP) =  -1220.98718737     A.U. after   12 cycles
 SCF Done:  E(RB3LYP) =  -1220.98769109     A.U. after   12 cycles
 SCF Done:  E(RB3LYP) =  -1220.98818810     A.U. after   13 cycles
 SCF Done:  E(RB3LYP) =  -1220.98847754     A.U. after   13 cycles
 SCF Done:  E(RB3LYP) =  -1220.98865917     A.U. after   11 cycles
 SCF Done:  E(RB3LYP) =  -1220.98871003     A.U. after   11 cycles
 SCF Done:  E(RB3LYP) =  -1220.98872514     A.U. after   10 cycles
 SCF Done:  E(RB3LYP) =  -1220.98877745     A.U. after   11 cycles
 SCF Done:  E(RB3LYP) =  -1220.98878760     A.U. after   10 cycles
 SCF Done:  E(RB3LYP) =  -1220.98879669     A.U. after   12 cycles
 SCF Done:  E(RB3LYP) =  -1220.98879729     A.U. after    8 cycles
 SCF Done:  E(RB3LYP) =  -1220.98879734     A.U. after    7 cycles
 Optimization completed.
    -- Stationary point found.
 Normal termination of Gaussian 16 at Sun Dec 13 12:43:25 2020.

 --------------------------------------------------------------------
 #N Geom=AllCheck Guess=TCheck SCRF=Check GenChk RB3LYP/6-31G(d) Freq
 --------------------------------------------------------------------

 Structure from the checkpoint file:  "JID_9089.chk"
 ------------------------------
 CID_43665640_JID_9089_neutraal
 ------------------------------
 Charge =  0 Multiplicity = 1

 SCF Done:  E(RB3LYP) =  -1220.98879734     A.U. after    1 cycles

  Exact polarizability: 226.944  -7.067 175.520  -9.836   7.269 134.489
 Approx polarizability: 300.514  -9.015 278.233 -19.045  27.742 209.395

                      1                      2                      3
                      A                      A                      A
 Frequencies --     10.0074                16.2109                29.4858
 Red. masses --      3.9437                 4.3165                 3.8207
 Frc consts  --      0.0002                 0.0007                 0.0020
 IR Inten    --      0.4224                 0.3874                 1.0165

                      4                      5                      6
                      A                      A                      A
 Frequencies --     47.3443                53.3545                82.0892
 Red. masses --      2.7878                 7.1129                 5.9535
 Frc consts  --      0.0037                 0.0119                 0.0236
 IR Inten    --      0.4144                 0.6945                 2.2093

                      7                      8                      9
                      A                      A                      A
 Frequencies --     92.6650               111.5918               121.9559
 Red. masses --      3.8300                 3.6401                 5.1995
 Frc consts  --      0.0194                 0.0267                 0.0456
 IR Inten    --      3.6162                 0.5607                 0.6476

                     10                     11                     12
                      A                      A                      A
 Frequencies --    150.9544               188.7411               207.5716
 Red. masses --      3.4233                 1.0817                 3.2295
 Frc consts  --      0.0460                 0.0227                 0.0820
 IR Inten    --      2.5326                 0.2226                 1.5054

                     13                     14                     15
                      A                      A                      A
 Frequencies --    232.8723               237.9136               252.5305
 Red. masses --      1.2775                 1.7814                 2.4924
 Frc consts  --      0.0408                 0.0594                 0.0936
 IR Inten    --      0.9794                 0.3794                 1.7159

                     16                     17                     18
                      A                      A                      A
 Frequencies --    276.2940               304.2347               342.4786
 Red. masses --      3.9113                 4.8068                 2.9208
 Frc consts  --      0.1759                 0.2621                 0.2018
 IR Inten    --      1.3590                 1.4415                15.4064

                     19                     20                     21
                      A                      A                      A
 Frequencies --    355.6049               366.7366               381.9477
 Red. masses --      3.4909                 2.5571                 2.5642
 Frc consts  --      0.2601                 0.2026                 0.2204
 IR Inten    --      1.1057                 2.9898                 3.8859

                     22                     23                     24
                      A                      A                      A
 Frequencies --    410.7728               430.0049               459.1985
 Red. masses --      5.1406                 3.1362                 5.3832
 Frc consts  --      0.5111                 0.3417                 0.6688
 IR Inten    --      7.5372                 1.8824                 4.3731

                     25                     26                     27
                      A                      A                      A
 Frequencies --    485.0950               492.4517               516.1333
 Red. masses --      2.9109                 3.3992                 2.5947
 Frc consts  --      0.4036                 0.4857                 0.4072
 IR Inten    --      0.9856                 6.6023                 1.6613

                     28                     29                     30
                      A                      A                      A
 Frequencies --    585.8384               599.1521               610.0439
 Red. masses --      4.7198                 3.1246                 3.6329
 Frc consts  --      0.9544                 0.6609                 0.7966
 IR Inten    --      6.2102                 9.1329                 7.1251

                     31                     32                     33
                      A                      A                      A
 Frequencies --    646.3415               656.9000               683.9645
 Red. masses --      3.7626                 5.0518                 5.9896
 Frc consts  --      0.9261                 1.2844                 1.6509
 IR Inten    --      7.2369                17.2189                 3.7322

                     34                     35                     36
                      A                      A                      A
 Frequencies --    735.0980               769.0314               790.0232
 Red. masses --      1.4212                 3.3070                 1.3167
 Frc consts  --      0.4525                 1.1523                 0.4842
 IR Inten    --     49.3597                33.6761                31.1732

                     37                     38                     39
                      A                      A                      A
 Frequencies --    797.8275               825.1755               832.0082
 Red. masses --      1.5020                 2.7101                 1.5390
 Frc consts  --      0.5633                 1.0872                 0.6277
 IR Inten    --     31.3101                 6.3277                 6.4265

                     40                     41                     42
                      A                      A                      A
 Frequencies --    862.0715               881.2016               898.5513
 Red. masses --      3.3312                 2.7821                 3.2012
 Frc consts  --      1.4586                 1.2729                 1.5228
 IR Inten    --      6.7592                 9.3200                10.4362

                     43                     44                     45
                      A                      A                      A
 Frequencies --    923.7627               938.8715              1003.9120
 Red. masses --      2.1045                 2.8190                 1.9263
 Frc consts  --      1.0581                 1.4641                 1.1438
 IR Inten    --      1.4581                 7.8064                 2.9085

                     46                     47                     48
                      A                      A                      A
 Frequencies --   1005.0266              1011.9521              1018.9460
 Red. masses --      1.4542                 2.6138                 1.9934
 Frc consts  --      0.8654                 1.5770                 1.2194
 IR Inten    --      8.9215                21.8857                26.7654

                     49                     50                     51
                      A                      A                      A
 Frequencies --   1025.0931              1027.7190              1060.1183
 Red. masses --      2.4217                 2.4314                 2.1578
 Frc consts  --      1.4993                 1.5130                 1.4288
 IR Inten    --      2.8720                16.1830                 4.6252

                     52                     53                     54
                      A                      A                      A
 Frequencies --   1067.1278              1081.3628              1114.1606
 Red. masses --      1.7172                 2.5894                 3.2159
 Frc consts  --      1.1522                 1.7840                 2.3521
 IR Inten    --      6.4302                25.0913                21.6814

                     55                     56                     57
                      A                      A                      A
 Frequencies --   1122.9122              1158.2402              1167.4264
 Red. masses --      1.9018                 2.8043                 1.5509
 Frc consts  --      1.4129                 2.2165                 1.2453
 IR Inten    --      4.1025                19.4975                21.4228

                     58                     59                     60
                      A                      A                      A
 Frequencies --   1176.8997              1183.4236              1190.5440
 Red. masses --      2.7560                 2.1555                 2.8953
 Frc consts  --      2.2491                 1.7786                 2.4179
 IR Inten    --    122.4635                31.1149                34.6278

                     61                     62                     63
                      A                      A                      A
 Frequencies --   1208.4735              1243.5549              1275.0868
 Red. masses --      1.3520                 1.2637                 1.3330
 Frc consts  --      1.1633                 1.1514                 1.2769
 IR Inten    --     11.7573                43.4716                24.2531

                     64                     65                     66
                      A                      A                      A
 Frequencies --   1292.1444              1299.1909              1324.7500
 Red. masses --      2.1184                 1.3028                 3.3016
 Frc consts  --      2.0839                 1.2956                 3.4139
 IR Inten    --     96.3682                13.8866               168.4558

                     67                     68                     69
                      A                      A                      A
 Frequencies --   1325.7377              1344.0610              1366.1854
 Red. masses --      1.4698                 1.2940                 1.8327
 Frc consts  --      1.5220                 1.3773                 2.0154
 IR Inten    --     63.3416                 5.4830                20.8564

                     70                     71                     72
                      A                      A                      A
 Frequencies --   1372.5033              1385.7679              1394.7200
 Red. masses --      1.4539                 1.4475                 1.6000
 Frc consts  --      1.6137                 1.6378                 1.8338
 IR Inten    --      8.1161                 2.2629                24.1048

                     73                     74                     75
                      A                      A                      A
 Frequencies --   1396.8600              1404.8133              1410.6887
 Red. masses --      1.3393                 1.3168                 1.3867
 Frc consts  --      1.5397                 1.5311                 1.6259
 IR Inten    --      5.3952                11.7142                20.5413

                     76                     77                     78
                      A                      A                      A
 Frequencies --   1427.8312              1429.8965              1438.5224
 Red. masses --      1.3740                 1.4323                 1.3028
 Frc consts  --      1.6504                 1.7254                 1.5884
 IR Inten    --     93.0620                48.7323                18.3733

                     79                     80                     81
                      A                      A                      A
 Frequencies --   1442.6624              1499.5372              1502.3950
 Red. masses --      1.3238                 1.0586                 1.0979
 Frc consts  --      1.6233                 1.4024                 1.4601
 IR Inten    --     12.0104                15.7895                 0.8874

                     82                     83                     84
                      A                      A                      A
 Frequencies --   1510.0834              1515.9034              1517.3121
 Red. masses --      1.1116                 1.0731                 1.1009
 Frc consts  --      1.4935                 1.4529                 1.4934
 IR Inten    --     22.9795                10.2805                 2.3035

                     85                     86                     87
                      A                      A                      A
 Frequencies --   1521.1222              1522.7865              1532.7481
 Red. masses --      1.0541                 1.0871                 1.2149
 Frc consts  --      1.4370                 1.4853                 1.6816
 IR Inten    --     20.0171                 2.8042                51.2737

                     88                     89                     90
                      A                      A                      A
 Frequencies --   1533.2367              1536.2263              1539.0136
 Red. masses --      1.0541                 1.1528                 1.1310
 Frc consts  --      1.4599                 1.6029                 1.5784
 IR Inten    --      2.3769                 2.5327                32.2001

                     91                     92                     93
                      A                      A                      A
 Frequencies --   1552.9792              1591.4078              1778.5609
 Red. masses --      5.3277                 6.5131                10.2779
 Frc consts  --      7.5704                 9.7185                19.1555
 IR Inten    --    201.5120                58.4762               324.1572

                     94                     95                     96
                      A                      A                      A
 Frequencies --   2955.7542              2967.4765              2975.0696
 Red. masses --      1.0724                 1.0725                 1.0726
 Frc consts  --      5.5202                 5.5643                 5.5932
 IR Inten    --     42.8763                25.3712                92.9165

                     97                     98                     99
                      A                      A                      A
 Frequencies --   3009.9435              3043.5199              3051.8938
 Red. masses --      1.0837                 1.0606                 1.0609
 Frc consts  --      5.7846                 5.7884                 5.8216
 IR Inten    --     42.7258                26.6972                20.4913

                    100                    101                    102
                      A                      A                      A
 Frequencies --   3056.2414              3074.4139              3086.6373
 Red. masses --      1.0356                 1.0378                 1.0880
 Frc consts  --      5.6991                 5.7796                 6.1072
 IR Inten    --     17.2612                 2.1092                38.9630

                    103                    104                    105
                      A                      A                      A
 Frequencies --   3091.0567              3099.8423              3107.8928
 Red. masses --      1.1010                 1.1017                 1.0923
 Frc consts  --      6.1981                 6.2374                 6.2161
 IR Inten    --     27.4744                40.5834                45.7033

                    106                    107                    108
                      A                      A                      A
 Frequencies --   3111.0135              3115.4938              3124.9298
 Red. masses --      1.0936                 1.0782                 1.0868
 Frc consts  --      6.2364                 6.1661                 6.2530
 IR Inten    --     49.3913                 3.8257                30.6932

                    109                    110                    111
                      A                      A                      A
 Frequencies --   3140.6342              3143.0599              3173.9502
 Red. masses --      1.0983                 1.0983                 1.1045
 Frc consts  --      6.3830                 6.3927                 6.5554
 IR Inten    --     17.6901                 5.4195                 9.2265

                    112                    113                    114
                      A                      A                      A
 Frequencies --   3177.2118              3276.9258              3487.7756
 Red. masses --      1.1076                 1.0949                 1.0736
 Frc consts  --      6.5875                 6.9270                 7.6945
 IR Inten    --      6.9207                 1.4985                 1.9731

 - Thermochemistry -
 -------------------
 Temperature   298.150 Kelvin.  Pressure   1.00000 Atm.
 Atom     1 has atomic number  6 and mass  12.00000

 Molecular mass:   283.13545 amu.
 Principal axes and moments of inertia in atomic units:
                           1         2         3
     Eigenvalues --  2458.18283********************
           X            0.99999  -0.00312   0.00367
           Y            0.00330   0.99872  -0.05041
           Z           -0.00351   0.05042   0.99872
 This molecule is an asymmetric top.
 Rotational symmetry number  1.
 Warning -- assumption of classical behavior for rotation
           may cause significant error
 Rotational temperatures (Kelvin)      0.03523     0.00623     0.00582
 Rotational constants (GHZ):           0.73418     0.12983     0.12124
 Zero-point vibrational energy     896089.5 (Joules/Mol)
                                  214.17053 (Kcal/Mol)
 Warning -- explicit consideration of  30 degrees of freedom as
           vibrations may cause significant error
 Vibrational temperatures:     14.40    23.32    42.42    68.12    76.77
          (Kelvin)            118.11   133.32   160.56   175.47   217.19
                              271.56   298.65   335.05   342.30   363.34
                              397.53   437.73   492.75   511.64   527.65
                              549.54   591.01   618.68   660.68   697.94
                              708.53   742.60   842.89   862.05   877.72
                              929.94   945.13   984.07  1057.64  1106.46
                             1136.67  1147.90  1187.24  1197.07  1240.33
                             1267.85  1292.81  1329.09  1350.83  1444.41
                             1446.01  1455.97  1466.04  1474.88  1478.66
                             1525.27  1535.36  1555.84  1603.03  1615.62
                             1666.45  1679.67  1693.30  1702.68  1712.93
                             1738.72  1789.20  1834.57  1859.11  1869.25
                             1906.02  1907.44  1933.80  1965.64  1974.73
                             1993.81  2006.69  2009.77  2021.21  2029.67
                             2054.33  2057.30  2069.71  2075.67  2157.50
                             2161.61  2172.67  2181.05  2183.07  2188.56
                             2190.95  2205.28  2205.99  2210.29  2214.30
                             2234.39  2289.68  2558.95  4252.67  4269.54
                             4280.46  4330.64  4378.95  4390.99  4397.25
                             4423.40  4440.98  4447.34  4459.98  4471.56
                             4476.05  4482.50  4496.08  4518.67  4522.16
                             4566.61  4571.30  4714.77  5018.13

 Zero-point correction=                           0.341302 (Hartree/Particle)
 Thermal correction to Energy=                    0.360771
 Thermal correction to Enthalpy=                  0.361715
 Thermal correction to Gibbs Free Energy=         0.289457
 Sum of electronic and zero-point Energies=          -1220.647495
 Sum of electronic and thermal Energies=             -1220.628026
 Sum of electronic and thermal Enthalpies=           -1220.627082
 Sum of electronic and thermal Free Energies=        -1220.699340

                     E (Thermal)             CV                S
                      KCal/Mol        Cal/Mol-Kelvin    Cal/Mol-Kelvin
 Total                  226.387             72.452            152.080
 Electronic               0.000              0.000              0.000
 Translational            0.889              2.981             42.820
 Rotational               0.889              2.981             34.586
 Vibrational            224.610             66.490             74.674
 Vibration     1          0.593              1.987              8.010
 Vibration     2          0.593              1.986              7.051
 Vibration     3          0.593              1.984              5.864
 Vibration     4          0.595              1.979              4.925
 Vibration     5          0.596              1.976              4.689
 Vibration     6          0.600              1.961              3.840
 Vibration     7          0.602              1.954              3.603
 Vibration     8          0.607              1.940              3.241
 Vibration     9          0.609              1.931              3.069
 Vibration    10          0.618              1.902              2.660
 Vibration    11          0.633              1.855              2.240
 Vibration    12          0.641              1.829              2.065
 Vibration    13          0.654              1.791              1.857
 Vibration    14          0.656              1.783              1.818
 Vibration    15          0.664              1.759              1.713
 Vibration    16          0.678              1.717              1.557
 Vibration    17          0.695              1.666              1.393
 Vibration    18          0.722              1.591              1.201
 Vibration    19          0.731              1.564              1.141
 Vibration    20          0.740              1.541              1.093
 Vibration    21          0.751              1.509              1.031
 Vibration    22          0.775              1.447              0.924
 Vibration    23          0.791              1.405              0.859
 Vibration    24          0.817              1.341              0.768
 Vibration    25          0.841              1.283              0.696
 Vibration    26          0.848              1.267              0.677
 Vibration    27          0.871              1.214              0.619
 Vibration    28          0.943              1.062              0.475
 Vibration    29          0.957              1.034              0.451
 Vibration    30          0.969              1.011              0.433

                           ! Non-Optimized Parameters !
 Normal termination of Gaussian 16 at Sun Dec 13 13:01:32 2020.

 ----------------------------------------------------------------------
 # B3LYP/6-311++G(d,p) empiricaldispersion=gd3bj scf=xqc pop=npa geom=c
 heck
 ----------------------------------------------------------------------

 --------------------------------------
 CID_43665640_JID_9089_Energie_neutraal
 --------------------------------------
 Structure from the checkpoint file:  "JID_9089.chk"
 Charge =  0 Multiplicity = 1

 SCF Done:  E(RB3LYP) =  -1221.24816007     A.U. after   16 cycles
 Normal termination of Gaussian 16 at Sun Dec 13 13:10:50 2020.

 ----------------------------------------------------------------------
 # B3LYP/6-311++G(d,p) empiricaldispersion=gd3bj scf=xqc pop=npa geom=c
 heck
 ----------------------------------------------------------------------

 ------------------------------------
 CID_43665640_JID_9089_Energie_kation
 ------------------------------------
 Structure from the checkpoint file:  "JID_9089.chk"
 Charge =  1 Multiplicity = 2

 SCF Done:  E(UB3LYP) =  -1220.95716807     A.U. after   26 cycles
 Normal termination of Gaussian 16 at Sun Dec 13 13:33:53 2020.
 Gaussian 16:  ES64L-G16RevA.03 25-Dec-2016

 ----------------------------------------------------------------------
 # B3LYP/6-311++G(d,p) empiricaldispersion=gd3bj scf=xqc pop=npa geom=c
 heck
 ----------------------------------------------------------------------

 -----------------------------------
 CID_43665640_JID_9089_Energie_anion
 -----------------------------------
 Structure from the checkpoint file:  "JID_9089.chk"
 Charge = -1 Multiplicity = 2

                         Standard orientation:
 ---------------------------------------------------------------------
 Center     Atomic      Atomic             Coordinates (Angstroms)
 Number     Number       Type             X           Y           Z
 ---------------------------------------------------------------------
      1          6           0       -3.603444    2.078989   -1.752045
      2          6           0       -2.982616    2.025303   -0.359406
      3          7           0       -3.099112    0.677482    0.239718
      4          6           0       -2.112363   -0.246444   -0.098285
      5          7           0       -0.842833    0.047636   -0.121514
      6          6           0       -0.079311   -0.998088   -0.600183
      7          6           0       -0.779675   -2.112679   -0.958948
      8         16           0       -2.483207   -1.855267   -0.735453
      9          6           0        1.409792   -0.816246   -0.657393
     10          7           0        1.911043   -0.455179    0.670175
     11          6           0        3.290708    0.035736    0.734730
     12          6           0        3.582139    1.344180   -0.028486
     13          6           0        5.055496    1.729326    0.132096
     14          8           0        5.919786    0.691447   -0.307762
     15          6           0        5.725434   -0.503645    0.436009
     16          6           0        4.296932   -1.033919    0.293965
     17          6           0       -4.225816    0.408942    1.015807
     18          8           0       -5.117914    1.237874    1.111323
     19          6           0       -4.286528   -0.909153    1.765638
     20          1           0       -3.119341    1.363963   -2.426508
     21          1           0       -3.488060    3.081369   -2.179071
     22          1           0       -4.671045    1.846839   -1.699960
     23          1           0       -1.919437    2.268359   -0.383155
     24          1           0       -3.491620    2.711510    0.317278
     25          1           0       -0.396448   -3.064582   -1.298356
     26          1           0        1.872942   -1.752631   -0.985061
     27          1           0        1.631760   -0.061229   -1.433259
     28          1           0        1.287149    0.257930    1.045811
     29          1           0        3.476336    0.234466    1.801115
     30          1           0        3.369516    1.217281   -1.096578
     31          1           0        2.940411    2.154052    0.343636
     32          1           0        5.306740    2.608791   -0.467907
     33          1           0        5.265945    1.967882    1.190113
     34          1           0        5.953858   -0.322646    1.501336
     35          1           0        6.455204   -1.222093    0.051714
     36          1           0        4.161604   -1.943527    0.891049
     37          1           0        4.131903   -1.296571   -0.758300
     38          1           0       -4.725469   -1.692741    1.139197
     39          1           0       -3.307433   -1.255140    2.104967
     40          1           0       -4.946355   -0.754963    2.621048
 ---------------------------------------------------------------------

 SCF Done:  E(UB3LYP) =  -1221.24573965     A.U. after   33 cycles
 SCF Done:  E(UB3LYP) =  -1221.24573965     a.u. after    1 cycles

 The electronic state is 2-A.
 Alpha  occ. eigenvalues --  -88.74725 -19.03689 -18.97385 -14.23859 -14.19332
 Alpha  occ. eigenvalues --  -14.17652 -10.15581 -10.12851 -10.12695 -10.11930
 Alpha  occ. eigenvalues --  -10.10617 -10.09538 -10.09242 -10.08295 -10.07556
 Alpha  occ. eigenvalues --  -10.07542 -10.06769 -10.06422 -10.06420  -7.83389
 Alpha  occ. eigenvalues --   -5.79683  -5.79341  -5.78974  -0.95151  -0.93114
 Alpha  occ. eigenvalues --   -0.85918  -0.81431  -0.79665  -0.69465  -0.67688
 Alpha  occ. eigenvalues --   -0.67323  -0.66282  -0.63489  -0.62021  -0.56516
 Alpha  occ. eigenvalues --   -0.55214  -0.53125  -0.52789  -0.50434  -0.47196
 Alpha  occ. eigenvalues --   -0.44841  -0.41219  -0.40739  -0.39508  -0.38933
 Alpha  occ. eigenvalues --   -0.38057  -0.37116  -0.36577  -0.35613  -0.35085
 Alpha  occ. eigenvalues --   -0.33608  -0.33361  -0.32221  -0.31826  -0.31722
 Alpha  occ. eigenvalues --   -0.30948  -0.30019  -0.29518  -0.28935  -0.28277
 Alpha  occ. eigenvalues --   -0.27598  -0.26995  -0.26371  -0.25457  -0.25162
 Alpha  occ. eigenvalues --   -0.24368  -0.23984  -0.23124  -0.22031  -0.17760
 Alpha  occ. eigenvalues --   -0.17371  -0.15989  -0.15468  -0.14803  -0.12533
 Alpha  occ. eigenvalues --   -0.10738   0.04453
 Alpha virt. eigenvalues --    0.05748   0.06894   0.07366   0.07772   0.08418
 Alpha virt. eigenvalues --    0.08724   0.09337   0.10092   0.10303   0.10375
 Alpha virt. eigenvalues --    0.10593   0.11341   0.11466   0.11798   0.12513

  Beta  occ. eigenvalues --  -88.74678 -19.03685 -18.97222 -14.23952 -14.19329
  Beta  occ. eigenvalues --  -14.17519 -10.15415 -10.12835 -10.12674 -10.11469
  Beta  occ. eigenvalues --  -10.10611 -10.09507 -10.09240 -10.08326 -10.07552
  Beta  occ. eigenvalues --  -10.07537 -10.06780 -10.06426 -10.06182  -7.83347
  Beta  occ. eigenvalues --   -5.79668  -5.79326  -5.78807  -0.95143  -0.92827
  Beta  occ. eigenvalues --   -0.85554  -0.81374  -0.79555  -0.69435  -0.67664
  Beta  occ. eigenvalues --   -0.67058  -0.66099  -0.63286  -0.61987  -0.56271
  Beta  occ. eigenvalues --   -0.55191  -0.53066  -0.52680  -0.50096  -0.47127
  Beta  occ. eigenvalues --   -0.44656  -0.41126  -0.40556  -0.39393  -0.38877
  Beta  occ. eigenvalues --   -0.37931  -0.36924  -0.36554  -0.35575  -0.34816
  Beta  occ. eigenvalues --   -0.33548  -0.33324  -0.32141  -0.31741  -0.31642
  Beta  occ. eigenvalues --   -0.30777  -0.29989  -0.29447  -0.28835  -0.27700
  Beta  occ. eigenvalues --   -0.27361  -0.26857  -0.26232  -0.25187  -0.25077
  Beta  occ. eigenvalues --   -0.24066  -0.23900  -0.22932  -0.21999  -0.17418
  Beta  occ. eigenvalues --   -0.16969  -0.15540  -0.14862  -0.14611  -0.12486
  Beta  occ. eigenvalues --   -0.09693
  Beta virt. eigenvalues --    0.06257   0.07258   0.07422   0.07838   0.08370
  Beta virt. eigenvalues --    0.08729   0.09335   0.09382   0.10202   0.10404
  Beta virt. eigenvalues --    0.10528   0.10643   0.11306   0.11581   0.11880

 Mulliken charges and spin densities:
               1          2
     1  C   -0.445186  -0.037310
     2  C   -0.155482   0.052651
     3  N    0.440889  -0.050039
     4  C   -0.441561   0.212699
     5  N   -0.038367   0.080751
     6  C   -0.866002  -0.184935
     7  C    0.326588   0.355479
     8  S   -0.290614   0.037989
     9  C   -0.221527  -0.055605
    10  N    0.010075   0.019932
    11  C    0.026318  -0.325808
    12  C   -0.328633   0.381881
    13  C    0.141001  -0.742486
    14  O   -0.167410   0.055552
    15  C    0.508824  -1.010752
    16  C   -0.625178   0.506391
    17  C    0.265373   0.088225
    18  O   -0.364978   0.053583
    19  C   -0.559515  -0.010342
    20  H    0.116197   0.028459
    21  H    0.105839   0.009859
    22  H    0.171723  -0.002662
    23  H    0.150851   0.004473
    24  H    0.167621   0.001042
    25  H    0.212318   0.012700
    26  H    0.054545   0.062424
    27  H    0.098983   0.011666
    28  H    0.283778  -0.008457
    29  H    0.076338   0.096471
    30  H    0.141048   0.017623
    31  H    0.067653   0.058180
    32  H   -0.049076   0.223655
    33  H   -0.101884   0.238522
    34  H   -0.104774   0.229702
    35  H   -0.244133   0.433456
    36  H    0.008527   0.165725
    37  H    0.178709  -0.051300
    38  H    0.118209   0.042104
    39  H    0.171608   0.001498
    40  H    0.161305  -0.003000
 Sum of Mulliken charges =  -1.00000   1.00000

 Dipole moment (field-independent basis, Debye):
    X=             -0.6289    Y=             -0.1991    Z=             -1.5364  Tot=              1.6721
 Quadrupole moment (field-independent basis, Debye-Ang):
   XX=           -249.4644   YY=           -145.5145   ZZ=           -141.3511
   XY=              5.2642   XZ=              1.3322   YZ=             -1.2605

 Summary of Natural Population Analysis:

                                       Natural Population
                Natural  -----------------------------------------------
    Atom  No    Charge         Core      Valence    Rydberg      Total
 -----------------------------------------------------------------------
      C    1   -0.29225      0.99967     2.28895    0.00364     3.29225
      C    2   -0.07941      0.99963     2.07080    0.00898     3.07941
      N    3   -0.27784      0.99959     2.76481    0.01344     3.77784
      C    4    0.19834      0.99958     1.78183    0.02025     2.80166
      N    5   -0.25712      0.99961     2.74731    0.01019     3.75712
      C    6    0.05149      0.99950     1.93505    0.01396     2.94851
      C    7   -0.17115      0.99945     2.16201    0.00969     3.17115
      S    8    0.17611      4.99945     2.80436    0.02008     7.82389
      C    9   -0.09541      0.99957     2.08550    0.01033     3.09541
      N   10   -0.33869      0.99973     2.82784    0.01112     3.83869
      C   11   -0.00795      0.99958     1.99556    0.01282     3.00795
      C   12   -0.21466      0.99961     2.20593    0.00912     3.21466
      C   13   -0.01011      0.99958     1.99722    0.01331     3.01011
      O   14   -0.30096      0.99989     3.29143    0.00964     4.30096
      C   15   -0.00948      0.99958     1.99620    0.01370     3.00948
      C   16   -0.21011      0.99961     2.20085    0.00965     3.21011
      C   17    0.36994      0.99969     1.60971    0.02066     2.63006
      O   18   -0.31456      0.99988     3.30834    0.00634     4.31456
      C   19   -0.33390      0.99963     2.32976    0.00451     3.33390
      H   20    0.09980      0.00000     0.39883    0.00137     0.40020
      H   21    0.09334      0.00000     0.40585    0.00082     0.40666
      H   22    0.10233      0.00000     0.39672    0.00095     0.39767
      H   23    0.10393      0.00000     0.39505    0.00103     0.39607
      H   24    0.10380      0.00000     0.39506    0.00114     0.39620
      H   25    0.10250      0.00000     0.39588    0.00162     0.39750
      H   26    0.09233      0.00000     0.40611    0.00157     0.40767
      H   27    0.08311      0.00000     0.41518    0.00171     0.41689
      H   28    0.18139      0.00000     0.31557    0.00304     0.31861
      H   29    0.09026      0.00000     0.40774    0.00200     0.40974
      H   30    0.09841      0.00000     0.40023    0.00137     0.40159
      H   31    0.10128      0.00000     0.39749    0.00123     0.39872
      H   32    0.09043      0.00000     0.40848    0.00109     0.40957
      H   33    0.07557      0.00000     0.42290    0.00153     0.42443
      H   34    0.07592      0.00000     0.42243    0.00166     0.42408
      H   35    0.09128      0.00000     0.40749    0.00123     0.40872
      H   36    0.10597      0.00000     0.39270    0.00133     0.39403
      H   37    0.09733      0.00000     0.40138    0.00129     0.40267
      H   38    0.11153      0.00000     0.38758    0.00088     0.38847
      H   39    0.11067      0.00000     0.38856    0.00078     0.38933
      H   40    0.10655      0.00000     0.39237    0.00108     0.39345
 =======================================================================
   * Total *    0.00000     22.99284    52.75703    0.25013    76.00000

 Normal termination of Gaussian 16 at Sun Dec 13 14:01:42 2020.
