 Gaussian 16, Revision A.03,

 -----------------------------------------------------------
 # opt freq B3LYP/6-31G(d) empiricaldispersion=gd3bj scf=xqc
 -----------------------------------------------------------

 -------------------------------
 CID_145537368_JID_2968_neutraal
 -------------------------------
 Symbolic Z-matrix:
 Charge =  0 Multiplicity = 1

 SCF Done:  E(RB3LYP) =  -484.170744817     A.U. after   15 cycles
 SCF Done:  E(RB3LYP) =  -484.176426722     A.U. after   12 cycles
 SCF Done:  E(RB3LYP) =  -484.178788285     A.U. after   13 cycles
 SCF Done:  E(RB3LYP) =  -484.179273637     A.U. after   12 cycles
 SCF Done:  E(RB3LYP) =  -484.179468855     A.U. after   12 cycles
 SCF Done:  E(RB3LYP) =  -484.179508582     A.U. after   10 cycles
 SCF Done:  E(RB3LYP) =  -484.179514211     A.U. after    9 cycles
 SCF Done:  E(RB3LYP) =  -484.179515444     A.U. after    8 cycles
 Optimization completed.
    -- Stationary point found.
 Normal termination of Gaussian 16 at Wed Dec  9 18:19:00 2020.

 --------------------------------------------------------------------
 #N Geom=AllCheck Guess=TCheck SCRF=Check GenChk RB3LYP/6-31G(d) Freq
 --------------------------------------------------------------------

 Structure from the checkpoint file:  "JID_2968.chk"
 -------------------------------
 CID_145537368_JID_2968_neutraal
 -------------------------------
 Charge =  0 Multiplicity = 1

 SCF Done:  E(RB3LYP) =  -484.179515444     A.U. after    1 cycles

  Exact polarizability: 144.907   0.357 119.813   9.325   6.244  93.920
 Approx polarizability: 207.201  -3.163 203.761  26.057  16.451 141.063

                      1                      2                      3
                      A                      A                      A
 Frequencies --     49.9260                95.4715               167.4975
 Red. masses --      2.7643                 3.0235                 2.7271
 Frc consts  --      0.0041                 0.0162                 0.0451
 IR Inten    --      0.0516                 0.2243                 0.0748

                      4                      5                      6
                      A                      A                      A
 Frequencies --    197.2214               212.6036               223.0870
 Red. masses --      2.6392                 1.1927                 1.5768
 Frc consts  --      0.0605                 0.0318                 0.0462
 IR Inten    --      0.3832                 0.1852                 0.0832

                      7                      8                      9
                      A                      A                      A
 Frequencies --    235.1400               250.2008               258.7268
 Red. masses --      1.2437                 1.1946                 2.2051
 Frc consts  --      0.0405                 0.0441                 0.0870
 IR Inten    --      0.2598                 0.0594                 0.3901

                     10                     11                     12
                      A                      A                      A
 Frequencies --    265.1917               287.9129               321.3371
 Red. masses --      1.4936                 2.2678                 2.4631
 Frc consts  --      0.0619                 0.1108                 0.1499
 IR Inten    --      0.0570                 0.5520                 0.8470

                     13                     14                     15
                      A                      A                      A
 Frequencies --    347.6973               391.1689               404.8705
 Red. masses --      3.1230                 2.2784                 2.6690
 Frc consts  --      0.2224                 0.2054                 0.2578
 IR Inten    --      2.5803                 1.0857                 0.8049

                     16                     17                     18
                      A                      A                      A
 Frequencies --    434.4142               470.8632               506.0221
 Red. masses --      3.0255                 4.0617                 2.6351
 Frc consts  --      0.3364                 0.5306                 0.3975
 IR Inten    --      1.1523                 9.4763                 1.8066

                     19                     20                     21
                      A                      A                      A
 Frequencies --    557.1398               612.0983               712.8952
 Red. masses --      3.2779                 2.8231                 3.6893
 Frc consts  --      0.5995                 0.6232                 1.1047
 IR Inten    --     13.3464                 2.4706                 1.1735

                     22                     23                     24
                      A                      A                      A
 Frequencies --    739.5017               817.7498               829.5583
 Red. masses --      3.9582                 2.5119                 2.0545
 Frc consts  --      1.2754                 0.9897                 0.8330
 IR Inten    --     10.1449                11.3262                20.7398

                     25                     26                     27
                      A                      A                      A
 Frequencies --    860.0669               884.2918               905.7021
 Red. masses --      1.6029                 2.8098                 1.5342
 Frc consts  --      0.6986                 1.2945                 0.7415
 IR Inten    --     18.7865                 0.2715                 5.3028

                     28                     29                     30
                      A                      A                      A
 Frequencies --    932.2929               942.4889               947.8214
 Red. masses --      3.3885                 1.1960                 1.8509
 Frc consts  --      1.7353                 0.6260                 0.9797
 IR Inten    --      9.3395                 1.5217                 1.8747

                     31                     32                     33
                      A                      A                      A
 Frequencies --    965.1699               968.1432               976.2285
 Red. masses --      1.4637                 1.3762                 1.4564
 Frc consts  --      0.8034                 0.7600                 0.8178
 IR Inten    --      3.8483                 5.1639                 1.0815

                     34                     35                     36
                      A                      A                      A
 Frequencies --   1014.6979              1038.4720              1062.8286
 Red. masses --      1.9212                 1.5895                 1.6688
 Frc consts  --      1.1655                 1.0100                 1.1107
 IR Inten    --      3.3598                14.5149                 7.8003

                     37                     38                     39
                      A                      A                      A
 Frequencies --   1105.2533              1135.2561              1175.7949
 Red. masses --      2.0446                 2.2902                 1.9469
 Frc consts  --      1.4716                 1.7391                 1.5858
 IR Inten    --      7.6085                 0.6668                 3.3255

                     40                     41                     42
                      A                      A                      A
 Frequencies --   1207.9062              1236.2418              1248.3388
 Red. masses --      2.1696                 2.8067                 2.2942
 Frc consts  --      1.8650                 2.5273                 2.1064
 IR Inten    --      5.7379                 2.1296                 9.2783

                     43                     44                     45
                      A                      A                      A
 Frequencies --   1266.2061              1285.5889              1345.2366
 Red. masses --      2.7465                 1.2598                 1.5184
 Frc consts  --      2.5944                 1.2268                 1.6190
 IR Inten    --      3.6283                 3.8622                 6.6569

                     46                     47                     48
                      A                      A                      A
 Frequencies --   1362.4271              1395.9206              1420.5768
 Red. masses --      1.3362                 1.2319                 1.2161
 Frc consts  --      1.4613                 1.4143                 1.4459
 IR Inten    --      2.9033                 4.3384                 3.7663

                     49                     50                     51
                      A                      A                      A
 Frequencies --   1426.2679              1428.7615              1446.9279
 Red. masses --      1.2356                 1.3196                 1.2223
 Frc consts  --      1.4809                 1.5871                 1.5077
 IR Inten    --      3.5598                13.1371                 3.9208

                     52                     53                     54
                      A                      A                      A
 Frequencies --   1451.6266              1499.4686              1514.1911
 Red. masses --      1.2598                 1.6924                 1.0598
 Frc consts  --      1.5641                 2.2419                 1.4316
 IR Inten    --      5.9656                 1.3991                 3.9045

                     55                     56                     57
                      A                      A                      A
 Frequencies --   1517.6425              1519.7624              1521.3405
 Red. masses --      1.0447                 1.0461                 1.0529
 Frc consts  --      1.4178                 1.4236                 1.4358
 IR Inten    --      0.0685                 0.4800                 2.1910

                     58                     59                     60
                      A                      A                      A
 Frequencies --   1529.9644              1533.3003              1539.1256
 Red. masses --      1.0670                 1.0576                 1.0584
 Frc consts  --      1.4715                 1.4649                 1.4772
 IR Inten    --      1.7957                 8.8271                 7.0189

                     61                     62                     63
                      A                      A                      A
 Frequencies --   1543.7189              1567.9750              1666.0353
 Red. masses --      1.0630                 5.4854                 5.9922
 Frc consts  --      1.4926                 7.9458                 9.7995
 IR Inten    --      7.0410                 6.0683                10.7063

                     64                     65                     66
                      A                      A                      A
 Frequencies --   1683.9648              3038.0972              3045.3457
 Red. masses --      8.6748                 1.0844                 1.0347
 Frc consts  --     14.4936                 5.8972                 5.6539
 IR Inten    --     37.5375                13.2632                25.6641

                     67                     68                     69
                      A                      A                      A
 Frequencies --   3046.5707              3049.6154              3056.8256
 Red. masses --      1.0356                 1.0353                 1.0397
 Frc consts  --      5.6632                 5.6729                 5.7238
 IR Inten    --     23.5242                29.0833                33.2010

                     70                     71                     72
                      A                      A                      A
 Frequencies --   3108.9117              3109.7232              3114.5037
 Red. masses --      1.0886                 1.1023                 1.1016
 Frc consts  --      6.1991                 6.2804                 6.2960
 IR Inten    --     35.0004                 1.4487                31.3818

                     73                     74                     75
                      A                      A                      A
 Frequencies --   3115.8387              3116.1345              3121.3928
 Red. masses --      1.1016                 1.1025                 1.1029
 Frc consts  --      6.3015                 6.3076                 6.3313
 IR Inten    --     61.9237                18.9451                22.9589

                     76                     77                     78
                      A                      A                      A
 Frequencies --   3123.0629              3124.9214              3146.2909
 Red. masses --      1.1023                 1.1026                 1.0884
 Frc consts  --      6.3345                 6.3437                 6.3483
 IR Inten    --     31.2585                33.6393                23.5821

                     79                     80                     81
                      A                      A                      A
 Frequencies --   3163.9937              3168.6155              3183.4572
 Red. masses --      1.0841                 1.0967                 1.0930
 Frc consts  --      6.3943                 6.4875                 6.5262
 IR Inten    --      5.7097                 9.5357                39.2035

 - Thermochemistry -
 -------------------
 Temperature   298.150 Kelvin.  Pressure   1.00000 Atm.
 Atom     1 has atomic number  6 and mass  12.00000

 Molecular mass:   163.13610 amu.
 Principal axes and moments of inertia in atomic units:
                           1         2         3
     Eigenvalues --  1213.436002706.995013113.11107
           X            0.99974   0.02285  -0.00218
           Y           -0.02281   0.99957   0.01851
           Z            0.00260  -0.01845   0.99983
 This molecule is an asymmetric top.
 Rotational symmetry number  1.
 Warning -- assumption of classical behavior for rotation
           may cause significant error
 Rotational temperatures (Kelvin)      0.07138     0.03200     0.02782
 Rotational constants (GHZ):           1.48730     0.66670     0.57972
 Zero-point vibrational energy     677652.3 (Joules/Mol)
                                  161.96279 (Kcal/Mol)
 Warning -- explicit consideration of  20 degrees of freedom as
           vibrations may cause significant error
 Vibrational temperatures:     71.83   137.36   240.99   283.76   305.89
          (Kelvin)            320.97   338.31   359.98   372.25   381.55
                              414.24   462.33   500.26   562.80   582.52
                              625.03   677.47   728.05   801.60   880.67
                             1025.70  1063.98  1176.56  1193.55  1237.44
                             1272.30  1303.10  1341.36  1356.03  1363.70
                             1388.66  1392.94  1404.58  1459.92  1494.13
                             1529.17  1590.21  1633.38  1691.71  1737.91
                             1778.68  1796.08  1821.79  1849.68  1935.50
                             1960.23  2008.42  2043.89  2052.08  2055.67
                             2081.81  2088.57  2157.40  2178.58  2183.55
                             2186.60  2188.87  2201.28  2206.08  2214.46
                             2221.07  2255.97  2397.05  2422.85  4371.14
                             4381.57  4383.34  4387.72  4398.09  4473.03
                             4474.20  4481.08  4483.00  4483.42  4490.99
                             4493.39  4496.06  4526.81  4552.28  4558.93
                             4580.28

 Zero-point correction=                           0.258104 (Hartree/Particle)
 Thermal correction to Energy=                    0.270713
 Thermal correction to Enthalpy=                  0.271657
 Thermal correction to Gibbs Free Energy=         0.220505
 Sum of electronic and zero-point Energies=           -483.921411
 Sum of electronic and thermal Energies=              -483.908803
 Sum of electronic and thermal Enthalpies=            -483.907859
 Sum of electronic and thermal Free Energies=         -483.959010

                     E (Thermal)             CV                S
                      KCal/Mol        Cal/Mol-Kelvin    Cal/Mol-Kelvin
 Total                  169.875             49.369            107.657
 Electronic               0.000              0.000              0.000
 Translational            0.889              2.981             41.177
 Rotational               0.889              2.981             30.704
 Vibrational            168.097             43.407             35.777
 Vibration     1          0.595              1.978              4.820
 Vibration     2          0.603              1.952              3.545
 Vibration     3          0.624              1.882              2.463
 Vibration     4          0.637              1.844              2.159
 Vibration     5          0.644              1.822              2.021
 Vibration     6          0.649              1.806              1.934
 Vibration     7          0.655              1.787              1.839
 Vibration     8          0.663              1.762              1.729
 Vibration     9          0.668              1.748              1.670
 Vibration    10          0.671              1.737              1.627
 Vibration    11          0.685              1.696              1.486
 Vibration    12          0.707              1.633              1.303
 Vibration    13          0.725              1.580              1.177
 Vibration    14          0.759              1.489              0.996
 Vibration    15          0.770              1.460              0.945
 Vibration    16          0.795              1.395              0.844
 Vibration    17          0.828              1.315              0.735
 Vibration    18          0.861              1.237              0.643
 Vibration    19          0.913              1.124              0.530
 Vibration    20          0.971              1.006              0.429

                           ! Non-Optimized Parameters !
 Normal termination of Gaussian 16 at Wed Dec  9 18:26:24 2020.

 ----------------------------------------------------------------------
 # B3LYP/6-311++G(d,p) empiricaldispersion=gd3bj scf=xqc pop=npa geom=c
 heck
 ----------------------------------------------------------------------

 ---------------------------------------
 CID_145537368_JID_2968_Energie_neutraal
 ---------------------------------------
 Structure from the checkpoint file:  "JID_2968.chk"
 Charge =  0 Multiplicity = 1

 SCF Done:  E(RB3LYP) =  -484.309072860     A.U. after   15 cycles
 Normal termination of Gaussian 16 at Wed Dec  9 18:29:12 2020.

 ----------------------------------------------------------------------
 # B3LYP/6-311++G(d,p) empiricaldispersion=gd3bj scf=xqc pop=npa geom=c
 heck
 ----------------------------------------------------------------------

 -------------------------------------
 CID_145537368_JID_2968_Energie_kation
 -------------------------------------
 Structure from the checkpoint file:  "JID_2968.chk"
 Charge =  1 Multiplicity = 2

 SCF Done:  E(UB3LYP) =  -484.014688407     A.U. after   21 cycles
 Normal termination of Gaussian 16 at Wed Dec  9 18:34:43 2020.
 Gaussian 16:  ES64L-G16RevA.03 25-Dec-2016

 ----------------------------------------------------------------------
 # B3LYP/6-311++G(d,p) empiricaldispersion=gd3bj scf=xqc pop=npa geom=c
 heck
 ----------------------------------------------------------------------

 ------------------------------------
 CID_145537368_JID_2968_Energie_anion
 ------------------------------------
 Structure from the checkpoint file:  "JID_2968.chk"
 Charge = -1 Multiplicity = 2

                         Standard orientation:
 ---------------------------------------------------------------------
 Center     Atomic      Atomic             Coordinates (Angstroms)
 Number     Number       Type             X           Y           Z
 ---------------------------------------------------------------------
      1          6           0        3.016680    0.242323   -1.199336
      2          6           0        2.208143   -0.676769   -0.270574
      3          6           0        2.958589   -0.935063    1.047089
      4          6           0        0.805576   -0.132746   -0.014170
      5          6           0       -0.272556   -0.884580   -0.368290
      6          6           0       -1.711592   -0.570314   -0.035951
      7          6           0       -1.928992    0.764271   -0.742571
      8          7           0       -1.402819    1.893664   -0.437011
      9          6           0       -0.347656    2.044297    0.422659
     10          6           0        0.696791    1.174915    0.581413
     11          6           0       -2.638444   -1.627593   -0.655448
     12          6           0       -1.987300   -0.481181    1.477169
     13          1           0        3.179236    1.224103   -0.740238
     14          1           0        2.491787    0.401471   -2.147231
     15          1           0        3.998641   -0.193486   -1.417712
     16          1           0        2.091202   -1.645139   -0.774148
     17          1           0        3.133930   -0.004643    1.599545
     18          1           0        2.391113   -1.609753    1.696751
     19          1           0        3.936629   -1.388392    0.848777
     20          1           0       -0.097442   -1.793400   -0.943705
     21          1           0       -2.588910    0.752675   -1.614962
     22          1           0       -0.276836    3.034080    0.869516
     23          1           0        1.571215    1.565235    1.097072
     24          1           0       -2.446525   -2.610905   -0.213144
     25          1           0       -3.690012   -1.375604   -0.480085
     26          1           0       -2.482411   -1.706519   -1.737953
     27          1           0       -1.348298    0.250965    1.971748
     28          1           0       -3.032541   -0.203382    1.654966
     29          1           0       -1.806472   -1.458314    1.937938
 ---------------------------------------------------------------------

 SCF Done:  E(UB3LYP) =  -484.297109945     A.U. after   33 cycles
 SCF Done:  E(UB3LYP) =  -484.297109945     a.u. after    1 cycles

 The electronic state is 2-A.
 Alpha  occ. eigenvalues --  -14.17131 -10.06907 -10.06723 -10.05663 -10.05548
 Alpha  occ. eigenvalues --  -10.05010 -10.04405 -10.04291 -10.03984 -10.03961
 Alpha  occ. eigenvalues --  -10.03157 -10.02667  -0.79943  -0.70688  -0.68804
 Alpha  occ. eigenvalues --   -0.63538  -0.59132  -0.57230  -0.56729  -0.52190
 Alpha  occ. eigenvalues --   -0.50681  -0.45332  -0.41018  -0.38764  -0.36913
 Alpha  occ. eigenvalues --   -0.33913  -0.32304  -0.31998  -0.31402  -0.30466
 Alpha  occ. eigenvalues --   -0.29219  -0.27607  -0.27039  -0.26661  -0.26160
 Alpha  occ. eigenvalues --   -0.25254  -0.24257  -0.22996  -0.22488  -0.21972
 Alpha  occ. eigenvalues --   -0.20589  -0.18526  -0.15216  -0.11756  -0.09274
 Alpha  occ. eigenvalues --    0.05362
 Alpha virt. eigenvalues --    0.07378   0.07937   0.08956   0.09373   0.10228
 Alpha virt. eigenvalues --    0.10327   0.10694   0.11216   0.12229   0.12315
 Alpha virt. eigenvalues --    0.12546   0.13250   0.13533   0.14069   0.14348

  Beta  occ. eigenvalues --  -14.17151 -10.06746 -10.06587 -10.05526 -10.05512
  Beta  occ. eigenvalues --  -10.04995 -10.04457 -10.04277 -10.03960 -10.03948
  Beta  occ. eigenvalues --  -10.02919 -10.02530  -0.79709  -0.70563  -0.68694
  Beta  occ. eigenvalues --   -0.63317  -0.58876  -0.57192  -0.56683  -0.51670
  Beta  occ. eigenvalues --   -0.50530  -0.45192  -0.40820  -0.38577  -0.36797
  Beta  occ. eigenvalues --   -0.33790  -0.32186  -0.31889  -0.31312  -0.30319
  Beta  occ. eigenvalues --   -0.29163  -0.27552  -0.26996  -0.26575  -0.25919
  Beta  occ. eigenvalues --   -0.25142  -0.24125  -0.22889  -0.22343  -0.21770
  Beta  occ. eigenvalues --   -0.20513  -0.18332  -0.14545  -0.11478  -0.08197
  Beta virt. eigenvalues --    0.07676   0.08270   0.09078   0.09576   0.09881
  Beta virt. eigenvalues --    0.10390   0.10863   0.10903   0.11390   0.12333
  Beta virt. eigenvalues --    0.12602   0.12710   0.13241   0.13753   0.14111

 Mulliken charges and spin densities:
               1          2
     1  C    0.421935  -1.135058
     2  C   -1.743437   1.906262
     3  C    0.211707  -0.889564
     4  C    1.662844  -1.056698
     5  C   -0.306869  -0.154514
     6  C    0.944970  -0.094104
     7  C   -0.415888   0.131939
     8  N   -0.049910  -0.007520
     9  C   -0.168727  -0.227599
    10  C   -0.637885   0.634193
    11  C    0.000661  -0.670462
    12  C   -0.436984  -0.294459
    13  H    0.057147   0.083881
    14  H    0.089678   0.048283
    15  H   -0.411522   0.549672
    16  H   -0.488373   0.646550
    17  H    0.044349   0.082169
    18  H    0.001959   0.138730
    19  H   -0.288134   0.431568
    20  H   -0.146409   0.313008
    21  H    0.125204   0.017801
    22  H    0.101349   0.029400
    23  H    0.141583  -0.009580
    24  H   -0.184341   0.321849
    25  H    0.162953  -0.026768
    26  H    0.034120   0.097257
    27  H    0.147919   0.002365
    28  H    0.136557  -0.007683
    29  H   -0.006455   0.139083
 Sum of Mulliken charges =  -1.00000   1.00000

 Dipole moment (field-independent basis, Debye):
    X=             -3.2576    Y=              2.0110    Z=              1.4702  Tot=              4.1009
 Quadrupole moment (field-independent basis, Debye-Ang):
   XX=           -123.6751   YY=           -114.0026   ZZ=            -96.9298
   XY=             10.7075   XZ=              4.4476   YZ=              2.2003

 Summary of Natural Population Analysis:

                                       Natural Population
                Natural  -----------------------------------------------
    Atom  No    Charge         Core      Valence    Rydberg      Total
 -----------------------------------------------------------------------
      C    1   -0.28125      0.99965     2.27541    0.00619     3.28125
      C    2   -0.11616      0.99958     2.10441    0.01217     3.11616
      C    3   -0.28026      0.99965     2.27440    0.00621     3.28026
      C    4   -0.03469      0.99947     2.02267    0.01255     3.03469
      C    5   -0.03772      0.99946     2.02658    0.01167     3.03772
      C    6   -0.09741      0.99955     2.08762    0.01024     3.09741
      C    7    0.13768      0.99958     1.84722    0.01552     2.86232
      N    8   -0.25096      0.99966     2.73739    0.01392     3.75096
      C    9    0.02139      0.99953     1.96488    0.01420     2.97861
      C   10   -0.11870      0.99950     2.11078    0.00842     3.11870
      C   11   -0.27770      0.99965     2.26996    0.00809     3.27770
      C   12   -0.27903      0.99963     2.27385    0.00555     3.27903
      H   13    0.09621      0.00000     0.40295    0.00085     0.40379
      H   14    0.10010      0.00000     0.39905    0.00085     0.39990
      H   15    0.09587      0.00000     0.40298    0.00115     0.40413
      H   16    0.09664      0.00000     0.40070    0.00266     0.40336
      H   17    0.09265      0.00000     0.40636    0.00099     0.40735
      H   18    0.10169      0.00000     0.39744    0.00087     0.39831
      H   19    0.09611      0.00000     0.40302    0.00086     0.40389
      H   20    0.09222      0.00000     0.40610    0.00168     0.40778
      H   21    0.07486      0.00000     0.42352    0.00162     0.42514
      H   22    0.08259      0.00000     0.41625    0.00116     0.41741
      H   23    0.09360      0.00000     0.40516    0.00124     0.40640
      H   24    0.10093      0.00000     0.39816    0.00091     0.39907
      H   25    0.09447      0.00000     0.40473    0.00079     0.40553
      H   26    0.09823      0.00000     0.40095    0.00082     0.40177
      H   27    0.10945      0.00000     0.38944    0.00111     0.39055
      H   28    0.09205      0.00000     0.40704    0.00091     0.40795
      H   29    0.09714      0.00000     0.40192    0.00094     0.40286
 =======================================================================
   * Total *    0.00000     11.99490    32.86094    0.14416    45.00000

 Normal termination of Gaussian 16 at Wed Dec  9 18:42:38 2020.
