 Gaussian 16, Revision A.03,

 -----------------------------------------------------------
 # opt freq B3LYP/6-31G(d) empiricaldispersion=gd3bj scf=xqc
 -----------------------------------------------------------

 ------------------------------
 CID_54504171_JID_2759_neutraal
 ------------------------------
 Symbolic Z-matrix:
 Charge =  0 Multiplicity = 1

 SCF Done:  E(RB3LYP) =  -536.125244657     A.U. after   15 cycles
 SCF Done:  E(RB3LYP) =  -536.128511555     A.U. after   13 cycles
 SCF Done:  E(RB3LYP) =  -536.129265626     A.U. after   12 cycles
 SCF Done:  E(RB3LYP) =  -536.130080063     A.U. after   12 cycles
 SCF Done:  E(RB3LYP) =  -536.130917318     A.U. after   13 cycles
 SCF Done:  E(RB3LYP) =  -536.131307828     A.U. after   12 cycles
 SCF Done:  E(RB3LYP) =  -536.131415797     A.U. after   11 cycles
 SCF Done:  E(RB3LYP) =  -536.131435642     A.U. after   10 cycles
 SCF Done:  E(RB3LYP) =  -536.131440875     A.U. after    9 cycles
 SCF Done:  E(RB3LYP) =  -536.131443241     A.U. after    9 cycles
 SCF Done:  E(RB3LYP) =  -536.131443547     A.U. after    7 cycles
 SCF Done:  E(RB3LYP) =  -536.131443578     A.U. after    7 cycles
 SCF Done:  E(RB3LYP) =  -536.131443575     A.U. after    7 cycles
 Optimization completed.
    -- Stationary point found.
 Normal termination of Gaussian 16 at Wed Dec  9 17:53:48 2020.

 --------------------------------------------------------------------
 #N Geom=AllCheck Guess=TCheck SCRF=Check GenChk RB3LYP/6-31G(d) Freq
 --------------------------------------------------------------------

 Structure from the checkpoint file:  "JID_2759.chk"
 ------------------------------
 CID_54504171_JID_2759_neutraal
 ------------------------------
 Charge =  0 Multiplicity = 1

 SCF Done:  E(RB3LYP) =  -536.131443575     A.U. after    1 cycles

  Exact polarizability: 129.101   0.259 109.125   6.678  -6.194  83.373
 Approx polarizability: 176.527   1.594 175.867  16.733 -11.258 122.515

                      1                      2                      3
                      A                      A                      A
 Frequencies --     37.1496                52.3800               103.7278
 Red. masses --      3.6586                 2.8797                 2.9494
 Frc consts  --      0.0030                 0.0047                 0.0187
 IR Inten    --      0.2752                 0.4955                 0.8654

                      4                      5                      6
                      A                      A                      A
 Frequencies --    109.1723               128.7834               180.8889
 Red. masses --      3.7540                 4.1643                 3.7024
 Frc consts  --      0.0264                 0.0407                 0.0714
 IR Inten    --      2.6022                 2.4723                 1.8262

                      7                      8                      9
                      A                      A                      A
 Frequencies --    222.1984               273.9667               279.7477
 Red. masses --      1.5053                 1.5256                 1.1425
 Frc consts  --      0.0438                 0.0675                 0.0527
 IR Inten    --      0.8999                 9.8185                32.8539

                     10                     11                     12
                      A                      A                      A
 Frequencies --    311.2973               364.6748               367.0549
 Red. masses --      3.4686                 3.6901                 2.6722
 Frc consts  --      0.1980                 0.2891                 0.2121
 IR Inten    --      8.8682                 1.1649                14.4295

                     13                     14                     15
                      A                      A                      A
 Frequencies --    425.4055               462.0295               500.9725
 Red. masses --      2.9269                 4.2223                 3.8420
 Frc consts  --      0.3121                 0.5311                 0.5681
 IR Inten    --      3.0669                 3.9261                 3.3480

                     16                     17                     18
                      A                      A                      A
 Frequencies --    519.7070               582.4785               603.7381
 Red. masses --      2.6406                 3.9344                 2.3061
 Frc consts  --      0.4202                 0.7865                 0.4952
 IR Inten    --      3.4540                19.7458                11.0522

                     19                     20                     21
                      A                      A                      A
 Frequencies --    657.2644               705.1148               773.4971
 Red. masses --      3.2193                 1.7807                 1.5538
 Frc consts  --      0.8194                 0.5216                 0.5477
 IR Inten    --     27.7717                17.1412                57.8452

                     22                     23                     24
                      A                      A                      A
 Frequencies --    788.1273               802.3681               859.5749
 Red. masses --      2.6620                 1.3746                 2.2933
 Frc consts  --      0.9742                 0.5214                 0.9984
 IR Inten    --     69.2193                 8.4217                13.9581

                     25                     26                     27
                      A                      A                      A
 Frequencies --    874.5817               903.6438               929.0335
 Red. masses --      1.6861                 1.5931                 2.2704
 Frc consts  --      0.7598                 0.7665                 1.1545
 IR Inten    --     18.5267               170.3227                 5.6314

                     28                     29                     30
                      A                      A                      A
 Frequencies --    936.9996               991.7375               996.8194
 Red. masses --      2.8180                 1.6452                 2.2380
 Frc consts  --      1.4577                 0.9534                 1.3102
 IR Inten    --      7.1937                11.3382                15.0902

                     31                     32                     33
                      A                      A                      A
 Frequencies --   1000.7042              1050.5259              1093.8468
 Red. masses --      1.4526                 2.3469                 2.0527
 Frc consts  --      0.8570                 1.5260                 1.4470
 IR Inten    --      3.3155                 5.4421                 6.7385

                     34                     35                     36
                      A                      A                      A
 Frequencies --   1110.9845              1134.1503              1163.4774
 Red. masses --      2.2218                 1.9276                 1.3464
 Frc consts  --      1.6157                 1.4608                 1.0738
 IR Inten    --      6.7698                12.7574                 5.5327

                     37                     38                     39
                      A                      A                      A
 Frequencies --   1180.2598              1189.7440              1204.4645
 Red. masses --      1.9286                 2.5814                 1.0834
 Frc consts  --      1.5829                 2.1528                 0.9261
 IR Inten    --      3.2307                26.8466                 1.6835

                     40                     41                     42
                      A                      A                      A
 Frequencies --   1262.4801              1317.7622              1319.1732
 Red. masses --      1.3745                 1.5321                 1.4172
 Frc consts  --      1.2908                 1.5675                 1.4530
 IR Inten    --      5.1232               105.5998                20.7716

                     43                     44                     45
                      A                      A                      A
 Frequencies --   1355.9142              1373.1204              1377.9134
 Red. masses --      1.5393                 1.3697                 1.7222
 Frc consts  --      1.6674                 1.5216                 1.9265
 IR Inten    --     60.4037                 7.0325                63.0107

                     46                     47                     48
                      A                      A                      A
 Frequencies --   1417.1181              1421.9916              1438.6685
 Red. masses --      1.5185                 1.5634                 1.2702
 Frc consts  --      1.7967                 1.8626                 1.5490
 IR Inten    --      5.0598                63.7175                10.0405

                     49                     50                     51
                      A                      A                      A
 Frequencies --   1443.3202              1487.0332              1499.0692
 Red. masses --      1.7947                 1.3918                 1.0934
 Frc consts  --      2.2028                 1.8133                 1.4476
 IR Inten    --      6.9480                26.5868                 3.5884

                     52                     53                     54
                      A                      A                      A
 Frequencies --   1520.1927              1524.0361              1536.2165
 Red. masses --      1.0726                 1.0544                 1.0803
 Frc consts  --      1.4605                 1.4430                 1.5021
 IR Inten    --      9.1516                 2.3007                 5.2917

                     55                     56                     57
                      A                      A                      A
 Frequencies --   1660.0073              1696.1717              1715.1812
 Red. masses --      7.7638                 1.0998                 6.4822
 Frc consts  --     12.6051                 1.8643                11.2356
 IR Inten    --     18.1403                23.1478                12.5510

                     58                     59                     60
                      A                      A                      A
 Frequencies --   1770.2816              2968.2609              2989.6246
 Red. masses --      8.2378                 1.0739                 1.0809
 Frc consts  --     15.2106                 5.5747                 5.6922
 IR Inten    --    272.0850                16.6614                44.9851

                     61                     62                     63
                      A                      A                      A
 Frequencies --   3049.4105              3076.4988              3111.3539
 Red. masses --      1.0350                 1.0679                 1.0881
 Frc consts  --      5.6706                 5.9553                 6.2060
 IR Inten    --     19.9400                32.4085                21.2788

                     64                     65                     66
                      A                      A                      A
 Frequencies --   3114.3448              3124.4016              3142.1998
 Red. masses --      1.1018                 1.0998                 1.1018
 Frc consts  --      6.2963                 6.3254                 6.4092
 IR Inten    --      9.6005                33.0711                33.6981

                     67                     68                     69
                      A                      A                      A
 Frequencies --   3181.6987              3187.1281              3202.7018
 Red. masses --      1.0853                 1.0901                 1.0974
 Frc consts  --      6.4734                 6.5243                 6.6322
 IR Inten    --      5.4022                 3.2713                21.0095

                     70                     71                     72
                      A                      A                      A
 Frequencies --   3449.7101              3536.5628              3555.6001
 Red. masses --      1.0498                 1.0918                 1.0749
 Frc consts  --      7.3608                 8.0452                 8.0063
 IR Inten    --      1.6184                 0.2230                13.0921

 - Thermochemistry -
 -------------------
 Temperature   298.150 Kelvin.  Pressure   1.00000 Atm.
 Atom     1 has atomic number  6 and mass  12.00000

 Molecular mass:   166.11061 amu.
 Principal axes and moments of inertia in atomic units:
                           1         2         3
     Eigenvalues --  1294.015142991.562893301.10768
           X            0.99965  -0.02392  -0.01167
           Y            0.02355   0.99924  -0.03110
           Z            0.01241   0.03081   0.99945
 This molecule is an asymmetric top.
 Rotational symmetry number  1.
 Warning -- assumption of classical behavior for rotation
           may cause significant error
 Rotational temperatures (Kelvin)      0.06693     0.02895     0.02624
 Rotational constants (GHZ):           1.39468     0.60328     0.54671
 Zero-point vibrational energy     590341.8 (Joules/Mol)
                                  141.09507 (Kcal/Mol)
 Warning -- explicit consideration of  18 degrees of freedom as
           vibrations may cause significant error
 Vibrational temperatures:     53.45    75.36   149.24   157.07   185.29
          (Kelvin)            260.26   319.69   394.18   402.49   447.89
                              524.69   528.11   612.06   664.76   720.79
                              747.74   838.06   868.64   945.66  1014.50
                             1112.89  1133.94  1154.43  1236.74  1258.33
                             1300.14  1336.67  1348.13  1426.89  1434.20
                             1439.79  1511.47  1573.80  1598.46  1631.79
                             1673.98  1698.13  1711.78  1732.96  1816.43
                             1895.97  1898.00  1950.86  1975.61  1982.51
                             2038.92  2045.93  2069.92  2076.62  2139.51
                             2156.83  2187.22  2192.75  2210.27  2388.38
                             2440.41  2467.76  2547.04  4270.67  4301.40
                             4387.42  4426.40  4476.54  4480.85  4495.32
                             4520.92  4577.75  4585.57  4607.97  4963.36
                             5088.33  5115.72

 Zero-point correction=                           0.224849 (Hartree/Particle)
 Thermal correction to Energy=                    0.237073
 Thermal correction to Enthalpy=                  0.238017
 Thermal correction to Gibbs Free Energy=         0.185909
 Sum of electronic and zero-point Energies=           -535.906594
 Sum of electronic and thermal Energies=              -535.894371
 Sum of electronic and thermal Enthalpies=            -535.893427
 Sum of electronic and thermal Free Energies=         -535.945535

                     E (Thermal)             CV                S
                      KCal/Mol        Cal/Mol-Kelvin    Cal/Mol-Kelvin
 Total                  148.765             45.940            109.671
 Electronic               0.000              0.000              0.000
 Translational            0.889              2.981             41.231
 Rotational               0.889              2.981             30.925
 Vibrational            146.988             39.978             37.515
 Vibration     1          0.594              1.982              5.406
 Vibration     2          0.596              1.977              4.725
 Vibration     3          0.605              1.946              3.383
 Vibration     4          0.606              1.942              3.284
 Vibration     5          0.611              1.924              2.964
 Vibration     6          0.630              1.866              2.319
 Vibration     7          0.648              1.807              1.941
 Vibration     8          0.676              1.721              1.571
 Vibration     9          0.680              1.711              1.535
 Vibration    10          0.700              1.652              1.355
 Vibration    11          0.738              1.545              1.102
 Vibration    12          0.740              1.540              1.092
 Vibration    13          0.787              1.415              0.874
 Vibration    14          0.820              1.334              0.760
 Vibration    15          0.856              1.248              0.656
 Vibration    16          0.875              1.206              0.611
 Vibration    17          0.939              1.069              0.481
 Vibration    18          0.962              1.024              0.443

                           ! Non-Optimized Parameters !
 Normal termination of Gaussian 16 at Wed Dec  9 17:59:39 2020.

 ----------------------------------------------------------------------
 # B3LYP/6-311++G(d,p) empiricaldispersion=gd3bj scf=xqc pop=npa geom=c
 heck
 ----------------------------------------------------------------------

 --------------------------------------
 CID_54504171_JID_2759_Energie_neutraal
 --------------------------------------
 Structure from the checkpoint file:  "JID_2759.chk"
 Charge =  0 Multiplicity = 1

 SCF Done:  E(RB3LYP) =  -536.293790341     A.U. after   16 cycles
 Normal termination of Gaussian 16 at Wed Dec  9 18:01:59 2020.

 ----------------------------------------------------------------------
 # B3LYP/6-311++G(d,p) empiricaldispersion=gd3bj scf=xqc pop=npa geom=c
 heck
 ----------------------------------------------------------------------

 ------------------------------------
 CID_54504171_JID_2759_Energie_kation
 ------------------------------------
 Structure from the checkpoint file:  "JID_2759.chk"
 Charge =  1 Multiplicity = 2

 SCF Done:  E(UB3LYP) =  -535.993390937     A.U. after   24 cycles
 Normal termination of Gaussian 16 at Wed Dec  9 18:06:48 2020.
 Gaussian 16:  ES64L-G16RevA.03 25-Dec-2016

 ----------------------------------------------------------------------
 # B3LYP/6-311++G(d,p) empiricaldispersion=gd3bj scf=xqc pop=npa geom=c
 heck
 ----------------------------------------------------------------------

 -----------------------------------
 CID_54504171_JID_2759_Energie_anion
 -----------------------------------
 Structure from the checkpoint file:  "JID_2759.chk"
 Charge = -1 Multiplicity = 2

                         Standard orientation:
 ---------------------------------------------------------------------
 Center     Atomic      Atomic             Coordinates (Angstroms)
 Number     Number       Type             X           Y           Z
 ---------------------------------------------------------------------
      1          6           0        2.417422   -0.862833   -1.823097
      2          6           0        2.519966   -1.065979   -0.309457
      3          7           0        2.474979    0.186109    0.451052
      4          6           0        1.368460    1.010425    0.532142
      5          8           0        1.490475    2.227421    0.623761
      6          6           0        0.023447    0.345490    0.540203
      7          6           0       -0.999656    0.956852   -0.085597
      8          6           0       -2.400062    0.381449   -0.067632
      9          6           0       -2.355329   -1.150363    0.032569
     10          6           0       -1.335547   -1.622793    1.039474
     11          6           0       -0.213461   -0.919908    1.254949
     12          7           0       -3.253194    0.764416   -1.199251
     13          1           0        1.460474   -0.395700   -2.079255
     14          1           0        2.483284   -1.822808   -2.348099
     15          1           0        3.221732   -0.215684   -2.190922
     16          1           0        1.712338   -1.716139    0.033203
     17          1           0        3.459378   -1.565523   -0.049793
     18          1           0        3.320640    0.745782    0.396742
     19          1           0       -0.836557    1.920401   -0.563477
     20          1           0       -2.894335    0.766215    0.840390
     21          1           0       -3.356768   -1.524151    0.263059
     22          1           0       -2.095212   -1.562553   -0.959287
     23          1           0       -1.505251   -2.565625    1.553090
     24          1           0        0.537189   -1.256707    1.964522
     25          1           0       -3.350973    1.778904   -1.226260
     26          1           0       -2.783676    0.506509   -2.067934
 ---------------------------------------------------------------------

 SCF Done:  E(UB3LYP) =  -536.293883377     A.U. after   33 cycles
 SCF Done:  E(UB3LYP) =  -536.293883377     a.u. after    1 cycles

 The electronic state is 2-A.
 Alpha  occ. eigenvalues --  -18.93909 -14.19734 -14.16417 -10.11771 -10.08972
 Alpha  occ. eigenvalues --  -10.06175 -10.05135 -10.03140 -10.02167 -10.01646
 Alpha  occ. eigenvalues --  -10.01079  -9.99942  -0.89074  -0.78623  -0.75885
 Alpha  occ. eigenvalues --   -0.68127  -0.63450  -0.60428  -0.57789  -0.52324
 Alpha  occ. eigenvalues --   -0.49298  -0.45979  -0.42453  -0.37925  -0.36740
 Alpha  occ. eigenvalues --   -0.36018  -0.34632  -0.32116  -0.31392  -0.30142
 Alpha  occ. eigenvalues --   -0.29452  -0.28623  -0.27181  -0.26192  -0.25330
 Alpha  occ. eigenvalues --   -0.24549  -0.24109  -0.22817  -0.20986  -0.18450
 Alpha  occ. eigenvalues --   -0.16349  -0.13111  -0.12103  -0.10644  -0.07636
 Alpha  occ. eigenvalues --    0.05222
 Alpha virt. eigenvalues --    0.07648   0.09286   0.09368   0.09745   0.10683
 Alpha virt. eigenvalues --    0.11432   0.11782   0.12657   0.13037   0.13582
 Alpha virt. eigenvalues --    0.14120   0.14241   0.14688   0.15504   0.16125

  Beta  occ. eigenvalues --  -18.93796 -14.19729 -14.16379 -10.11667 -10.08962
  Beta  occ. eigenvalues --  -10.06202 -10.05118 -10.03125 -10.02139 -10.01413
  Beta  occ. eigenvalues --  -10.00986  -9.99491  -0.88862  -0.78542  -0.75753
  Beta  occ. eigenvalues --   -0.67765  -0.63404  -0.59985  -0.57420  -0.52225
  Beta  occ. eigenvalues --   -0.48987  -0.45701  -0.42057  -0.37684  -0.36658
  Beta  occ. eigenvalues --   -0.35873  -0.34416  -0.32023  -0.31268  -0.29959
  Beta  occ. eigenvalues --   -0.29300  -0.28405  -0.27091  -0.25997  -0.25183
  Beta  occ. eigenvalues --   -0.24071  -0.24013  -0.22468  -0.20792  -0.18259
  Beta  occ. eigenvalues --   -0.15314  -0.12867  -0.11905  -0.10457  -0.06014
  Beta virt. eigenvalues --    0.07602   0.08904   0.09353   0.09812   0.10609
  Beta virt. eigenvalues --    0.11403   0.11663   0.11684   0.12601   0.13116
  Beta virt. eigenvalues --    0.13841   0.14144   0.14504   0.15068   0.15620

 Mulliken charges and spin densities:
               1          2
     1  C   -0.040863  -0.465391
     2  C   -0.336541   0.139880
     3  N   -0.198426   0.024046
     4  C   -0.350065  -0.034090
     5  O   -0.378368   0.034912
     6  C    1.263316  -0.298614
     7  C   -1.104027   1.222717
     8  C    0.055092  -0.287930
     9  C    0.021806  -0.509829
    10  C   -0.439877   0.571618
    11  C   -0.361483  -0.463326
    12  N   -0.318984   0.039477
    13  H   -0.010299   0.202738
    14  H   -0.069505   0.182431
    15  H    0.022961   0.090734
    16  H    0.152282  -0.007038
    17  H    0.137019  -0.002535
    18  H    0.256285  -0.005150
    19  H    0.093350   0.069901
    20  H    0.113225   0.037343
    21  H    0.078581   0.048460
    22  H    0.028335   0.086590
    23  H    0.081840   0.040903
    24  H    0.162905  -0.010929
    25  H    0.108124   0.112551
    26  H    0.033317   0.180531
 Sum of Mulliken charges =  -1.00000   1.00000

 Dipole moment (field-independent basis, Debye):
    X=              3.0338    Y=             -2.8632    Z=              0.6981  Tot=              4.2295
 Quadrupole moment (field-independent basis, Debye-Ang):
   XX=           -105.0738   YY=            -97.7660   ZZ=            -95.7148
   XY=             -6.7468   XZ=             -3.6183   YZ=             -3.2288

 Summary of Natural Population Analysis:

                                       Natural Population
                Natural  -----------------------------------------------
    Atom  No    Charge         Core      Valence    Rydberg      Total
 -----------------------------------------------------------------------
      C    1   -0.29488      0.99967     2.29007    0.00514     3.29488
      C    2   -0.09210      0.99963     2.08207    0.01040     3.09210
      N    3   -0.32932      0.99968     2.81973    0.00991     3.82932
      C    4    0.35342      0.99961     1.62149    0.02547     2.64658
      O    5   -0.32192      0.99988     3.31642    0.00562     4.32192
      C    6   -0.08980      0.99941     2.07891    0.01148     3.08980
      C    7    0.02969      0.99948     1.96025    0.01058     2.97031
      C    8   -0.02849      0.99959     2.01656    0.01234     3.02849
      C    9   -0.20462      0.99961     2.19410    0.01092     3.20462
      C   10   -0.05360      0.99954     2.04435    0.00971     3.05360
      C   11   -0.11525      0.99951     2.10445    0.01129     3.11525
      N   12   -0.42224      0.99977     2.91231    0.01016     3.92224
      H   13    0.10968      0.00000     0.38871    0.00160     0.39032
      H   14    0.09430      0.00000     0.40464    0.00106     0.40570
      H   15    0.09151      0.00000     0.40747    0.00102     0.40849
      H   16    0.10744      0.00000     0.39131    0.00124     0.39256
      H   17    0.08437      0.00000     0.41452    0.00111     0.41563
      H   18    0.18136      0.00000     0.31657    0.00207     0.31864
      H   19    0.09363      0.00000     0.40507    0.00130     0.40637
      H   20    0.08977      0.00000     0.40821    0.00202     0.41023
      H   21    0.09944      0.00000     0.39922    0.00134     0.40056
      H   22    0.09612      0.00000     0.40258    0.00130     0.40388
      H   23    0.08574      0.00000     0.41338    0.00089     0.41426
      H   24    0.09453      0.00000     0.40442    0.00105     0.40547
      H   25    0.16979      0.00000     0.32876    0.00146     0.33021
      H   26    0.17143      0.00000     0.32602    0.00256     0.32857
 =======================================================================
   * Total *   -0.00000     11.99538    32.85158    0.15303    45.00000

 Normal termination of Gaussian 16 at Wed Dec  9 18:13:43 2020.
