 Gaussian 16, Revision A.03,

 -----------------------------------------------------------
 # opt freq B3LYP/6-31G(d) empiricaldispersion=gd3bj scf=xqc
 -----------------------------------------------------------

 ------------------------------
 CID_82280303_JID_2789_neutraal
 ------------------------------
 Symbolic Z-matrix:
 Charge =  0 Multiplicity = 1

 SCF Done:  E(RB3LYP) =  -500.219034936     A.U. after   14 cycles
 SCF Done:  E(RB3LYP) =  -500.222267535     A.U. after   11 cycles
 SCF Done:  E(RB3LYP) =  -500.222858469     A.U. after   12 cycles
 SCF Done:  E(RB3LYP) =  -500.223150060     A.U. after   11 cycles
 SCF Done:  E(RB3LYP) =  -500.223239883     A.U. after   11 cycles
 SCF Done:  E(RB3LYP) =  -500.223256862     A.U. after   10 cycles
 SCF Done:  E(RB3LYP) =  -500.223260939     A.U. after    9 cycles
 SCF Done:  E(RB3LYP) =  -500.223261909     A.U. after    8 cycles
 SCF Done:  E(RB3LYP) =  -500.223262068     A.U. after    7 cycles
 SCF Done:  E(RB3LYP) =  -500.223262121     A.U. after    7 cycles
 Optimization completed.
    -- Stationary point found.
 Normal termination of Gaussian 16 at Wed Dec  9 17:59:24 2020.

 --------------------------------------------------------------------
 #N Geom=AllCheck Guess=TCheck SCRF=Check GenChk RB3LYP/6-31G(d) Freq
 --------------------------------------------------------------------

 Structure from the checkpoint file:  "JID_2789.chk"
 ------------------------------
 CID_82280303_JID_2789_neutraal
 ------------------------------
 Charge =  0 Multiplicity = 1

 SCF Done:  E(RB3LYP) =  -500.223262121     A.U. after    1 cycles

  Exact polarizability: 123.562  -5.347 112.231 -11.282  -5.686  90.540
 Approx polarizability: 168.175  -6.770 172.472 -24.293 -14.945 137.326

                      1                      2                      3
                      A                      A                      A
 Frequencies --     42.0668                78.2318               135.4630
 Red. masses --      3.4205                 4.0805                 3.0010
 Frc consts  --      0.0036                 0.0147                 0.0324
 IR Inten    --      0.5292                 2.0787                 0.8282

                      4                      5                      6
                      A                      A                      A
 Frequencies --    151.1212               228.0057               254.7796
 Red. masses --      2.8560                 2.3711                 3.8455
 Frc consts  --      0.0384                 0.0726                 0.1471
 IR Inten    --      0.4700                 0.5023                 2.7779

                      7                      8                      9
                      A                      A                      A
 Frequencies --    279.7796               313.8717               376.7460
 Red. masses --      2.3768                 2.9276                 2.2129
 Frc consts  --      0.1096                 0.1699                 0.1851
 IR Inten    --      1.3642                 1.6485                 0.7180

                     10                     11                     12
                      A                      A                      A
 Frequencies --    404.8098               418.3177               450.0855
 Red. masses --      2.2807                 1.5550                 2.4480
 Frc consts  --      0.2202                 0.1603                 0.2922
 IR Inten    --     15.8416                76.7439                 9.6500

                     13                     14                     15
                      A                      A                      A
 Frequencies --    534.2619               570.5920               635.6262
 Red. masses --      2.0387                 2.5232                 2.9323
 Frc consts  --      0.3429                 0.4840                 0.6980
 IR Inten    --     16.3803                10.3659                 2.9390

                     16                     17                     18
                      A                      A                      A
 Frequencies --    637.5333               668.0749               691.1651
 Red. masses --      2.7222                 1.2944                 1.5186
 Frc consts  --      0.6519                 0.3404                 0.4274
 IR Inten    --      3.9666                 9.4007                33.8818

                     19                     20                     21
                      A                      A                      A
 Frequencies --    735.8919               769.6064               806.1744
 Red. masses --      1.5567                 1.8240                 2.1012
 Frc consts  --      0.4967                 0.6365                 0.8046
 IR Inten    --     35.6462                18.1488                 2.1646

                     22                     23                     24
                      A                      A                      A
 Frequencies --    830.7923               838.0349               867.0307
 Red. masses --      1.3742                 1.9811                 2.1013
 Frc consts  --      0.5588                 0.8197                 0.9307
 IR Inten    --     12.7978                 2.2195                 3.2173

                     25                     26                     27
                      A                      A                      A
 Frequencies --    883.8450               913.6806               945.1337
 Red. masses --      2.6368                 4.7813                 2.1128
 Frc consts  --      1.2136                 2.3517                 1.1119
 IR Inten    --      9.0731                 1.7343                 1.0030

                     28                     29                     30
                      A                      A                      A
 Frequencies --    973.4377               985.6629              1042.4091
 Red. masses --      2.2341                 2.5570                 1.9016
 Frc consts  --      1.2473                 1.4637                 1.2174
 IR Inten    --      5.0102                13.7777                 0.2696

                     31                     32                     33
                      A                      A                      A
 Frequencies --   1053.0754              1080.6457              1092.1542
 Red. masses --      2.0598                 1.6873                 1.6352
 Frc consts  --      1.3459                 1.1610                 1.1492
 IR Inten    --      4.2972                 0.6683                19.6558

                     34                     35                     36
                      A                      A                      A
 Frequencies --   1100.7097              1122.7022              1160.7140
 Red. masses --      1.5145                 1.9545                 1.9034
 Frc consts  --      1.0811                 1.4515                 1.5109
 IR Inten    --     21.1003                 6.3097                 9.5947

                     37                     38                     39
                      A                      A                      A
 Frequencies --   1171.9519              1204.8685              1229.5918
 Red. masses --      1.3566                 2.2691                 1.3776
 Frc consts  --      1.0978                 1.9408                 1.2271
 IR Inten    --      0.7889                14.2338                12.3216

                     40                     41                     42
                      A                      A                      A
 Frequencies --   1245.2710              1267.1169              1279.8371
 Red. masses --      1.4609                 1.4433                 1.4175
 Frc consts  --      1.3348                 1.3653                 1.3680
 IR Inten    --      3.1297                 3.1859                14.2490

                     43                     44                     45
                      A                      A                      A
 Frequencies --   1287.9127              1308.1149              1319.6679
 Red. masses --      1.3330                 1.5644                 1.1854
 Frc consts  --      1.3027                 1.5773                 1.2163
 IR Inten    --      0.4555                 2.7408                 3.0502

                     46                     47                     48
                      A                      A                      A
 Frequencies --   1358.4512              1380.8730              1387.7049
 Red. masses --      1.3132                 1.4678                 1.3808
 Frc consts  --      1.4279                 1.6490                 1.5667
 IR Inten    --      3.1357                15.1315                 5.5317

                     49                     50                     51
                      A                      A                      A
 Frequencies --   1410.4583              1416.0461              1420.1057
 Red. masses --      1.4463                 1.4078                 2.7859
 Frc consts  --      1.6953                 1.6632                 3.3102
 IR Inten    --     13.6779                 4.5817                 2.5394

                     52                     53                     54
                      A                      A                      A
 Frequencies --   1434.5812              1446.7266              1484.6869
 Red. masses --      1.6225                 1.4300                 2.7405
 Frc consts  --      1.9674                 1.7634                 3.5592
 IR Inten    --      5.1113                 5.3528                 8.0117

                     55                     56                     57
                      A                      A                      A
 Frequencies --   1504.6991              1505.7210              1518.7507
 Red. masses --      1.1058                 1.1406                 1.0962
 Frc consts  --      1.4751                 1.5236                 1.4897
 IR Inten    --      2.9297                 2.2694                 6.4608

                     58                     59                     60
                      A                      A                      A
 Frequencies --   1528.4013              1532.4548              1534.7789
 Red. masses --      1.2312                 1.1317                 2.5128
 Frc consts  --      1.6946                 1.5659                 3.4874
 IR Inten    --      7.5022                 1.6086                13.7689

                     61                     62                     63
                      A                      A                      A
 Frequencies --   1547.5073              1624.7856              2923.0291
 Red. masses --      1.1351                 4.2885                 1.0755
 Frc consts  --      1.6016                 6.6704                 5.4143
 IR Inten    --      3.4156                 3.0219               118.0594

                     64                     65                     66
                      A                      A                      A
 Frequencies --   2948.4820              2979.0690              3021.2557
 Red. masses --      1.0724                 1.0817                 1.0648
 Frc consts  --      5.4928                 5.6562                 5.7267
 IR Inten    --     73.6629                28.7265                22.5014

                     67                     68                     69
                      A                      A                      A
 Frequencies --   3033.3926              3044.7918              3056.8885
 Red. masses --      1.0673                 1.0622                 1.0994
 Frc consts  --      5.7862                 5.8021                 6.0529
 IR Inten    --     60.3029                56.6383                40.2965

                     70                     71                     72
                      A                      A                      A
 Frequencies --   3059.4338              3068.0171              3079.3061
 Red. masses --      1.0907                 1.0893                 1.0984
 Frc consts  --      6.0153                 6.0408                 6.1363
 IR Inten    --      7.1424                72.3844                59.8045

                     73                     74                     75
                      A                      A                      A
 Frequencies --   3102.1685              3248.4313              3278.7125
 Red. masses --      1.0946                 1.0910                 1.1003
 Frc consts  --      6.2065                 6.7827                 6.9689
 IR Inten    --     50.3986                 5.4542                 7.1164

                     76                     77                     78
                      A                      A                      A
 Frequencies --   3284.2977              3529.3812              3675.7037
 Red. masses --      1.0970                 1.0751                 1.0806
 Frc consts  --      6.9716                 7.8901                 8.6020
 IR Inten    --      1.2140                 0.6002                52.5551

 - Thermochemistry -
 -------------------
 Temperature   298.150 Kelvin.  Pressure   1.00000 Atm.
 Atom     1 has atomic number  6 and mass  12.00000

 Molecular mass:   164.13135 amu.
 Principal axes and moments of inertia in atomic units:
                           1         2         3
     Eigenvalues --  1155.832992549.082912804.29668
           X            0.99997  -0.00689  -0.00425
           Y            0.00681   0.99981  -0.01833
           Z            0.00437   0.01830   0.99982
 This molecule is an asymmetric top.
 Rotational symmetry number  1.
 Warning -- assumption of classical behavior for rotation
           may cause significant error
 Rotational temperatures (Kelvin)      0.07494     0.03398     0.03089
 Rotational constants (GHZ):           1.56142     0.70800     0.64356
 Zero-point vibrational energy     662466.0 (Joules/Mol)
                                  158.33316 (Kcal/Mol)
 Warning -- explicit consideration of  14 degrees of freedom as
           vibrations may cause significant error
 Vibrational temperatures:     60.52   112.56   194.90   217.43   328.05
          (Kelvin)            366.57   402.54   451.59   542.05   582.43
                              601.87   647.57   768.68   820.95   914.52
                              917.27   961.21   994.43  1058.78  1107.29
                             1159.91  1195.32  1205.75  1247.46  1271.66
                             1314.58  1359.84  1400.56  1418.15  1499.79
                             1515.14  1554.81  1571.37  1583.68  1615.32
                             1670.01  1686.18  1733.54  1769.11  1791.67
                             1823.10  1841.40  1853.02  1882.09  1898.71
                             1954.51  1986.77  1996.60  2029.33  2037.37
                             2043.22  2064.04  2081.52  2136.13  2164.93
                             2166.40  2185.14  2199.03  2204.86  2208.20
                             2226.52  2337.70  4205.59  4242.21  4286.22
                             4346.91  4364.38  4380.78  4398.18  4401.84
                             4414.19  4430.43  4463.33  4673.77  4717.34
                             4725.37  5077.99  5288.52

 Zero-point correction=                           0.252320 (Hartree/Particle)
 Thermal correction to Energy=                    0.263130
 Thermal correction to Enthalpy=                  0.264074
 Thermal correction to Gibbs Free Energy=         0.215704
 Sum of electronic and zero-point Energies=           -499.970942
 Sum of electronic and thermal Energies=              -499.960132
 Sum of electronic and thermal Enthalpies=            -499.959188
 Sum of electronic and thermal Free Energies=         -500.007558

                     E (Thermal)             CV                S
                      KCal/Mol        Cal/Mol-Kelvin    Cal/Mol-Kelvin
 Total                  165.116             43.415            101.802
 Electronic               0.000              0.000              0.000
 Translational            0.889              2.981             41.195
 Rotational               0.889              2.981             30.492
 Vibrational            163.339             37.454             30.116
 Vibration     1          0.595              1.980              5.159
 Vibration     2          0.600              1.964              3.935
 Vibration     3          0.613              1.918              2.867
 Vibration     4          0.619              1.901              2.658
 Vibration     5          0.651              1.798              1.895
 Vibration     6          0.665              1.755              1.697
 Vibration     7          0.680              1.711              1.535
 Vibration     8          0.702              1.647              1.342
 Vibration     9          0.747              1.520              1.052
 Vibration    10          0.770              1.460              0.945
 Vibration    11          0.781              1.430              0.898
 Vibration    12          0.809              1.361              0.796
 Vibration    13          0.889              1.174              0.578
 Vibration    14          0.927              1.095              0.503

                           ! Non-Optimized Parameters !
 Normal termination of Gaussian 16 at Wed Dec  9 18:06:33 2020.

 ----------------------------------------------------------------------
 # B3LYP/6-311++G(d,p) empiricaldispersion=gd3bj scf=xqc pop=npa geom=c
 heck
 ----------------------------------------------------------------------

 --------------------------------------
 CID_82280303_JID_2789_Energie_neutraal
 --------------------------------------
 Structure from the checkpoint file:  "JID_2789.chk"
 Charge =  0 Multiplicity = 1

 SCF Done:  E(RB3LYP) =  -500.365644398     A.U. after   14 cycles
 Normal termination of Gaussian 16 at Wed Dec  9 18:09:40 2020.

 ----------------------------------------------------------------------
 # B3LYP/6-311++G(d,p) empiricaldispersion=gd3bj scf=xqc pop=npa geom=c
 heck
 ----------------------------------------------------------------------

 ------------------------------------
 CID_82280303_JID_2789_Energie_kation
 ------------------------------------
 Structure from the checkpoint file:  "JID_2789.chk"
 Charge =  1 Multiplicity = 2

 SCF Done:  E(UB3LYP) =  -500.100960366     A.U. after   22 cycles
 Normal termination of Gaussian 16 at Wed Dec  9 18:15:14 2020.
 Gaussian 16:  ES64L-G16RevA.03 25-Dec-2016

 ----------------------------------------------------------------------
 # B3LYP/6-311++G(d,p) empiricaldispersion=gd3bj scf=xqc pop=npa geom=c
 heck
 ----------------------------------------------------------------------

 -----------------------------------
 CID_82280303_JID_2789_Energie_anion
 -----------------------------------
 Structure from the checkpoint file:  "JID_2789.chk"
 Charge = -1 Multiplicity = 2

                         Standard orientation:
 ---------------------------------------------------------------------
 Center     Atomic      Atomic             Coordinates (Angstroms)
 Number     Number       Type             X           Y           Z
 ---------------------------------------------------------------------
      1          6           0       -1.758236    1.549274   -0.234329
      2          6           0       -1.119867    1.268706    1.132891
      3          6           0       -0.218416    0.022866    1.273030
      4          6           0       -1.011239   -1.285522    1.044887
      5          6           0       -1.235354   -1.734426   -0.404885
      6          7           0       -1.568046   -0.652046   -1.327544
      7          6           0       -2.506105    0.368203   -0.865345
      8          6           0        1.070321    0.077719    0.490581
      9          6           0        1.614278    1.160666   -0.170542
     10          7           0        2.827240    0.780091   -0.701009
     11          6           0        3.074903   -0.535963   -0.393481
     12          6           0        2.008005   -0.995401    0.346791
     13          1           0       -2.453708    2.392524   -0.115648
     14          1           0       -0.994518    1.857637   -0.955624
     15          1           0       -0.546276    2.153057    1.441597
     16          1           0       -1.925071    1.161034    1.873284
     17          1           0        0.056623    0.001710    2.339788
     18          1           0       -0.501150   -2.112150    1.555389
     19          1           0       -1.977801   -1.177691    1.553283
     20          1           0       -0.317077   -2.201382   -0.780216
     21          1           0       -2.009593   -2.525896   -0.376676
     22          1           0       -1.884664   -1.051753   -2.204973
     23          1           0       -3.271727   -0.022045   -0.168966
     24          1           0       -3.050406    0.739096   -1.741973
     25          1           0        1.240574    2.163256   -0.311041
     26          1           0        3.426079    1.370662   -1.255509
     27          1           0        3.978789   -1.027782   -0.722190
     28          1           0        1.905828   -1.993328    0.751760
 ---------------------------------------------------------------------

 SCF Done:  E(UB3LYP) =  -500.350355361     A.U. after   31 cycles

 The electronic state is 2-A.
 Alpha  occ. eigenvalues --  -14.24038 -14.18277 -10.08302 -10.08135 -10.07884
 Alpha  occ. eigenvalues --  -10.07340 -10.07082 -10.06156 -10.05999 -10.05341
 Alpha  occ. eigenvalues --  -10.04841 -10.04206  -0.86073  -0.79560  -0.70731
 Alpha  occ. eigenvalues --   -0.66627  -0.64862  -0.60989  -0.57010  -0.55685
 Alpha  occ. eigenvalues --   -0.48641  -0.46563  -0.45480  -0.43594  -0.40691
 Alpha  occ. eigenvalues --   -0.40251  -0.36268  -0.34615  -0.33251  -0.32027
 Alpha  occ. eigenvalues --   -0.31386  -0.30870  -0.29687  -0.29103  -0.28869
 Alpha  occ. eigenvalues --   -0.27249  -0.25418  -0.23768  -0.22929  -0.21745
 Alpha  occ. eigenvalues --   -0.21281  -0.20897  -0.12714  -0.11523  -0.09693
 Alpha  occ. eigenvalues --    0.04532
 Alpha virt. eigenvalues --    0.06278   0.07430   0.07609   0.08765   0.08955
 Alpha virt. eigenvalues --    0.09842   0.10129   0.11036   0.11619   0.11849
 Alpha virt. eigenvalues --    0.12849   0.13281   0.13544   0.13811   0.14722

  Beta  occ. eigenvalues --  -14.23992 -14.18260 -10.08281 -10.08122 -10.07871
  Beta  occ. eigenvalues --  -10.07328 -10.07079 -10.06145 -10.05991 -10.05330
  Beta  occ. eigenvalues --  -10.04841 -10.04199  -0.86017  -0.79531  -0.70706
  Beta  occ. eigenvalues --   -0.66596  -0.64812  -0.60957  -0.56974  -0.55648
  Beta  occ. eigenvalues --   -0.48576  -0.46520  -0.45420  -0.43538  -0.40651
  Beta  occ. eigenvalues --   -0.40191  -0.36243  -0.34589  -0.33220  -0.31994
  Beta  occ. eigenvalues --   -0.31337  -0.30828  -0.29657  -0.29073  -0.28841
  Beta  occ. eigenvalues --   -0.27227  -0.25388  -0.23743  -0.22904  -0.21726
  Beta  occ. eigenvalues --   -0.21253  -0.20872  -0.12690  -0.11486  -0.09672
  Beta virt. eigenvalues --    0.06653   0.07771   0.08033   0.08084   0.09432
  Beta virt. eigenvalues --    0.09592   0.10187   0.10496   0.11274   0.12016
  Beta virt. eigenvalues --    0.12293   0.13043   0.13551   0.13648   0.13936

 Mulliken charges and spin densities:
               1          2
     1  C   -0.923087   0.824680
     2  C    0.821640  -1.471684
     3  C    0.357889  -0.227315
     4  C   -0.048459  -0.487856
     5  C    0.299204  -0.574117
     6  N   -0.327432   0.117876
     7  C    0.795978  -1.226602
     8  C    0.973379  -1.514920
     9  C   -0.304330   0.409122
    10  N   -0.069520  -0.024123
    11  C    0.648964  -1.216423
    12  C   -1.074232   1.632336
    13  H   -0.218131   0.354670
    14  H    0.273876  -0.157108
    15  H    0.102942   0.039598
    16  H    0.047173   0.089074
    17  H    0.114035   0.091985
    18  H   -0.024215   0.175056
    19  H   -0.020298   0.153609
    20  H    0.144674  -0.004246
    21  H   -0.333279   0.455860
    22  H    0.036993   0.237872
    23  H    0.057839   0.048664
    24  H   -0.636255   0.796940
    25  H   -0.512974   0.682198
    26  H   -0.530482   0.856851
    27  H   -0.467398   0.613285
    28  H   -0.184495   0.324719
 Sum of Mulliken charges =  -1.00000   1.00000

 Dipole moment (field-independent basis, Debye):
    X=             -2.8930    Y=             -1.6393    Z=              3.5741  Tot=              4.8817
 Quadrupole moment (field-independent basis, Debye-Ang):
   XX=           -144.0280   YY=           -111.9244   ZZ=           -108.8670
   XY=             -7.2775   XZ=              2.9001   YZ=              3.7293

 Summary of Natural Population Analysis:

                                       Natural Population
                Natural  -----------------------------------------------
    Atom  No    Charge         Core      Valence    Rydberg      Total
 -----------------------------------------------------------------------
      C    1   -0.19407      0.99962     2.18581    0.00865     3.19407
      C    2   -0.18444      0.99961     2.17623    0.00860     3.18444
      C    3   -0.11304      0.99956     2.10269    0.01080     3.11304
      C    4   -0.19193      0.99961     2.18344    0.00888     3.19193
      C    5   -0.08499      0.99962     2.07416    0.01122     3.08499
      N    6   -0.34257      0.99973     2.83076    0.01208     3.84257
      C    7   -0.08895      0.99962     2.07756    0.01177     3.08895
      C    8   -0.05406      0.99951     2.04242    0.01213     3.05406
      C    9   -0.02044      0.99950     2.00781    0.01313     3.02044
      N   10   -0.26331      0.99970     2.75178    0.01184     3.76331
      C   11   -0.02176      0.99957     2.00781    0.01438     3.02176
      C   12   -0.14866      0.99952     2.14012    0.00901     3.14866
      H   13    0.09330      0.00000     0.40555    0.00115     0.40670
      H   14    0.10044      0.00000     0.39748    0.00207     0.39956
      H   15    0.09900      0.00000     0.39991    0.00109     0.40100
      H   16    0.09261      0.00000     0.40617    0.00122     0.40739
      H   17    0.09977      0.00000     0.39858    0.00165     0.40023
      H   18    0.10093      0.00000     0.39798    0.00109     0.39907
      H   19    0.09458      0.00000     0.40383    0.00159     0.40542
      H   20    0.09587      0.00000     0.40246    0.00167     0.40413
      H   21    0.07745      0.00000     0.42118    0.00138     0.42255
      H   22    0.17583      0.00000     0.32154    0.00262     0.32417
      H   23    0.07659      0.00000     0.42185    0.00156     0.42341
      H   24    0.09560      0.00000     0.40292    0.00147     0.40440
      H   25    0.10034      0.00000     0.39823    0.00143     0.39966
      H   26    0.20567      0.00000     0.27789    0.01644     0.29433
      H   27    0.09851      0.00000     0.40016    0.00133     0.40149
      H   28    0.10171      0.00000     0.39736    0.00093     0.39829
 =======================================================================
   * Total *   -0.00000     11.99517    32.83367    0.17116    45.00000

 Normal termination of Gaussian 16 at Wed Dec  9 18:22:43 2020.
