 Gaussian 16, Revision A.03,

 -----------------------------------------------------------
 # opt freq B3LYP/6-31G(d) empiricaldispersion=gd3bj scf=xqc
 -----------------------------------------------------------

 -----------------------------
 CID_66598290_JID_692_neutraal
 -----------------------------
 Symbolic Z-matrix:
 Charge =  0 Multiplicity = 1

 SCF Done:  E(RB3LYP) =  -435.161595056     A.U. after   15 cycles
 SCF Done:  E(RB3LYP) =  -435.186930028     A.U. after   13 cycles
 SCF Done:  E(RB3LYP) =  -435.187601358     A.U. after   12 cycles
 SCF Done:  E(RB3LYP) =  -435.187665456     A.U. after   11 cycles
 SCF Done:  E(RB3LYP) =  -435.187670234     A.U. after   11 cycles
 SCF Done:  E(RB3LYP) =  -435.187673755     A.U. after    9 cycles
 SCF Done:  E(RB3LYP) =  -435.187673889     A.U. after    8 cycles
 SCF Done:  E(RB3LYP) =  -435.187673955     A.U. after    8 cycles
 SCF Done:  E(RB3LYP) =  -435.187673980     A.U. after    7 cycles
 SCF Done:  E(RB3LYP) =  -435.187673992     A.U. after    7 cycles
 Optimization completed.
    -- Stationary point found.
 Normal termination of Gaussian 16 at Tue Dec  8 12:41:37 2020.

 --------------------------------------------------------------------
 #N Geom=AllCheck Guess=TCheck SCRF=Check GenChk RB3LYP/6-31G(d) Freq
 --------------------------------------------------------------------

 Structure from the checkpoint file:  "JID_692.chk"
 -----------------------------
 CID_66598290_JID_692_neutraal
 -----------------------------
 Charge =  0 Multiplicity = 1

 SCF Done:  E(RB3LYP) =  -435.187673992     A.U. after    1 cycles

  Exact polarizability: 121.558  -1.630 101.502   0.035  -0.001  38.634
 Approx polarizability: 170.116   5.554 184.458   0.001  -0.030  57.678

                      1                      2                      3
                      A                      A                      A
 Frequencies --     23.8136                49.6479               118.4378
 Red. masses --      1.2154                 3.4230                 7.0590
 Frc consts  --      0.0004                 0.0050                 0.0583
 IR Inten    --      0.0800                 3.3184                 5.2601

                      4                      5                      6
                      A                      A                      A
 Frequencies --    142.9782               219.4061               233.5392
 Red. masses --      3.9002                 3.6518                 3.7005
 Frc consts  --      0.0470                 0.1036                 0.1189
 IR Inten    --      6.6523                 2.5988                 3.1817

                      7                      8                      9
                      A                      A                      A
 Frequencies --    343.3507               353.7235               453.7792
 Red. masses --      5.2791                 2.9966                 4.7440
 Frc consts  --      0.3667                 0.2209                 0.5756
 IR Inten    --      4.4678                 0.4325                 2.7768

                     10                     11                     12
                      A                      A                      A
 Frequencies --    492.0982               593.0799               624.2325
 Red. masses --      5.4975                 3.7492                 4.9602
 Frc consts  --      0.7844                 0.7770                 1.1388
 IR Inten    --      6.6745                 0.1694                 0.4310

                     13                     14                     15
                      A                      A                      A
 Frequencies --    663.9384               717.5464               719.9640
 Red. masses --      5.6987                 4.7865                 2.3302
 Frc consts  --      1.4801                 1.4520                 0.7116
 IR Inten    --      1.9693                 9.2137                 0.2202

                     16                     17                     18
                      A                      A                      A
 Frequencies --    759.6713               780.3852               850.3616
 Red. masses --      1.2076                 1.7895                 1.3784
 Frc consts  --      0.4106                 0.6421                 0.5873
 IR Inten    --     30.7278                14.8330                 4.1665

                     19                     20                     21
                      A                      A                      A
 Frequencies --    904.2720               947.4210              1015.4796
 Red. masses --      2.5613                 1.3710                 3.2013
 Frc consts  --      1.2340                 0.7251                 1.9450
 IR Inten    --      4.1677                36.2059                 3.0500

                     22                     23                     24
                      A                      A                      A
 Frequencies --   1033.2519              1076.4103              1097.4613
 Red. masses --      4.0060                 1.6056                 1.2815
 Frc consts  --      2.5198                 1.0961                 0.9094
 IR Inten    --      6.5748                 9.3857                16.3604

                     25                     26                     27
                      A                      A                      A
 Frequencies --   1161.6677              1206.5331              1273.3332
 Red. masses --      1.3064                 1.9424                 2.9490
 Frc consts  --      1.0387                 1.6659                 2.8172
 IR Inten    --      0.0727                 1.8574                57.1080

                     28                     29                     30
                      A                      A                      A
 Frequencies --   1349.8642              1409.2341              1419.8540
 Red. masses --      4.6857                 4.0229                 2.5405
 Frc consts  --      5.0305                 4.7071                 3.0176
 IR Inten    --     12.5374                36.1240                12.6638

                     31                     32                     33
                      A                      A                      A
 Frequencies --   1466.3228              1478.9398              1503.7277
 Red. masses --      2.0514                 1.3211                 1.0420
 Frc consts  --      2.5987                 1.7025                 1.3883
 IR Inten    --     10.7437                 9.0880                 7.5397

                     34                     35                     36
                      A                      A                      A
 Frequencies --   1516.8661              1549.0833              1567.5095
 Red. masses --      2.2681                 1.2537                 5.4301
 Frc consts  --      3.0748                 1.7726                 7.8610
 IR Inten    --      4.0024                 9.5777                 9.9077

                     37                     38                     39
                      A                      A                      A
 Frequencies --   1683.2506              2352.5020              3076.1018
 Red. masses --      5.2579                12.6845                 1.0321
 Frc consts  --      8.7772                41.3602                 5.7543
 IR Inten    --      9.3335                10.6794                42.1520

                     40                     41                     42
                      A                      A                      A
 Frequencies --   3145.7179              3171.3134              3194.7757
 Red. masses --      1.1063                 1.1049                 1.0581
 Frc consts  --      6.4503                 6.5474                 6.3630
 IR Inten    --     12.3623                 7.6918                 0.0020

                     43                     44                     45
                      A                      A                      A
 Frequencies --   3275.9635              3289.6071              3294.8136
 Red. masses --      1.0921                 1.1192                 1.1043
 Frc consts  --      6.9056                 7.1361                 7.0633
 IR Inten    --      0.9723                 0.7021                 0.3931

 - Thermochemistry -
 -------------------
 Temperature   298.150 Kelvin.  Pressure   1.00000 Atm.
 Atom     1 has atomic number  6 and mass  12.00000

 Molecular mass:   133.06400 amu.
 Principal axes and moments of inertia in atomic units:
                           1         2         3
     Eigenvalues --   533.262062133.896762655.73496
           X            0.99990  -0.01423   0.00007
           Y            0.01423   0.99990   0.00005
           Z           -0.00007  -0.00005   1.00000
 This molecule is an asymmetric top.
 Rotational symmetry number  1.
 Warning -- assumption of classical behavior for rotation
           may cause significant error
 Rotational temperatures (Kelvin)      0.16242     0.04059     0.03261
 Rotational constants (GHZ):           3.38434     0.84575     0.67956
 Zero-point vibrational energy     344531.9 (Joules/Mol)
                                   82.34509 (Kcal/Mol)
 Warning -- explicit consideration of  11 degrees of freedom as
           vibrations may cause significant error
 Vibrational temperatures:     34.26    71.43   170.41   205.71   315.68
          (Kelvin)            336.01   494.01   508.93   652.89   708.02
                              853.31   898.13   955.26  1032.39  1035.87
                             1093.00  1122.80  1223.48  1301.05  1363.13
                             1461.05  1486.62  1548.71  1579.00  1671.38
                             1735.93  1832.04  1942.15  2027.57  2042.85
                             2109.71  2127.86  2163.53  2182.43  2228.79
                             2255.30  2421.82  3384.73  4425.82  4525.99
                             4562.81  4596.57  4713.38  4733.01  4740.50

 Zero-point correction=                           0.131225 (Hartree/Particle)
 Thermal correction to Energy=                    0.140607
 Thermal correction to Enthalpy=                  0.141551
 Thermal correction to Gibbs Free Energy=         0.095023
 Sum of electronic and zero-point Energies=           -435.056449
 Sum of electronic and thermal Energies=              -435.047067
 Sum of electronic and thermal Enthalpies=            -435.046123
 Sum of electronic and thermal Free Energies=         -435.092651

                     E (Thermal)             CV                S
                      KCal/Mol        Cal/Mol-Kelvin    Cal/Mol-Kelvin
 Total                   88.232             33.248             97.926
 Electronic               0.000              0.000              0.000
 Translational            0.889              2.981             40.570
 Rotational               0.889              2.981             29.492
 Vibrational             86.455             27.286             27.864
 Vibration     1          0.593              1.985              6.288
 Vibration     2          0.595              1.978              4.831
 Vibration     3          0.609              1.934              3.126
 Vibration     4          0.616              1.910              2.764
 Vibration     5          0.647              1.812              1.964
 Vibration     6          0.654              1.790              1.852
 Vibration     7          0.722              1.589              1.197
 Vibration     8          0.730              1.568              1.150
 Vibration     9          0.812              1.353              0.784
 Vibration    10          0.848              1.268              0.678
 Vibration    11          0.951              1.047              0.462

                           ! Non-Optimized Parameters !
 Normal termination of Gaussian 16 at Tue Dec  8 12:50:13 2020.

 ----------------------------------------------------------------------
 # B3LYP/6-311++G(d,p) empiricaldispersion=gd3bj scf=xqc pop=npa geom=c
 heck
 ----------------------------------------------------------------------

 -------------------------------------
 CID_66598290_JID_692_Energie_neutraal
 -------------------------------------
 Structure from the checkpoint file:  "JID_692.chk"
 Charge =  0 Multiplicity = 1

 SCF Done:  E(RB3LYP) =  -435.304633370     A.U. after   16 cycles
 Normal termination of Gaussian 16 at Tue Dec  8 12:51:25 2020.

 ----------------------------------------------------------------------
 # B3LYP/6-311++G(d,p) empiricaldispersion=gd3bj scf=xqc pop=npa geom=c
 heck
 ----------------------------------------------------------------------

 -----------------------------------
 CID_66598290_JID_692_Energie_kation
 -----------------------------------
 Structure from the checkpoint file:  "JID_692.chk"
 Charge =  1 Multiplicity = 2

 SCF Done:  E(UB3LYP) =  -434.985378236     A.U. after   23 cycles
 Normal termination of Gaussian 16 at Tue Dec  8 13:05:01 2020.
 Gaussian 16:  ES64L-G16RevA.03 25-Dec-2016

 ----------------------------------------------------------------------
 # B3LYP/6-311++G(d,p) empiricaldispersion=gd3bj scf=xqc pop=npa geom=c
 heck
 ----------------------------------------------------------------------

 ----------------------------------
 CID_66598290_JID_692_Energie_anion
 ----------------------------------
 Structure from the checkpoint file:  "JID_692.chk"
 Charge = -1 Multiplicity = 2

                         Standard orientation:
 ---------------------------------------------------------------------
 Center     Atomic      Atomic             Coordinates (Angstroms)
 Number     Number       Type             X           Y           Z
 ---------------------------------------------------------------------
      1          6           0        3.325519    0.485247    0.003298
      2          7           0        1.974706   -0.041050   -0.002348
      3          6           0        1.583338   -1.344861   -0.001642
      4          6           0        0.202935   -1.345976   -0.000677
      5          6           0       -0.151998    0.024881   -0.000369
      6          7           0        0.934041    0.810884   -0.000992
      7          6           0       -1.503003    0.604480   -0.000181
      8          6           0       -1.762827    1.924305   -0.001027
      9          6           0       -2.588571   -0.338934    0.001053
     10          7           0       -3.444873   -1.125519    0.002042
     11          1           0        3.480533    1.120522   -0.872644
     12          1           0        3.493771    1.075586    0.908130
     13          1           0        4.027479   -0.350071   -0.022926
     14          1           0        2.303909   -2.149625   -0.002307
     15          1           0       -0.459960   -2.198012   -0.001136
     16          1           0       -2.779421    2.299662   -0.000719
     17          1           0       -0.945799    2.636887   -0.002027
 ---------------------------------------------------------------------

 SCF Done:  E(UB3LYP) =  -435.311728050     A.U. after   29 cycles

 The electronic state is 2-A.
 Alpha  occ. eigenvalues --  -14.24667 -14.16756 -14.13253 -10.10241 -10.07073
 Alpha  occ. eigenvalues --  -10.04531 -10.03627 -10.02463 -10.01921  -9.98331
 Alpha  occ. eigenvalues --   -0.91017  -0.73716  -0.71184  -0.64872  -0.63018
 Alpha  occ. eigenvalues --   -0.56513  -0.47574  -0.46471  -0.41599  -0.40146
 Alpha  occ. eigenvalues --   -0.35652  -0.33065  -0.30677  -0.30057  -0.27993
 Alpha  occ. eigenvalues --   -0.27254  -0.25924  -0.21964  -0.21097  -0.19639
 Alpha  occ. eigenvalues --   -0.16778  -0.14799  -0.14245  -0.11564  -0.08142
 Alpha  occ. eigenvalues --    0.05556
 Alpha virt. eigenvalues --    0.07250   0.09462   0.11145   0.11345   0.12123
 Alpha virt. eigenvalues --    0.13365   0.14195   0.14754   0.15133   0.16803
 Alpha virt. eigenvalues --    0.16871   0.17984   0.18189   0.19042   0.19219

  Beta  occ. eigenvalues --  -14.24481 -14.16465 -14.13062 -10.10249 -10.07089
  Beta  occ. eigenvalues --  -10.04500 -10.03614 -10.02473 -10.01765  -9.97734
  Beta  occ. eigenvalues --   -0.90677  -0.73408  -0.70898  -0.64717  -0.62364
  Beta  occ. eigenvalues --   -0.56253  -0.46726  -0.46162  -0.41216  -0.40029
  Beta  occ. eigenvalues --   -0.35250  -0.32922  -0.30463  -0.29842  -0.27898
  Beta  occ. eigenvalues --   -0.26720  -0.25633  -0.21597  -0.19930  -0.19314
  Beta  occ. eigenvalues --   -0.16631  -0.14408  -0.13060  -0.10892  -0.05823
  Beta virt. eigenvalues --    0.07163   0.09405   0.10676   0.11272   0.12083
  Beta virt. eigenvalues --    0.12721   0.13277   0.14627   0.14658   0.15013
  Beta virt. eigenvalues --    0.16741   0.16997   0.17932   0.19005   0.19190

 Mulliken charges and spin densities:
               1          2
     1  C   -0.252063  -0.054997
     2  N    0.284812   0.013803
     3  C   -0.235759   0.022141
     4  C    0.477573   0.013521
     5  C   -1.400474  -0.022106
     6  N   -0.297976   0.188905
     7  C    2.206760  -0.035136
     8  C   -0.502245   0.760976
     9  C   -1.799666  -0.028180
    10  N   -0.344364   0.103832
    11  H    0.105134   0.053808
    12  H    0.113076   0.045005
    13  H    0.105124   0.000295
    14  H    0.110935   0.000929
    15  H    0.165975   0.001832
    16  H    0.123597  -0.030841
    17  H    0.139561  -0.033788
 Sum of Mulliken charges =  -1.00000   1.00000

 Dipole moment (field-independent basis, Debye):
    X=              8.9290    Y=             -1.6343    Z=              0.0270  Tot=              9.0773
 Quadrupole moment (field-independent basis, Debye-Ang):
   XX=            -91.5975   YY=            -75.5978   ZZ=            -69.1983
   XY=             -7.2126   XZ=              0.0985   YZ=              0.0396

 Summary of Natural Population Analysis:

                                       Natural Population
                Natural  -----------------------------------------------
    Atom  No    Charge         Core      Valence    Rydberg      Total
 -----------------------------------------------------------------------
      C    1   -0.16942      0.99966     2.16288    0.00688     3.16942
      N    2   -0.09013      0.99967     2.57903    0.01144     3.59013
      C    3   -0.03099      0.99958     2.02115    0.01026     3.03099
      C    4   -0.16261      0.99952     2.15561    0.00748     3.16261
      C    5    0.07561      0.99956     1.90897    0.01586     2.92439
      N    6   -0.11874      0.99969     2.60721    0.01184     3.61874
      C    7   -0.10526      0.99940     2.09344    0.01242     3.10526
      C    8   -0.01396      0.99957     2.00545    0.00895     3.01396
      C    9    0.16445      0.99964     1.81689    0.01902     2.83555
      N   10   -0.20531      0.99978     2.69359    0.01193     3.70531
      H   11    0.09752      0.00000     0.40131    0.00117     0.40248
      H   12    0.09659      0.00000     0.40224    0.00117     0.40341
      H   13    0.09028      0.00000     0.40904    0.00068     0.40972
      H   14    0.09240      0.00000     0.40671    0.00090     0.40760
      H   15    0.10995      0.00000     0.38926    0.00078     0.39005
      H   16    0.08052      0.00000     0.41881    0.00068     0.41948
      H   17    0.08911      0.00000     0.41014    0.00075     0.41089
 =======================================================================
   * Total *    0.00000      9.99607    24.88172    0.12221    35.00000

 Normal termination of Gaussian 16 at Tue Dec  8 13:12:18 2020.
