 Gaussian 16, Revision A.03,

 -----------------------------------------------------------
 # opt freq B3LYP/6-31G(d) empiricaldispersion=gd3bj scf=xqc
 -----------------------------------------------------------

 ------------------------------
 CID_10060195_JID_8627_neutraal
 ------------------------------
 Symbolic Z-matrix:
 Charge =  0 Multiplicity = 1

 SCF Done:  E(RB3LYP) =  -800.677394832     A.U. after   16 cycles
 SCF Done:  E(RB3LYP) =  -800.694651789     A.U. after   13 cycles
 SCF Done:  E(RB3LYP) =  -800.699102048     A.U. after   14 cycles
 SCF Done:  E(RB3LYP) =  -800.700399184     A.U. after   13 cycles
 SCF Done:  E(RB3LYP) =  -800.700752509     A.U. after   13 cycles
 SCF Done:  E(RB3LYP) =  -800.700892756     A.U. after   12 cycles
 SCF Done:  E(RB3LYP) =  -800.701044176     A.U. after   11 cycles
 SCF Done:  E(RB3LYP) =  -800.701056081     A.U. after   10 cycles
 SCF Done:  E(RB3LYP) =  -800.701058757     A.U. after    9 cycles
 SCF Done:  E(RB3LYP) =  -800.701059125     A.U. after    7 cycles
 SCF Done:  E(RB3LYP) =  -800.701322932     A.U. after   10 cycles
 SCF Done:  E(RB3LYP) =  -800.701327813     A.U. after   10 cycles
 SCF Done:  E(RB3LYP) =  -800.701328776     A.U. after    8 cycles
 SCF Done:  E(RB3LYP) =  -800.701329290     A.U. after    9 cycles
 SCF Done:  E(RB3LYP) =  -800.701329661     A.U. after    8 cycles
 SCF Done:  E(RB3LYP) =  -800.701329704     A.U. after    7 cycles
 Optimization completed.
    -- Stationary point found.
 Normal termination of Gaussian 16 at Fri Dec 11 21:45:43 2020.

 --------------------------------------------------------------------
 #N Geom=AllCheck Guess=TCheck SCRF=Check GenChk RB3LYP/6-31G(d) Freq
 --------------------------------------------------------------------

 Structure from the checkpoint file:  "JID_8627.chk"
 ------------------------------
 CID_10060195_JID_8627_neutraal
 ------------------------------
 Charge =  0 Multiplicity = 1

 SCF Done:  E(RB3LYP) =  -800.701329704     A.U. after    1 cycles

  Exact polarizability: 272.710  14.447 192.679   0.003   0.004  65.770
 Approx polarizability: 401.914  46.180 349.426   0.004   0.011 103.602

                      1                      2                      3
                      A                      A                      A
 Frequencies --     32.7923                48.3162                53.3072
 Red. masses --      3.7889                 1.0628                 4.1342
 Frc consts  --      0.0024                 0.0015                 0.0069
 IR Inten    --      0.1576                 0.2037                 3.0868

                      4                      5                      6
                      A                      A                      A
 Frequencies --    104.7494               111.3073               132.1727
 Red. masses --      5.9040                 4.7449                 1.7723
 Frc consts  --      0.0382                 0.0346                 0.0182
 IR Inten    --      0.2696                 1.3869                 0.1853

                      7                      8                      9
                      A                      A                      A
 Frequencies --    145.2753               183.9698               223.0444
 Red. masses --      2.0680                 2.5766                 5.7215
 Frc consts  --      0.0257                 0.0514                 0.1677
 IR Inten    --      0.4014                 0.3564                 0.6374

                     10                     11                     12
                      A                      A                      A
 Frequencies --    240.1208               260.2789               299.4368
 Red. masses --      3.8416                 3.4369                 5.7356
 Frc consts  --      0.1305                 0.1372                 0.3030
 IR Inten    --      0.4582                 0.9478                 4.3704

                     13                     14                     15
                      A                      A                      A
 Frequencies --    333.2689               338.0446               353.4599
 Red. masses --      4.8117                 6.1494                 9.1745
 Frc consts  --      0.3149                 0.4140                 0.6753
 IR Inten    --      0.3091                 1.4658                 1.2559

                     16                     17                     18
                      A                      A                      A
 Frequencies --    415.8629               463.1999               469.5861
 Red. masses --      3.0961                 5.4237                 5.4309
 Frc consts  --      0.3155                 0.6856                 0.7056
 IR Inten    --      0.0024                 2.3215                 2.0348

                     19                     20                     21
                      A                      A                      A
 Frequencies --    526.7733               529.4641               548.3363
 Red. masses --      3.9063                 3.5699                 5.1474
 Frc consts  --      0.6386                 0.5896                 0.9119
 IR Inten    --      0.0991                 8.2551                 2.8497

                     22                     23                     24
                      A                      A                      A
 Frequencies --    597.1685               608.5458               637.4670
 Red. masses --      7.0843                 4.3200                 6.3817
 Frc consts  --      1.4885                 0.9426                 1.5279
 IR Inten    --      1.5373                 0.2946                 0.1723

                     25                     26                     27
                      A                      A                      A
 Frequencies --    659.3377               691.8507               692.5435
 Red. masses --      7.3634                 9.9294                 7.4183
 Frc consts  --      1.8860                 2.8003                 2.0963
 IR Inten    --     18.0349                 5.2373                30.8572

                     28                     29                     30
                      A                      A                      A
 Frequencies --    712.7003               715.4041               779.4790
 Red. masses --      1.8948                 6.6418                 8.4454
 Frc consts  --      0.5671                 2.0028                 3.0233
 IR Inten    --     20.4162                 2.9611                10.7165

                     31                     32                     33
                      A                      A                      A
 Frequencies --    780.1483               794.4947               798.1330
 Red. masses --      1.8461                 1.2073                 7.8060
 Frc consts  --      0.6620                 0.4490                 2.9297
 IR Inten    --     33.8111                18.7274                22.3138

                     34                     35                     36
                      A                      A                      A
 Frequencies --    867.6310               892.1876               931.5329
 Red. masses --      1.2467                 8.3053                 1.4035
 Frc consts  --      0.5530                 3.8951                 0.7175
 IR Inten    --      0.0415                54.1603                 4.3468

                     37                     38                     39
                      A                      A                      A
 Frequencies --    978.7204               983.0185               996.0224
 Red. masses --      1.3267                 5.4300                 1.6318
 Frc consts  --      0.7488                 3.0915                 0.9538
 IR Inten    --      0.0003                 4.2374                 9.0022

                     40                     41                     42
                      A                      A                      A
 Frequencies --    999.1890              1021.0968              1046.3466
 Red. masses --      1.2420                 6.2090                 1.6417
 Frc consts  --      0.7306                 3.8142                 1.0590
 IR Inten    --      0.9699                 0.9062                 3.9474

                     43                     44                     45
                      A                      A                      A
 Frequencies --   1064.9543              1065.9957              1077.8491
 Red. masses --      1.5736                 2.3295                 1.5195
 Frc consts  --      1.0515                 1.5596                 1.0400
 IR Inten    --      6.8075                 3.4578                 1.3368

                     46                     47                     48
                      A                      A                      A
 Frequencies --   1109.2829              1119.6732              1175.6028
 Red. masses --      2.2656                 2.2704                 3.6657
 Frc consts  --      1.6425                 1.6770                 2.9849
 IR Inten    --      0.2073                 1.5162                 2.6834

                     49                     50                     51
                      A                      A                      A
 Frequencies --   1194.7820              1201.0359              1230.4219
 Red. masses --      1.1522                 2.4719                 1.1564
 Frc consts  --      0.9691                 2.1008                 1.0315
 IR Inten    --      0.0336                 0.3163                 3.9663

                     52                     53                     54
                      A                      A                      A
 Frequencies --   1248.2024              1288.4340              1342.2792
 Red. masses --      4.3869                 3.3183                 4.3072
 Frc consts  --      4.0270                 3.2455                 4.5723
 IR Inten    --     61.1783                18.0605                15.0193

                     55                     56                     57
                      A                      A                      A
 Frequencies --   1351.9423              1384.6749              1402.6415
 Red. masses --      6.1738                 1.4944                 2.8093
 Frc consts  --      6.6485                 1.6882                 3.2564
 IR Inten    --     45.6409                 6.5067                49.0565

                     58                     59                     60
                      A                      A                      A
 Frequencies --   1435.0029              1445.5780              1466.8473
 Red. masses --      1.4251                 1.3522                 2.5920
 Frc consts  --      1.7290                 1.6648                 3.2859
 IR Inten    --     27.3237                 1.6082                61.2515

                     61                     62                     63
                      A                      A                      A
 Frequencies --   1498.7278              1499.8153              1501.8159
 Red. masses --      2.0304                 1.0418                 1.2720
 Frc consts  --      2.6871                 1.3808                 1.6903
 IR Inten    --      0.1764                10.8068                64.3737

                     64                     65                     66
                      A                      A                      A
 Frequencies --   1509.4136              1524.1293              1551.9431
 Red. masses --      1.0446                 1.3861                 2.3001
 Frc consts  --      1.4022                 1.8970                 3.2640
 IR Inten    --      7.1349                53.8210                33.2259

                     67                     68                     69
                      A                      A                      A
 Frequencies --   1600.2613              1619.9452              1634.0154
 Red. masses --      6.3070                 6.2400                 5.3709
 Frc consts  --      9.5160                 9.6480                 8.4491
 IR Inten    --      8.1706               360.6659                 0.7366

                     70                     71                     72
                      A                      A                      A
 Frequencies --   1663.5741              1671.6189              1879.9090
 Red. masses --      6.6656                 6.4629                12.7735
 Frc consts  --     10.8687                10.6402                26.5970
 IR Inten    --    567.7771               304.4943               592.9474

                     73                     74                     75
                      A                      A                      A
 Frequencies --   3054.7278              3068.9837              3108.1995
 Red. masses --      1.0391                 1.0368                 1.1002
 Frc consts  --      5.7130                 5.7538                 6.2625
 IR Inten    --     12.0794                 2.8651                10.2088

                     76                     77                     78
                      A                      A                      A
 Frequencies --   3127.6559              3169.9090              3171.8078
 Red. masses --      1.1006                 1.1030                 1.1003
 Frc consts  --      6.3436                 6.5302                 6.5218
 IR Inten    --      2.0797                 8.5531                 5.7528

                     79                     80                     81
                      A                      A                      A
 Frequencies --   3177.7302              3187.6974              3203.9017
 Red. masses --      1.0852                 1.0902                 1.0961
 Frc consts  --      6.4565                 6.5269                 6.6289
 IR Inten    --      1.0084                28.6771                43.9185

                     82                     83                     84
                      A                      A                      A
 Frequencies --   3236.0290              3238.8854              3242.4737
 Red. masses --      1.0922                 1.0919                 1.0919
 Frc consts  --      6.7387                 6.7485                 6.7639
 IR Inten    --      0.2721                 5.0217                 3.3044

 - Thermochemistry -
 -------------------
 Temperature   298.150 Kelvin.  Pressure   1.00000 Atm.
 Atom     1 has atomic number  6 and mass  12.00000

 Molecular mass:   240.08988 amu.
 Principal axes and moments of inertia in atomic units:
                           1         2         3
     Eigenvalues --  2412.395995966.108508356.13195
           X            1.00000   0.00187   0.00000
           Y           -0.00187   1.00000   0.00000
           Z           -0.00000  -0.00000   1.00000
 This molecule is an asymmetric top.
 Rotational symmetry number  1.
 Warning -- assumption of classical behavior for rotation
           may cause significant error
 Rotational temperatures (Kelvin)      0.03590     0.01452     0.01037
 Rotational constants (GHZ):           0.74811     0.30250     0.21598
 Zero-point vibrational energy     614546.5 (Joules/Mol)
                                  146.88014 (Kcal/Mol)
 Warning -- explicit consideration of  23 degrees of freedom as
           vibrations may cause significant error
 Vibrational temperatures:     47.18    69.52    76.70   150.71   160.15
          (Kelvin)            190.17   209.02   264.69   320.91   345.48
                              374.48   430.82   479.50   486.37   508.55
                              598.33   666.44   675.63   757.91   761.78
                              788.93   859.19   875.56   917.17   948.64
                              995.42   996.42  1025.42  1029.31  1121.50
                             1122.46  1143.10  1148.34  1248.33  1283.66
                             1340.27  1408.16  1414.34  1433.05  1437.61
                             1469.13  1505.46  1532.23  1533.73  1550.78
                             1596.01  1610.96  1691.43  1719.02  1728.02
                             1770.30  1795.88  1853.77  1931.24  1945.14
                             1992.24  2018.09  2064.65  2079.86  2110.47
                             2156.34  2157.90  2160.78  2171.71  2192.88
                             2232.90  2302.42  2330.74  2350.98  2393.51
                             2405.09  2704.77  4395.07  4415.58  4472.01
                             4500.00  4560.79  4563.52  4572.04  4586.39
                             4609.70  4655.92  4660.03  4665.20

 Zero-point correction=                           0.234068 (Hartree/Particle)
 Thermal correction to Energy=                    0.249278
 Thermal correction to Enthalpy=                  0.250222
 Thermal correction to Gibbs Free Energy=         0.190687
 Sum of electronic and zero-point Energies=           -800.467261
 Sum of electronic and thermal Energies=              -800.452052
 Sum of electronic and thermal Enthalpies=            -800.451107
 Sum of electronic and thermal Free Energies=         -800.510643

                     E (Thermal)             CV                S
                      KCal/Mol        Cal/Mol-Kelvin    Cal/Mol-Kelvin
 Total                  156.424             58.530            125.303
 Electronic               0.000              0.000              0.000
 Translational            0.889              2.981             42.329
 Rotational               0.889              2.981             33.153
 Vibrational            154.647             52.568             49.821
 Vibration     1          0.594              1.983              5.653
 Vibration     2          0.595              1.978              4.885
 Vibration     3          0.596              1.976              4.691
 Vibration     4          0.605              1.945              3.364
 Vibration     5          0.607              1.940              3.246
 Vibration     6          0.612              1.921              2.914
 Vibration     7          0.617              1.908              2.733
 Vibration     8          0.631              1.862              2.288
 Vibration     9          0.649              1.806              1.934
 Vibration    10          0.657              1.779              1.802
 Vibration    11          0.668              1.745              1.660
 Vibration    12          0.692              1.675              1.420
 Vibration    13          0.715              1.609              1.244
 Vibration    14          0.718              1.599              1.221
 Vibration    15          0.730              1.568              1.151
 Vibration    16          0.779              1.436              0.906
 Vibration    17          0.821              1.332              0.757
 Vibration    18          0.827              1.318              0.739
 Vibration    19          0.882              1.191              0.594
 Vibration    20          0.884              1.185              0.588
 Vibration    21          0.904              1.143              0.548
 Vibration    22          0.955              1.038              0.455
 Vibration    23          0.967              1.014              0.435

 Optimization completed.
    -- Stationary point found.
 Normal termination of Gaussian 16 at Fri Dec 11 21:57:31 2020.

 ----------------------------------------------------------------------
 # B3LYP/6-311++G(d,p) empiricaldispersion=gd3bj scf=xqc pop=npa geom=c
 heck
 ----------------------------------------------------------------------

 --------------------------------------
 CID_10060195_JID_8627_Energie_neutraal
 --------------------------------------
 Structure from the checkpoint file:  "JID_8627.chk"
 Charge =  0 Multiplicity = 1

 SCF Done:  E(RB3LYP) =  -800.909752772     A.U. after   16 cycles
 Normal termination of Gaussian 16 at Fri Dec 11 22:03:28 2020.

 ----------------------------------------------------------------------
 # B3LYP/6-311++G(d,p) empiricaldispersion=gd3bj scf=xqc pop=npa geom=c
 heck
 ----------------------------------------------------------------------

 ------------------------------------
 CID_10060195_JID_8627_Energie_kation
 ------------------------------------
 Structure from the checkpoint file:  "JID_8627.chk"
 Charge =  1 Multiplicity = 2

 SCF Done:  E(UB3LYP) =  -800.648473861     A.U. after   21 cycles
 Normal termination of Gaussian 16 at Fri Dec 11 22:14:39 2020.
 Gaussian 16:  ES64L-G16RevA.03 25-Dec-2016

 ----------------------------------------------------------------------
 # B3LYP/6-311++G(d,p) empiricaldispersion=gd3bj scf=xqc pop=npa geom=c
 heck
 ----------------------------------------------------------------------

 -----------------------------------
 CID_10060195_JID_8627_Energie_anion
 -----------------------------------
 Structure from the checkpoint file:  "JID_8627.chk"
 Charge = -1 Multiplicity = 2

                         Standard orientation:
 ---------------------------------------------------------------------
 Center     Atomic      Atomic             Coordinates (Angstroms)
 Number     Number       Type             X           Y           Z
 ---------------------------------------------------------------------
      1          6           0        4.004767   -1.553306    0.000319
      2          6           0        3.005090   -0.443802    0.000087
      3          6           0        3.276634    0.910135    0.000111
      4          6           0        2.195828    1.834118   -0.000099
      5          7           0        0.923959    1.462864   -0.000229
      6          6           0        0.641509    0.138780   -0.000201
      7          6           0       -0.553550   -0.573249   -0.000024
      8          6           0       -0.219278   -1.971130    0.000035
      9          8           0       -0.815292   -3.017219    0.000144
     10          8           0        1.256389   -2.056582   -0.000148
     11          7           0        1.699847   -0.766400   -0.000329
     12          6           0       -1.925215   -0.052958    0.000038
     13          6           0       -2.177496    1.332464    0.000289
     14          6           0       -3.483580    1.814405    0.000307
     15          6           0       -4.567087    0.934661    0.000076
     16          6           0       -4.326327   -0.439497   -0.000177
     17          6           0       -3.024072   -0.933026   -0.000196
     18          6           0        2.479271    3.310854   -0.000126
     19          1           0        3.870166   -2.190459   -0.880241
     20          1           0        3.869540   -2.190645    0.880644
     21          1           0        5.017283   -1.146394    0.000711
     22          1           0        4.304652    1.250479    0.000315
     23          1           0       -1.343922    2.023897    0.000444
     24          1           0       -3.654095    2.887985    0.000500
     25          1           0       -5.584771    1.315168    0.000086
     26          1           0       -5.158621   -1.138413   -0.000362
     27          1           0       -2.848727   -2.001648   -0.000380
     28          1           0        1.542189    3.869388    0.000384
     29          1           0        3.066399    3.592486    0.882152
     30          1           0        3.065521    3.592613   -0.882947
 ---------------------------------------------------------------------

 SCF Done:  E(UB3LYP) =  -800.929784090     A.U. after   26 cycles

 The electronic state is 2-A.
 Alpha  occ. eigenvalues --  -19.05933 -18.97110 -14.26845 -14.15074 -10.15751
 Alpha  occ. eigenvalues --  -10.11397 -10.08177 -10.06493 -10.06482 -10.05635
 Alpha  occ. eigenvalues --  -10.05597 -10.05395 -10.05111 -10.04440 -10.04129
 Alpha  occ. eigenvalues --  -10.04108 -10.03976 -10.03882  -1.01540  -0.91310
 Alpha  occ. eigenvalues --   -0.82360  -0.74947  -0.73640  -0.69670  -0.65011
 Alpha  occ. eigenvalues --   -0.62485  -0.61633  -0.60989  -0.57876  -0.51612
 Alpha  occ. eigenvalues --   -0.49361  -0.48372  -0.47022  -0.45702  -0.40455
 Alpha  occ. eigenvalues --   -0.39229  -0.37708  -0.37242  -0.34970  -0.33244
 Alpha  occ. eigenvalues --   -0.32343  -0.31101  -0.31040  -0.30320  -0.30280
 Alpha  occ. eigenvalues --   -0.29992  -0.29876  -0.28867  -0.27531  -0.26470
 Alpha  occ. eigenvalues --   -0.26254  -0.25420  -0.24695  -0.23312  -0.22585
 Alpha  occ. eigenvalues --   -0.22310  -0.17674  -0.15705  -0.15144  -0.13516
 Alpha  occ. eigenvalues --   -0.13209  -0.12403  -0.06506   0.03762
 Alpha virt. eigenvalues --    0.07766   0.08039   0.08825   0.09651   0.09851
 Alpha virt. eigenvalues --    0.10617   0.10634   0.11072   0.11474   0.12354
 Alpha virt. eigenvalues --    0.12457   0.12849   0.13819   0.14042   0.14855

  Beta  occ. eigenvalues --  -19.05840 -18.97124 -14.26333 -14.14859 -10.15762
  Beta  occ. eigenvalues --  -10.11378 -10.07636 -10.06542 -10.06471 -10.05626
  Beta  occ. eigenvalues --  -10.05598 -10.05388 -10.04454 -10.04445 -10.04180
  Beta  occ. eigenvalues --  -10.04098 -10.04084 -10.03971  -1.01135  -0.91259
  Beta  occ. eigenvalues --   -0.81805  -0.74334  -0.73472  -0.69317  -0.64748
  Beta  occ. eigenvalues --   -0.62457  -0.61231  -0.60897  -0.57805  -0.51499
  Beta  occ. eigenvalues --   -0.49266  -0.48015  -0.46756  -0.45568  -0.40129
  Beta  occ. eigenvalues --   -0.38991  -0.37509  -0.35966  -0.34888  -0.33190
  Beta  occ. eigenvalues --   -0.32265  -0.30946  -0.30610  -0.30253  -0.29877
  Beta  occ. eigenvalues --   -0.29775  -0.29547  -0.28734  -0.27441  -0.26061
  Beta  occ. eigenvalues --   -0.25937  -0.25213  -0.24445  -0.23267  -0.22290
  Beta  occ. eigenvalues --   -0.21725  -0.16980  -0.15130  -0.14097  -0.13411
  Beta  occ. eigenvalues --   -0.12084  -0.12020  -0.06101
  Beta virt. eigenvalues --    0.07726   0.08029   0.08796   0.09766   0.09835
  Beta virt. eigenvalues --    0.10561   0.10578   0.11199   0.11459   0.11614
  Beta virt. eigenvalues --    0.12391   0.12765   0.13238   0.13792   0.14022

 Mulliken charges and spin densities:
               1          2
     1  C   -0.744396  -0.046312
     2  C    0.534783   0.399370
     3  C   -0.362052  -0.146229
     4  C    0.428931   0.376352
     5  N   -0.032346   0.105255
     6  C   -0.401409   0.035039
     7  C    0.396027  -0.001124
     8  C   -0.192330  -0.004235
     9  O   -0.366679  -0.004766
    10  O    0.375831   0.026975
    11  N   -0.591448   0.149788
    12  C    0.851609   0.004782
    13  C   -0.480982   0.018707
    14  C   -0.292683  -0.001534
    15  C   -0.286977   0.005944
    16  C   -0.643211   0.007478
    17  C   -0.310478  -0.004397
    18  C   -0.490598  -0.044653
    19  H    0.144688   0.027651
    20  H    0.144837   0.027491
    21  H    0.134810   0.000488
    22  H    0.123778   0.011055
    23  H    0.161222  -0.003879
    24  H    0.142318   0.000146
    25  H    0.105169  -0.000493
    26  H    0.136535  -0.000643
    27  H    0.178163   0.000351
    28  H    0.122305   0.000767
    29  H    0.107263   0.030295
    30  H    0.107319   0.030332
 Sum of Mulliken charges =  -1.00000   1.00000

 Dipole moment (field-independent basis, Debye):
    X=              1.3168    Y=              1.8007    Z=              0.0003  Tot=              2.2309
 Quadrupole moment (field-independent basis, Debye-Ang):
   XX=           -132.2704   YY=           -136.7459   ZZ=           -114.2891
   XY=             -4.7159   XZ=              0.0024   YZ=              0.0020

 Summary of Natural Population Analysis:

                                       Natural Population
                Natural  -----------------------------------------------
    Atom  No    Charge         Core      Valence    Rydberg      Total
 -----------------------------------------------------------------------
      C    1   -0.30484      0.99965     2.30070    0.00449     3.30484
      C    2    0.21456      0.99955     1.77701    0.00889     2.78544
      C    3   -0.20484      0.99949     2.19724    0.00811     3.20484
      C    4    0.24024      0.99959     1.74790    0.01227     2.75976
      N    5   -0.25348      0.99964     2.74031    0.01353     3.75348
      C    6    0.22231      0.99953     1.76558    0.01258     2.77769
      C    7   -0.15705      0.99935     2.14832    0.00937     3.15705
      C    8    0.37083      0.99960     1.60514    0.02444     2.62917
      O    9   -0.32706      0.99986     3.31936    0.00783     4.32706
      O   10   -0.19626      0.99989     3.18777    0.00860     4.19626
      N   11    0.02479      0.99950     2.46407    0.01164     3.47521
      C   12   -0.00932      0.99942     2.00059    0.00931     3.00932
      C   13   -0.09935      0.99945     2.09118    0.00872     3.09935
      C   14   -0.10975      0.99959     2.10031    0.00984     3.10975
      C   15   -0.12610      0.99957     2.11654    0.00999     3.12610
      C   16   -0.10944      0.99959     2.09973    0.01012     3.10944
      C   17   -0.10267      0.99945     2.09454    0.00869     3.10267
      C   18   -0.30322      0.99965     2.29946    0.00410     3.30322
      H   19    0.11106      0.00000     0.38784    0.00110     0.38894
      H   20    0.11106      0.00000     0.38784    0.00110     0.38894
      H   21    0.09832      0.00000     0.40087    0.00081     0.40168
      H   22    0.09653      0.00000     0.40248    0.00099     0.40347
      H   23    0.11944      0.00000     0.37933    0.00123     0.38056
      H   24    0.09277      0.00000     0.40618    0.00105     0.40723
      H   25    0.09147      0.00000     0.40743    0.00110     0.40853
      H   26    0.09257      0.00000     0.40637    0.00106     0.40743
      H   27    0.11384      0.00000     0.38479    0.00137     0.38616
      H   28    0.10395      0.00000     0.39509    0.00096     0.39605
      H   29    0.09981      0.00000     0.39929    0.00089     0.40019
      H   30    0.09983      0.00000     0.39928    0.00089     0.40017
 =======================================================================
   * Total *    0.00000     17.99236    44.81257    0.19506    63.00000

 Normal termination of Gaussian 16 at Fri Dec 11 22:28:42 2020.
