 Gaussian 16, Revision A.03,

 -----------------------------------------------------------
 # opt freq B3LYP/6-31G(d) empiricaldispersion=gd3bj scf=xqc
 -----------------------------------------------------------

 ------------------------------
 CID_61747217_JID_5260_neutraal
 ------------------------------
 Symbolic Z-matrix:
 Charge =  0 Multiplicity = 1

 SCF Done:  E(RB3LYP) =  -621.805396620     A.U. after   13 cycles
 SCF Done:  E(RB3LYP) =  -621.809864623     A.U. after   11 cycles
 SCF Done:  E(RB3LYP) =  -621.810086334     A.U. after   11 cycles
 SCF Done:  E(RB3LYP) =  -621.810746189     A.U. after   10 cycles
 SCF Done:  E(RB3LYP) =  -621.810889674     A.U. after   10 cycles
 SCF Done:  E(RB3LYP) =  -621.810926672     A.U. after   10 cycles
 SCF Done:  E(RB3LYP) =  -621.810973288     A.U. after    9 cycles
 SCF Done:  E(RB3LYP) =  -621.810990654     A.U. after    9 cycles
 SCF Done:  E(RB3LYP) =  -621.810997517     A.U. after    8 cycles
 SCF Done:  E(RB3LYP) =  -621.810999480     A.U. after    7 cycles
 SCF Done:  E(RB3LYP) =  -621.811000067     A.U. after    7 cycles
 SCF Done:  E(RB3LYP) =  -621.811000437     A.U. after    6 cycles
 SCF Done:  E(RB3LYP) =  -621.811000866     A.U. after    6 cycles
 Optimization completed.
    -- Stationary point found.
 Normal termination of Gaussian 16 at Thu Dec 10 15:16:38 2020.

 --------------------------------------------------------------------
 #N Geom=AllCheck Guess=TCheck SCRF=Check GenChk RB3LYP/6-31G(d) Freq
 --------------------------------------------------------------------

 Structure from the checkpoint file:  "JID_5260.chk"
 ------------------------------
 CID_61747217_JID_5260_neutraal
 ------------------------------
 Charge =  0 Multiplicity = 1

 SCF Done:  E(RB3LYP) =  -621.811000866     A.U. after    1 cycles

  Exact polarizability: 159.347   1.177 146.132  -0.060  -1.652 141.158
 Approx polarizability: 206.999   4.707 200.205   2.634  -1.555 202.950

                      1                      2                      3
                      A                      A                      A
 Frequencies --     25.0357                56.0987                66.2896
 Red. masses --      3.0984                 2.7203                 3.1003
 Frc consts  --      0.0011                 0.0050                 0.0080
 IR Inten    --      0.4491                 0.0100                 0.0251

                      4                      5                      6
                      A                      A                      A
 Frequencies --     85.0653                98.9473               118.2956
 Red. masses --      2.8547                 3.0478                 2.0018
 Frc consts  --      0.0122                 0.0176                 0.0165
 IR Inten    --      0.1577                 0.3979                 2.5886

                      7                      8                      9
                      A                      A                      A
 Frequencies --    142.5649               155.6146               182.2183
 Red. masses --      2.2783                 2.2721                 1.8952
 Frc consts  --      0.0273                 0.0324                 0.0371
 IR Inten    --      0.4550                 0.2144                 0.3366

                     10                     11                     12
                      A                      A                      A
 Frequencies --    206.1252               221.4813               227.0156
 Red. masses --      1.8193                 1.4151                 1.4969
 Frc consts  --      0.0455                 0.0409                 0.0455
 IR Inten    --      0.1125                 0.3692                 0.9482

                     13                     14                     15
                      A                      A                      A
 Frequencies --    249.3690               266.7814               282.1764
 Red. masses --      2.0374                 1.3674                 2.2996
 Frc consts  --      0.0746                 0.0573                 0.1079
 IR Inten    --      0.3213                 2.5492                 1.7950

                     16                     17                     18
                      A                      A                      A
 Frequencies --    293.0343               322.2647               335.1590
 Red. masses --      3.0763                 2.1413                 1.7744
 Frc consts  --      0.1556                 0.1310                 0.1174
 IR Inten    --      0.2417                 2.7543                 0.9962

                     19                     20                     21
                      A                      A                      A
 Frequencies --    360.3384               385.1200               411.5545
 Red. masses --      2.9328                 2.5165                 2.1331
 Frc consts  --      0.2244                 0.2199                 0.2129
 IR Inten    --      0.9019                 2.3773                 0.1907

                     22                     23                     24
                      A                      A                      A
 Frequencies --    449.5923               502.3381               513.0189
 Red. masses --      2.3544                 2.7794                 2.2158
 Frc consts  --      0.2804                 0.4132                 0.3436
 IR Inten    --      1.0800                 1.0020                 5.4000

                     25                     26                     27
                      A                      A                      A
 Frequencies --    527.8669               578.5247               673.2029
 Red. masses --      2.2991                 2.5891                 2.2249
 Frc consts  --      0.3775                 0.5105                 0.5941
 IR Inten    --      7.4906                 2.3680                 0.6088

                     28                     29                     30
                      A                      A                      A
 Frequencies --    730.8609               767.1484               786.2789
 Red. masses --      2.1751                 1.8423                 1.4376
 Frc consts  --      0.6845                 0.6388                 0.5236
 IR Inten    --      3.7417                 9.7519                14.3132

                     31                     32                     33
                      A                      A                      A
 Frequencies --    805.4741               828.5503               848.4923
 Red. masses --      1.3466                 1.4833                 2.3199
 Frc consts  --      0.5147                 0.5999                 0.9840
 IR Inten    --      0.4441                45.1213                 0.2590

                     34                     35                     36
                      A                      A                      A
 Frequencies --    864.6554               871.7979               899.1856
 Red. masses --      2.7102                 2.0415                 1.7271
 Frc consts  --      1.1938                 0.9142                 0.8228
 IR Inten    --      6.0225                19.9816                17.4745

                     37                     38                     39
                      A                      A                      A
 Frequencies --    908.8475               918.6486               931.5782
 Red. masses --      1.5270                 1.7275                 1.3694
 Frc consts  --      0.7432                 0.8590                 0.7002
 IR Inten    --      4.1294                 4.8657                 5.9177

                     40                     41                     42
                      A                      A                      A
 Frequencies --    943.5637               977.9744              1023.6861
 Red. masses --      1.9383                 1.9001                 1.7015
 Frc consts  --      1.0167                 1.0708                 1.0505
 IR Inten    --      4.5132                 1.4436                11.9195

                     43                     44                     45
                      A                      A                      A
 Frequencies --   1037.4109              1046.4537              1057.6278
 Red. masses --      1.7383                 1.9525                 1.7438
 Frc consts  --      1.1022                 1.2597                 1.1492
 IR Inten    --     19.1626                17.2643                 0.8186

                     46                     47                     48
                      A                      A                      A
 Frequencies --   1075.6771              1086.5423              1099.1001
 Red. masses --      1.7529                 2.2057                 2.3698
 Frc consts  --      1.1950                 1.5342                 1.6867
 IR Inten    --      5.5917                33.5533                 9.4135

                     49                     50                     51
                      A                      A                      A
 Frequencies --   1109.4803              1115.3866              1123.3462
 Red. masses --      1.7727                 1.9971                 1.6894
 Frc consts  --      1.2857                 1.4639                 1.2560
 IR Inten    --      5.2436                 6.3950                13.4058

                     52                     53                     54
                      A                      A                      A
 Frequencies --   1146.3917              1152.7291              1157.8394
 Red. masses --      1.8910                 1.8505                 1.4804
 Frc consts  --      1.4642                 1.4487                 1.1693
 IR Inten    --      4.8266                13.1232                 1.8226

                     55                     56                     57
                      A                      A                      A
 Frequencies --   1186.1196              1213.0622              1225.1710
 Red. masses --      1.9876                 1.7914                 2.0949
 Frc consts  --      1.6476                 1.5531                 1.8527
 IR Inten    --     38.6341                 0.1719                11.1098

                     58                     59                     60
                      A                      A                      A
 Frequencies --   1235.1772              1247.2092              1283.9569
 Red. masses --      2.4816                 1.7818                 1.2413
 Frc consts  --      2.2307                 1.6330                 1.2057
 IR Inten    --     17.4449                16.5949                 3.0284

                     61                     62                     63
                      A                      A                      A
 Frequencies --   1305.1598              1307.3111              1318.5495
 Red. masses --      1.3197                 1.3156                 1.1928
 Frc consts  --      1.3245                 1.3247                 1.2219
 IR Inten    --      8.5581                 2.8833                 0.9442

                     64                     65                     66
                      A                      A                      A
 Frequencies --   1320.5900              1340.8999              1350.9306
 Red. masses --      1.1809                 1.3417                 1.3516
 Frc consts  --      1.2133                 1.4213                 1.4533
 IR Inten    --      1.8852                 2.3596                 1.0474

                     67                     68                     69
                      A                      A                      A
 Frequencies --   1366.9543              1367.5624              1388.2148
 Red. masses --      1.4798                 1.3847                 1.4053
 Frc consts  --      1.6292                 1.5259                 1.5957
 IR Inten    --      8.3875                 0.3700                 3.1626

                     70                     71                     72
                      A                      A                      A
 Frequencies --   1395.9168              1398.2549              1400.7418
 Red. masses --      1.3540                 1.3815                 1.3946
 Frc consts  --      1.5545                 1.5913                 1.6122
 IR Inten    --      7.2139                 1.0108                 1.2884

                     73                     74                     75
                      A                      A                      A
 Frequencies --   1404.7762              1409.4939              1415.4149
 Red. masses --      1.3162                 1.4046                 1.3016
 Frc consts  --      1.5303                 1.6441                 1.5363
 IR Inten    --     16.7845                 3.6594                 0.7084

                     76                     77                     78
                      A                      A                      A
 Frequencies --   1428.7090              1442.4613              1445.9718
 Red. masses --      1.3608                 1.2662                 1.2971
 Frc consts  --      1.6365                 1.5522                 1.5978
 IR Inten    --      9.1073                13.8111                 7.2154

                     79                     80                     81
                      A                      A                      A
 Frequencies --   1457.5802              1481.5041              1497.0078
 Red. masses --      1.2428                 1.1610                 1.2591
 Frc consts  --      1.5556                 1.5014                 1.6625
 IR Inten    --     10.6098                 6.4533                28.3022

                     82                     83                     84
                      A                      A                      A
 Frequencies --   1507.4910              1511.7898              1517.6535
 Red. masses --      1.0886                 1.0812                 1.0713
 Frc consts  --      1.4575                 1.4559                 1.4539
 IR Inten    --      5.3613                 3.9759                 0.7168

                     85                     86                     87
                      A                      A                      A
 Frequencies --   1519.7415              1521.6085              1522.6304
 Red. masses --      1.0862                 1.0761                 1.0477
 Frc consts  --      1.4781                 1.4680                 1.4311
 IR Inten    --      4.3851                 3.0711                 4.5674

                     88                     89                     90
                      A                      A                      A
 Frequencies --   1523.6222              1529.8461              1534.1881
 Red. masses --      1.0724                 1.0473                 1.0669
 Frc consts  --      1.4668                 1.4442                 1.4796
 IR Inten    --      9.4920                 2.0274                11.2744

                     91                     92                     93
                      A                      A                      A
 Frequencies --   1536.8498              1539.5819              1544.2207
 Red. masses --      1.0738                 1.0759                 1.0761
 Frc consts  --      1.4943                 1.5025                 1.5119
 IR Inten    --      4.2169                 9.4546                12.9059

                     94                     95                     96
                      A                      A                      A
 Frequencies --   1547.7203              1549.4835              2935.7574
 Red. masses --      1.0902                 1.0461                 1.0746
 Frc consts  --      1.5386                 1.4798                 5.4566
 IR Inten    --      4.6587                 7.5198                77.4937

                     97                     98                     99
                      A                      A                      A
 Frequencies --   2968.7822              2998.0438              3020.7104
 Red. masses --      1.0585                 1.0823                 1.0674
 Frc consts  --      5.4965                 5.7313                 5.7385
 IR Inten    --     84.5546                22.0028                27.8226

                    100                    101                    102
                      A                      A                      A
 Frequencies --   3025.4243              3033.4557              3037.0141
 Red. masses --      1.0679                 1.0689                 1.0633
 Frc consts  --      5.7589                 5.7950                 5.7783
 IR Inten    --     19.7819                10.6345                25.2720

                    103                    104                    105
                      A                      A                      A
 Frequencies --   3038.5045              3046.5164              3047.6549
 Red. masses --      1.0635                 1.0598                 1.0637
 Frc consts  --      5.7853                 5.7952                 5.8211
 IR Inten    --     59.7316                54.3747                33.9776

                    106                    107                    108
                      A                      A                      A
 Frequencies --   3048.0881              3048.3969              3063.7576
 Red. masses --      1.0409                 1.0413                 1.0987
 Frc consts  --      5.6977                 5.7011                 6.0763
 IR Inten    --     38.5676                 1.1096                26.0353

                    109                    110                    111
                      A                      A                      A
 Frequencies --   3064.9428              3069.1766              3073.1402
 Red. masses --      1.0753                 1.0951                 1.0929
 Frc consts  --      5.9516                 6.0780                 6.0815
 IR Inten    --     61.6280                60.4602                 8.1176

                    112                    113                    114
                      A                      A                      A
 Frequencies --   3075.0090              3080.8186              3086.7352
 Red. masses --      1.0914                 1.0954                 1.0982
 Frc consts  --      6.0803                 6.1258                 6.1648
 IR Inten    --     33.3216                54.6073                29.1792

                    115                    116                    117
                      A                      A                      A
 Frequencies --   3092.0435              3107.4359              3108.9558
 Red. masses --      1.1005                 1.1002                 1.1022
 Frc consts  --      6.1992                 6.2595                 6.2770
 IR Inten    --     91.8073                27.3684                25.5700

                    118                    119                    120
                      A                      A                      A
 Frequencies --   3109.7621              3113.8102              3127.9729
 Red. masses --      1.1010                 1.0943                 1.1007
 Frc consts  --      6.2730                 6.2515                 6.3451
 IR Inten    --     53.6816                52.5450                40.5687

                    121                    122                    123
                      A                      A                      A
 Frequencies --   3128.8653              3146.4821              3504.5842
 Red. masses --      1.0996                 1.0839                 1.0729
 Frc consts  --      6.3428                 6.3228                 7.7636
 IR Inten    --     45.4482                34.0196                 4.1811

 - Thermochemistry -
 -------------------
 Temperature   298.150 Kelvin.  Pressure   1.00000 Atm.
 Atom     1 has atomic number  6 and mass  12.00000

 Molecular mass:   212.22525 amu.
 Principal axes and moments of inertia in atomic units:
                           1         2         3
     Eigenvalues --  2870.408254170.830364314.63860
           X            0.99990  -0.01362  -0.00406
           Y            0.01393   0.99571   0.09149
           Z            0.00280  -0.09154   0.99580
 This molecule is an asymmetric top.
 Rotational symmetry number  1.
 Warning -- assumption of classical behavior for rotation
           may cause significant error
 Rotational temperatures (Kelvin)      0.03017     0.02077     0.02007
 Rotational constants (GHZ):           0.62874     0.43271     0.41828
 Zero-point vibrational energy    1066427.7 (Joules/Mol)
                                  254.88234 (Kcal/Mol)
 Warning -- explicit consideration of  26 degrees of freedom as
           vibrations may cause significant error
 Vibrational temperatures:     36.02    80.71    95.38   122.39   142.36
          (Kelvin)            170.20   205.12   223.89   262.17   296.57
                              318.66   326.62   358.79   383.84   405.99
                              421.61   463.67   482.22   518.45   554.10
                              592.14   646.86   722.75   738.12   759.48
                              832.37   968.59  1051.55  1103.76  1131.28
                             1158.90  1192.10  1220.79  1244.05  1254.32
                             1293.73  1307.63  1321.73  1340.33  1357.58
                             1407.09  1472.86  1492.60  1505.61  1521.69
                             1547.66  1563.29  1581.36  1596.29  1604.79
                             1616.24  1649.40  1658.52  1665.87  1706.56
                             1745.33  1762.75  1777.14  1794.46  1847.33
                             1877.83  1880.93  1897.10  1900.03  1929.26
                             1943.69  1966.74  1967.62  1997.33  2008.41
                             2011.78  2015.36  2021.16  2027.95  2036.47
                             2055.59  2075.38  2080.43  2097.13  2131.55
                             2153.86  2168.94  2175.13  2183.56  2186.57
                             2189.26  2190.73  2192.15  2201.11  2207.35
                             2211.18  2215.11  2221.79  2226.82  2229.36
                             4223.90  4271.42  4313.52  4346.13  4352.91
                             4364.47  4369.59  4371.73  4383.26  4384.90
                             4385.52  4385.96  4408.06  4409.77  4415.86
                             4421.56  4424.25  4432.61  4441.12  4448.76
                             4470.91  4473.09  4474.25  4480.08  4500.46
                             4501.74  4527.09  5042.32

 Zero-point correction=                           0.406181 (Hartree/Particle)
 Thermal correction to Energy=                    0.423518
 Thermal correction to Enthalpy=                  0.424462
 Thermal correction to Gibbs Free Energy=         0.361430
 Sum of electronic and zero-point Energies=           -621.404820
 Sum of electronic and thermal Energies=              -621.387483
 Sum of electronic and thermal Enthalpies=            -621.386538
 Sum of electronic and thermal Free Energies=         -621.449571

                     E (Thermal)             CV                S
                      KCal/Mol        Cal/Mol-Kelvin    Cal/Mol-Kelvin
 Total                  265.762             66.386            132.664
 Electronic               0.000              0.000              0.000
 Translational            0.889              2.981             41.961
 Rotational               0.889              2.981             32.313
 Vibrational            263.984             60.425             58.390
 Vibration     1          0.593              1.985              6.188
 Vibration     2          0.596              1.975              4.590
 Vibration     3          0.598              1.970              4.261
 Vibration     4          0.601              1.960              3.770
 Vibration     5          0.604              1.950              3.475
 Vibration     6          0.608              1.934              3.128
 Vibration     7          0.616              1.911              2.769
 Vibration     8          0.620              1.896              2.602
 Vibration     9          0.630              1.864              2.306
 Vibration    10          0.641              1.831              2.078
 Vibration    11          0.648              1.808              1.947
 Vibration    12          0.651              1.800              1.902
 Vibration    13          0.662              1.764              1.735
 Vibration    14          0.672              1.734              1.617
 Vibration    15          0.681              1.707              1.520
 Vibration    16          0.688              1.687              1.456
 Vibration    17          0.707              1.631              1.299
 Vibration    18          0.716              1.605              1.235
 Vibration    19          0.735              1.554              1.121
 Vibration    20          0.754              1.502              1.019
 Vibration    21          0.776              1.445              0.921
 Vibration    22          0.808              1.362              0.797
 Vibration    23          0.858              1.245              0.652
 Vibration    24          0.868              1.221              0.626
 Vibration    25          0.883              1.188              0.592
 Vibration    26          0.935              1.078              0.488

                           ! Non-Optimized Parameters !
 Normal termination of Gaussian 16 at Thu Dec 10 15:35:06 2020.

 ----------------------------------------------------------------------
 # B3LYP/6-311++G(d,p) empiricaldispersion=gd3bj scf=xqc pop=npa geom=c
 heck
 ----------------------------------------------------------------------

 --------------------------------------
 CID_61747217_JID_5260_Energie_neutraal
 --------------------------------------
 Structure from the checkpoint file:  "JID_5260.chk"
 Charge =  0 Multiplicity = 1

 SCF Done:  E(RB3LYP) =  -621.983800855     A.U. after   14 cycles
 Normal termination of Gaussian 16 at Thu Dec 10 15:46:15 2020.

 ----------------------------------------------------------------------
 # B3LYP/6-311++G(d,p) empiricaldispersion=gd3bj scf=xqc pop=npa geom=c
 heck
 ----------------------------------------------------------------------

 ------------------------------------
 CID_61747217_JID_5260_Energie_kation
 ------------------------------------
 Structure from the checkpoint file:  "JID_5260.chk"
 Charge =  1 Multiplicity = 2

 SCF Done:  E(UB3LYP) =  -621.726399546     A.U. after   20 cycles
 Normal termination of Gaussian 16 at Thu Dec 10 16:08:26 2020.
 Gaussian 16:  ES64L-G16RevA.03 25-Dec-2016

 ----------------------------------------------------------------------
 # B3LYP/6-311++G(d,p) empiricaldispersion=gd3bj scf=xqc pop=npa geom=c
 heck
 ----------------------------------------------------------------------

 -----------------------------------
 CID_61747217_JID_5260_Energie_anion
 -----------------------------------
 Structure from the checkpoint file:  "JID_5260.chk"
 Charge = -1 Multiplicity = 2

                         Standard orientation:
 ---------------------------------------------------------------------
 Center     Atomic      Atomic             Coordinates (Angstroms)
 Number     Number       Type             X           Y           Z
 ---------------------------------------------------------------------
      1          6           0        0.889196    2.426306    1.983096
      2          6           0        1.841264    1.229368    1.982898
      3          6           0        1.227373   -0.035343    1.365163
      4          7           0        0.759608    0.161432    0.001173
      5          6           0        1.786744    0.616860   -0.939987
      6          6           0        3.063594   -0.235735   -1.060173
      7          6           0        2.841384   -1.667986   -1.550965
      8          6           0       -0.247103   -0.759778   -0.573618
      9          6           0       -0.497710   -2.097006    0.166364
     10          6           0       -1.462348   -2.057554    1.365857
     11          6           0       -2.734860   -1.261492    1.057272
     12          6           0       -2.394375    0.120461    0.487802
     13          6           0       -1.587645   -0.017779   -0.815159
     14          7           0       -1.298541    1.229002   -1.518700
     15          6           0       -2.457952    1.982371   -1.971805
     16          1           0        0.620563    2.716393    0.962746
     17          1           0        1.340834    3.293746    2.477088
     18          1           0       -0.042003    2.185393    2.510655
     19          1           0        2.772705    1.494867    1.467959
     20          1           0        2.128880    0.982209    3.013258
     21          1           0        1.956399   -0.862066    1.459448
     22          1           0        0.369969   -0.309717    1.980379
     23          1           0        1.305188    0.707746   -1.917628
     24          1           0        2.087990    1.635952   -0.661084
     25          1           0        3.739091    0.286779   -1.751580
     26          1           0        3.585100   -0.259711   -0.094413
     27          1           0        2.336944   -1.680924   -2.524700
     28          1           0        3.793940   -2.198480   -1.661813
     29          1           0        2.224907   -2.240374   -0.850809
     30          1           0        0.120048   -1.031436   -1.567469
     31          1           0       -0.930865   -2.776115   -0.580498
     32          1           0        0.456741   -2.545398    0.464128
     33          1           0       -0.975453   -1.617967    2.243559
     34          1           0       -1.717064   -3.086753    1.649172
     35          1           0       -3.351036   -1.170799    1.960373
     36          1           0       -3.340525   -1.808824    0.319819
     37          1           0       -1.803700    0.697951    1.213204
     38          1           0       -3.314619    0.687005    0.306021
     39          1           0       -2.179002   -0.641171   -1.504841
     40          1           0       -0.715211    1.794775   -0.905449
     41          1           0       -3.151001    2.313561   -1.178446
     42          1           0       -2.117355    2.873572   -2.510168
     43          1           0       -3.034321    1.370582   -2.676685
 ---------------------------------------------------------------------

 SCF Done:  E(UB3LYP) =  -621.968583075     A.U. after   28 cycles

 The electronic state is 2-A.
 Alpha  occ. eigenvalues --  -14.19643 -14.19181 -10.09640 -10.09017 -10.08917
 Alpha  occ. eigenvalues --  -10.08916 -10.08738 -10.06834 -10.06828 -10.06689
 Alpha  occ. eigenvalues --  -10.06571 -10.06535 -10.06191 -10.06078 -10.05960
 Alpha  occ. eigenvalues --   -0.82674  -0.79593  -0.71857  -0.68462  -0.67129
 Alpha  occ. eigenvalues --   -0.63777  -0.63207  -0.59471  -0.56773  -0.55541
 Alpha  occ. eigenvalues --   -0.51297  -0.49887  -0.49498  -0.46615  -0.44334
 Alpha  occ. eigenvalues --   -0.40566  -0.38174  -0.37207  -0.36850  -0.35805
 Alpha  occ. eigenvalues --   -0.34989  -0.33964  -0.33579  -0.33155  -0.32520
 Alpha  occ. eigenvalues --   -0.32253  -0.30371  -0.30077  -0.28283  -0.28139
 Alpha  occ. eigenvalues --   -0.27727  -0.27132  -0.26624  -0.25883  -0.25216
 Alpha  occ. eigenvalues --   -0.24836  -0.24771  -0.24100  -0.23669  -0.22939
 Alpha  occ. eigenvalues --   -0.21445  -0.21246  -0.20681  -0.12600  -0.10039
 Alpha  occ. eigenvalues --    0.04273
 Alpha virt. eigenvalues --    0.06239   0.06437   0.06681   0.08014   0.08242
 Alpha virt. eigenvalues --    0.08505   0.08690   0.09203   0.10209   0.10634
 Alpha virt. eigenvalues --    0.10830   0.10907   0.11419   0.11795   0.12233

  Beta  occ. eigenvalues --  -14.19644 -14.19176 -10.09639 -10.09012 -10.08902
  Beta  occ. eigenvalues --  -10.08896 -10.08731 -10.06818 -10.06815 -10.06674
  Beta  occ. eigenvalues --  -10.06554 -10.06518 -10.06166 -10.06057 -10.05948
  Beta  occ. eigenvalues --   -0.82665  -0.79582  -0.71833  -0.68434  -0.67103
  Beta  occ. eigenvalues --   -0.63749  -0.63179  -0.59436  -0.56735  -0.55500
  Beta  occ. eigenvalues --   -0.51256  -0.49837  -0.49458  -0.46569  -0.44302
  Beta  occ. eigenvalues --   -0.40538  -0.38154  -0.37182  -0.36816  -0.35777
  Beta  occ. eigenvalues --   -0.34966  -0.33931  -0.33553  -0.33129  -0.32495
  Beta  occ. eigenvalues --   -0.32229  -0.30347  -0.30052  -0.28251  -0.28118
  Beta  occ. eigenvalues --   -0.27705  -0.27102  -0.26601  -0.25854  -0.25183
  Beta  occ. eigenvalues --   -0.24811  -0.24740  -0.24067  -0.23644  -0.22916
  Beta  occ. eigenvalues --   -0.21417  -0.21221  -0.20656  -0.12586  -0.10031
  Beta virt. eigenvalues --    0.06151   0.06866   0.07035   0.07279   0.08502
  Beta virt. eigenvalues --    0.08649   0.08763   0.09057   0.09528   0.10612
  Beta virt. eigenvalues --    0.10948   0.11105   0.11294   0.11690   0.12033

 Mulliken charges and spin densities:
               1          2
     1  C    0.546357  -0.993264
     2  C   -0.460758   0.019761
     3  C    0.092609  -0.230798
     4  N    0.011898   0.256774
     5  C    0.302964  -0.411557
     6  C   -0.729713   0.340057
     7  C    0.346107  -0.845008
     8  C    0.777977  -0.661906
     9  C   -0.021811  -0.436893
    10  C   -0.201460  -0.013515
    11  C    0.758268  -1.492960
    12  C   -0.060268   0.037060
    13  C   -1.662741   0.842053
    14  N    0.057593  -0.038827
    15  C    0.350761  -0.635845
    16  H   -0.151693   0.278671
    17  H   -0.290625   0.443894
    18  H   -0.105323   0.232398
    19  H    0.013991   0.117161
    20  H   -0.312809   0.471964
    21  H   -0.176835   0.334864
    22  H    0.982547  -0.901284
    23  H    0.090726   0.072181
    24  H    0.081277   0.076424
    25  H   -0.221666   0.375864
    26  H    0.071335   0.046114
    27  H    0.015214   0.112233
    28  H   -0.348583   0.510695
    29  H   -0.005766   0.155726
    30  H    0.417024  -0.215604
    31  H   -0.269518   0.442155
    32  H    0.061742   0.048450
    33  H   -0.411376   0.550721
    34  H   -0.447518   0.628979
    35  H   -0.289677   0.468562
    36  H    0.073935   0.049459
    37  H    0.153255   0.007513
    38  H   -0.009376   0.155318
    39  H   -0.135915   0.301291
    40  H    0.413440  -0.200319
    41  H   -0.100068   0.237898
    42  H   -0.105167   0.232499
    43  H   -0.100354   0.231039
 Sum of Mulliken charges =  -1.00000   1.00000

 Dipole moment (field-independent basis, Debye):
    X=             -0.0199    Y=              0.9463    Z=             -1.5342  Tot=              1.8027
 Quadrupole moment (field-independent basis, Debye-Ang):
   XX=           -165.2870   YY=           -153.5562   ZZ=           -149.6250
   XY=              0.2360   XZ=              2.8441   YZ=             -0.1799

 Summary of Natural Population Analysis:

                                       Natural Population
                Natural  -----------------------------------------------
    Atom  No    Charge         Core      Valence    Rydberg      Total
 -----------------------------------------------------------------------
      C    1   -0.28592      0.99966     2.28013    0.00613     3.28592
      C    2   -0.19302      0.99963     2.18578    0.00761     3.19302
      C    3   -0.08289      0.99959     2.07178    0.01151     3.08289
      N    4   -0.30355      0.99970     2.78891    0.01494     3.80355
      C    5   -0.08368      0.99960     2.07256    0.01152     3.08368
      C    6   -0.19991      0.99963     2.19282    0.00745     3.19991
      C    7   -0.28796      0.99966     2.28304    0.00526     3.28796
      C    8    0.00425      0.99954     1.98183    0.01438     2.99575
      C    9   -0.19814      0.99960     2.18973    0.00881     3.19814
      C   10   -0.18819      0.99962     2.18054    0.00803     3.18819
      C   11   -0.18806      0.99963     2.18002    0.00840     3.18806
      C   12   -0.20321      0.99960     2.19453    0.00908     3.20321
      C   13   -0.00568      0.99955     1.99280    0.01334     3.00568
      N   14   -0.34413      0.99973     2.83325    0.01115     3.84413
      C   15   -0.17532      0.99966     2.16897    0.00669     3.17532
      H   16    0.09698      0.00000     0.40142    0.00161     0.40302
      H   17    0.09708      0.00000     0.40206    0.00086     0.40292
      H   18    0.09611      0.00000     0.40272    0.00117     0.40389
      H   19    0.09323      0.00000     0.40555    0.00122     0.40677
      H   20    0.09695      0.00000     0.40203    0.00102     0.40305
      H   21    0.08255      0.00000     0.41590    0.00155     0.41745
      H   22    0.09613      0.00000     0.40177    0.00210     0.40387
      H   23    0.10251      0.00000     0.39588    0.00161     0.39749
      H   24    0.09133      0.00000     0.40748    0.00119     0.40867
      H   25    0.09480      0.00000     0.40408    0.00112     0.40520
      H   26    0.09414      0.00000     0.40465    0.00122     0.40586
      H   27    0.09486      0.00000     0.40412    0.00103     0.40514
      H   28    0.09848      0.00000     0.40062    0.00090     0.40152
      H   29    0.09766      0.00000     0.40088    0.00146     0.40234
      H   30    0.09807      0.00000     0.39976    0.00217     0.40193
      H   31    0.09987      0.00000     0.39897    0.00116     0.40013
      H   32    0.10318      0.00000     0.39554    0.00128     0.39682
      H   33    0.09173      0.00000     0.40657    0.00170     0.40827
      H   34    0.09929      0.00000     0.39945    0.00125     0.40071
      H   35    0.09897      0.00000     0.39999    0.00104     0.40103
      H   36    0.09157      0.00000     0.40709    0.00135     0.40843
      H   37    0.09617      0.00000     0.40177    0.00206     0.40383
      H   38    0.09923      0.00000     0.39953    0.00124     0.40077
      H   39    0.08786      0.00000     0.41040    0.00174     0.41214
      H   40    0.17680      0.00000     0.31944    0.00376     0.32320
      H   41    0.07816      0.00000     0.42005    0.00179     0.42184
      H   42    0.09233      0.00000     0.40671    0.00095     0.40767
      H   43    0.08939      0.00000     0.40939    0.00122     0.41061
 =======================================================================
   * Total *    0.00000     14.99440    44.82051    0.18509    60.00000

 Normal termination of Gaussian 16 at Thu Dec 10 16:38:24 2020.
