 Gaussian 16, Revision A.03,

 -----------------------------------------------------------
 # opt freq B3LYP/6-31G(d) empiricaldispersion=gd3bj scf=xqc
 -----------------------------------------------------------

 ------------------------------
 CID_91052944_JID_5432_neutraal
 ------------------------------
 Symbolic Z-matrix:
 Charge =  0 Multiplicity = 1

 SCF Done:  E(RB3LYP) =  -588.546051988     A.U. after   13 cycles
 SCF Done:  E(RB3LYP) =  -588.543912477     A.U. after   11 cycles
 SCF Done:  E(RB3LYP) =  -588.549377946     A.U. after   10 cycles
 SCF Done:  E(RB3LYP) =  -588.550173385     A.U. after   10 cycles
 SCF Done:  E(RB3LYP) =  -588.550267476     A.U. after   10 cycles
 SCF Done:  E(RB3LYP) =  -588.550482568     A.U. after    9 cycles
 SCF Done:  E(RB3LYP) =  -588.550741404     A.U. after   10 cycles
 SCF Done:  E(RB3LYP) =  -588.547723599     A.U. after   11 cycles
 SCF Done:  E(RB3LYP) =  -588.550342892     A.U. after   10 cycles
 SCF Done:  E(RB3LYP) =  -588.550817810     A.U. after    7 cycles
 SCF Done:  E(RB3LYP) =  -588.550958275     A.U. after    9 cycles
 SCF Done:  E(RB3LYP) =  -588.550962316     A.U. after    8 cycles
 SCF Done:  E(RB3LYP) =  -588.550962890     A.U. after    7 cycles
 SCF Done:  E(RB3LYP) =  -588.550963095     A.U. after    7 cycles
 SCF Done:  E(RB3LYP) =  -588.550963107     A.U. after    6 cycles
 Optimization completed.
    -- Stationary point found.
 Normal termination of Gaussian 16 at Thu Dec 10 16:10:44 2020.

 --------------------------------------------------------------------
 #N Geom=AllCheck Guess=TCheck SCRF=Check GenChk RB3LYP/6-31G(d) Freq
 --------------------------------------------------------------------

 Structure from the checkpoint file:  "JID_5432.chk"
 ------------------------------
 CID_91052944_JID_5432_neutraal
 ------------------------------
 Charge =  0 Multiplicity = 1

 SCF Done:  E(RB3LYP) =  -588.550963107     A.U. after    1 cycles

  Exact polarizability: 172.875  -0.505 143.140   0.394   0.647 136.284
 Approx polarizability: 215.061   2.527 209.732   1.075   1.049 209.926

                      1                      2                      3
                      A                      A                      A
 Frequencies --     43.5346                84.4549               143.2883
 Red. masses --      2.9877                 2.8872                 2.4308
 Frc consts  --      0.0033                 0.0121                 0.0294
 IR Inten    --      0.0333                 0.0104                 0.0243

                      4                      5                      6
                      A                      A                      A
 Frequencies --    155.4237               160.6896               190.4973
 Red. masses --      2.4795                 2.7658                 1.4488
 Frc consts  --      0.0353                 0.0421                 0.0310
 IR Inten    --      0.1052                 0.0756                 0.1058

                      7                      8                      9
                      A                      A                      A
 Frequencies --    211.0921               233.2823               246.3450
 Red. masses --      1.7643                 2.1126                 2.3167
 Frc consts  --      0.0463                 0.0677                 0.0828
 IR Inten    --      0.1179                 0.0748                 0.0127

                     10                     11                     12
                      A                      A                      A
 Frequencies --    274.5859               288.2248               294.6786
 Red. masses --      1.2573                 1.3223                 2.1377
 Frc consts  --      0.0559                 0.0647                 0.1094
 IR Inten    --      0.0052                 0.5529                 0.0705

                     13                     14                     15
                      A                      A                      A
 Frequencies --    304.2697               333.4134               349.8267
 Red. masses --      2.2053                 2.1681                 2.0378
 Frc consts  --      0.1203                 0.1420                 0.1469
 IR Inten    --      0.2399                 0.0431                 0.0063

                     16                     17                     18
                      A                      A                      A
 Frequencies --    379.4415               386.5476               426.4655
 Red. masses --      2.1355                 1.8889                 2.1967
 Frc consts  --      0.1812                 0.1663                 0.2354
 IR Inten    --      0.0952                 0.1243                 0.0693

                     19                     20                     21
                      A                      A                      A
 Frequencies --    427.7385               439.0806               468.0683
 Red. masses --      1.8904                 2.6519                 2.9500
 Frc consts  --      0.2038                 0.3012                 0.3808
 IR Inten    --      0.0675                 0.1176                 1.1868

                     22                     23                     24
                      A                      A                      A
 Frequencies --    489.7568               502.0692               540.1603
 Red. masses --      2.1398                 2.2593                 2.3680
 Frc consts  --      0.3024                 0.3355                 0.4071
 IR Inten    --      0.3819                 0.0912                 0.8411

                     25                     26                     27
                      A                      A                      A
 Frequencies --    644.4005               655.0628               738.5319
 Red. masses --      2.7004                 2.4741                 2.5335
 Frc consts  --      0.6607                 0.6255                 0.8142
 IR Inten    --      1.5926                 1.4918                 0.1686

                     28                     29                     30
                      A                      A                      A
 Frequencies --    751.5130               781.6402               807.3113
 Red. masses --      2.8186                 1.5489                 2.8277
 Frc consts  --      0.9379                 0.5576                 1.0858
 IR Inten    --      0.3899                 0.1153                 0.0487

                     31                     32                     33
                      A                      A                      A
 Frequencies --    838.1086               851.5047               879.7268
 Red. masses --      2.2127                 2.2477                 1.6432
 Frc consts  --      0.9157                 0.9602                 0.7493
 IR Inten    --      1.0215                 1.4505                 5.0210

                     34                     35                     36
                      A                      A                      A
 Frequencies --    885.6783               890.4347               915.9250
 Red. masses --      2.1495                 1.8798                 2.0281
 Frc consts  --      0.9934                 0.8781                 1.0025
 IR Inten    --      1.5689                 2.3935                 0.8308

                     37                     38                     39
                      A                      A                      A
 Frequencies --    946.0132               948.5957               960.4219
 Red. masses --      1.9763                 1.4736                 1.5219
 Frc consts  --      1.0421                 0.7813                 0.8271
 IR Inten    --      0.9624                 1.7370                 0.3396

                     40                     41                     42
                      A                      A                      A
 Frequencies --    966.1573               995.3333              1005.7259
 Red. masses --      1.9465                 1.6730                 1.8129
 Frc consts  --      1.0706                 0.9765                 1.0804
 IR Inten    --      0.2613                 0.3762                 5.6583

                     43                     44                     45
                      A                      A                      A
 Frequencies --   1023.2259              1033.9613              1046.4906
 Red. masses --      1.8362                 1.6603                 2.0091
 Frc consts  --      1.1327                 1.0458                 1.2963
 IR Inten    --      4.9820                 0.7924                 1.1581

                     46                     47                     48
                      A                      A                      A
 Frequencies --   1063.3959              1069.3992              1076.4474
 Red. masses --      1.6819                 1.6199                 1.5651
 Frc consts  --      1.1206                 1.0915                 1.0685
 IR Inten    --      1.1507                 0.4411                 0.4149

                     49                     50                     51
                      A                      A                      A
 Frequencies --   1082.1227              1100.1227              1125.7536
 Red. masses --      2.0769                 2.1156                 2.4939
 Frc consts  --      1.4329                 1.5086                 1.8621
 IR Inten    --      0.6090                 0.4377                 0.2774

                     52                     53                     54
                      A                      A                      A
 Frequencies --   1145.7576              1159.7881              1170.6431
 Red. masses --      1.2319                 1.1052                 1.3841
 Frc consts  --      0.9528                 0.8759                 1.1176
 IR Inten    --      1.2548                 1.6311                 1.1484

                     55                     56                     57
                      A                      A                      A
 Frequencies --   1177.6344              1189.4941              1215.9801
 Red. masses --      1.7590                 1.7660                 2.4444
 Frc consts  --      1.4373                 1.4722                 2.1295
 IR Inten    --      0.2803                 2.1579                 3.1491

                     58                     59                     60
                      A                      A                      A
 Frequencies --   1229.5458              1246.9814              1284.6684
 Red. masses --      2.2811                 1.5505                 1.7314
 Frc consts  --      2.0318                 1.4205                 1.6836
 IR Inten    --      4.2732                 0.8490                 3.0668

                     61                     62                     63
                      A                      A                      A
 Frequencies --   1300.4486              1307.6932              1320.6760
 Red. masses --      1.2892                 1.2394                 1.2847
 Frc consts  --      1.2846                 1.2487                 1.3202
 IR Inten    --      0.0501                 1.0663                 0.9216

                     64                     65                     66
                      A                      A                      A
 Frequencies --   1332.6325              1343.9137              1365.5859
 Red. masses --      1.2190                 1.4292                 1.4672
 Frc consts  --      1.2755                 1.5209                 1.6120
 IR Inten    --      0.5360                 6.9257                 0.1224

                     67                     68                     69
                      A                      A                      A
 Frequencies --   1366.0982              1377.3710              1390.6219
 Red. masses --      1.3959                 1.3355                 1.3464
 Frc consts  --      1.5348                 1.4928                 1.5340
 IR Inten    --      1.0326                 0.2519                 1.5304

                     70                     71                     72
                      A                      A                      A
 Frequencies --   1393.0892              1398.1597              1400.3376
 Red. masses --      1.3449                 1.4065                 1.4741
 Frc consts  --      1.5378                 1.6200                 1.7031
 IR Inten    --      0.1273                 0.1922                 4.6345

                     73                     74                     75
                      A                      A                      A
 Frequencies --   1402.4177              1408.2720              1413.1835
 Red. masses --      1.4118                 1.4116                 1.3970
 Frc consts  --      1.6359                 1.6495                 1.6438
 IR Inten    --      0.9953                 1.6191                 1.8917

                     76                     77                     78
                      A                      A                      A
 Frequencies --   1417.7360              1419.3291              1433.6549
 Red. masses --      1.3691                 1.3261                 1.2517
 Frc consts  --      1.6213                 1.5740                 1.5158
 IR Inten    --      0.6105                 3.2181                 7.1531

                     79                     80                     81
                      A                      A                      A
 Frequencies --   1439.5723              1445.1090              1460.8976
 Red. masses --      1.2701                 1.2622                 1.2437
 Frc consts  --      1.5508                 1.5530                 1.5639
 IR Inten    --      6.8034                12.0895                 5.7519

                     82                     83                     84
                      A                      A                      A
 Frequencies --   1506.1661              1511.0338              1513.1305
 Red. masses --      1.0853                 1.0787                 1.0801
 Frc consts  --      1.4505                 1.4512                 1.4570
 IR Inten    --      1.5517                 5.3621                 0.2678

                     85                     86                     87
                      A                      A                      A
 Frequencies --   1515.0787              1516.2428              1517.1148
 Red. masses --      1.0726                 1.0851                 1.0710
 Frc consts  --      1.4507                 1.4698                 1.4524
 IR Inten    --      1.2676                 1.0692                 2.5669

                     88                     89                     90
                      A                      A                      A
 Frequencies --   1521.5743              1529.9026              1531.5195
 Red. masses --      1.0753                 1.0871                 1.0734
 Frc consts  --      1.4667                 1.4992                 1.4834
 IR Inten    --      7.8629                 1.8072                 4.1373

                     91                     92                     93
                      A                      A                      A
 Frequencies --   1533.4273              1537.5098              1542.2385
 Red. masses --      1.0639                 1.0869                 1.0593
 Frc consts  --      1.4740                 1.5138                 1.4844
 IR Inten    --      5.2728                14.3950                 1.8610

                     94                     95                     96
                      A                      A                      A
 Frequencies --   1547.6814              1555.6430              2972.1116
 Red. masses --      1.0615                 1.0577                 1.0825
 Frc consts  --      1.4980                 1.5081                 5.6341
 IR Inten    --      1.8925                12.7774                12.3971

                     97                     98                     99
                      A                      A                      A
 Frequencies --   2997.7426              3006.5863              3018.1420
 Red. masses --      1.0818                 1.0758                 1.0637
 Frc consts  --      5.7278                 5.7295                 5.7086
 IR Inten    --     20.3630                10.0511                28.5342

                    100                    101                    102
                      A                      A                      A
 Frequencies --   3018.5626              3019.6072              3029.7875
 Red. masses --      1.0719                 1.0660                 1.0719
 Frc consts  --      5.7544                 5.7268                 5.7973
 IR Inten    --      3.6087                27.3486                82.9768

                    103                    104                    105
                      A                      A                      A
 Frequencies --   3030.1451              3042.6485              3046.4198
 Red. masses --      1.0703                 1.0631                 1.0537
 Frc consts  --      5.7903                 5.7987                 5.7614
 IR Inten    --     66.3410                47.4430                 7.3630

                    106                    107                    108
                      A                      A                      A
 Frequencies --   3047.6174              3048.9001              3050.2017
 Red. masses --      1.0559                 1.0686                 1.0432
 Frc consts  --      5.7781                 5.8527                 5.7186
 IR Inten    --     57.4517                55.3288                17.8512

                    109                    110                    111
                      A                      A                      A
 Frequencies --   3055.0927              3061.3222              3063.8461
 Red. masses --      1.0973                 1.0629                 1.0818
 Frc consts  --      6.0340                 5.8687                 5.9829
 IR Inten    --     17.5227                37.8698                40.2314

                    112                    113                    114
                      A                      A                      A
 Frequencies --   3069.1850              3081.4660              3084.4180
 Red. masses --      1.0951                 1.1003                 1.0917
 Frc consts  --      6.0778                 6.1556                 6.1193
 IR Inten    --     66.4573                40.2967                36.6096

                    115                    116                    117
                      A                      A                      A
 Frequencies --   3092.9009              3100.3639              3104.0812
 Red. masses --      1.0986                 1.1004                 1.0912
 Frc consts  --      6.1918                 6.2321                 6.1947
 IR Inten    --     66.2461                32.4209                35.6121

                    118                    119                    120
                      A                      A                      A
 Frequencies --   3106.1549              3111.6201              3124.8636
 Red. masses --      1.1011                 1.0930                 1.0945
 Frc consts  --      6.2590                 6.2350                 6.2970
 IR Inten    --     52.7058                91.2200                 8.3852

                    121                    122                    123
                      A                      A                      A
 Frequencies --   3136.7928              3150.4978              3184.7002
 Red. masses --      1.0969                 1.0984                 1.0909
 Frc consts  --      6.3592                 6.4237                 6.5189
 IR Inten    --     53.5210                23.1767                21.5826

 - Thermochemistry -
 -------------------
 Temperature   298.150 Kelvin.  Pressure   1.00000 Atm.
 Atom     1 has atomic number  6 and mass  12.00000

 Molecular mass:   208.21910 amu.
 Principal axes and moments of inertia in atomic units:
                           1         2         3
     Eigenvalues --  1712.534314610.372694939.32947
           X            0.99999  -0.00301   0.00330
           Y            0.00305   0.99991  -0.01323
           Z           -0.00326   0.01324   0.99991
 This molecule is an asymmetric top.
 Rotational symmetry number  1.
 Warning -- assumption of classical behavior for rotation
           may cause significant error
 Rotational temperatures (Kelvin)      0.05058     0.01879     0.01754
 Rotational constants (GHZ):           1.05384     0.39145     0.36538
 Zero-point vibrational energy    1074529.3 (Joules/Mol)
                                  256.81867 (Kcal/Mol)
 Warning -- explicit consideration of  24 degrees of freedom as
           vibrations may cause significant error
 Vibrational temperatures:     62.64   121.51   206.16   223.62   231.20
          (Kelvin)            274.08   303.71   335.64   354.44   395.07
                              414.69   423.98   437.78   479.71   503.32
                              545.93   556.16   613.59   615.42   631.74
                              673.45   704.65   722.37   777.17   927.15
                              942.49  1062.58  1081.26  1124.61  1161.54
                             1205.85  1225.13  1265.73  1274.29  1281.14
                             1317.81  1361.10  1364.82  1381.83  1390.08
                             1432.06  1447.02  1472.19  1487.64  1505.67
                             1529.99  1538.63  1548.77  1556.93  1582.83
                             1619.71  1648.49  1668.68  1684.29  1694.35
                             1711.42  1749.52  1769.04  1794.13  1848.35
                             1871.06  1881.48  1900.16  1917.36  1933.59
                             1964.77  1965.51  1981.73  2000.79  2004.34
                             2011.64  2014.77  2017.77  2026.19  2033.26
                             2039.81  2042.10  2062.71  2071.22  2079.19
                             2101.91  2167.04  2174.04  2177.06  2179.86
                             2181.54  2182.79  2189.21  2201.19  2203.51
                             2206.26  2212.13  2218.94  2226.77  2238.22
                             4276.21  4313.08  4325.81  4342.43  4343.04
                             4344.54  4359.19  4359.70  4377.69  4383.12
                             4384.84  4386.69  4388.56  4395.60  4404.56
                             4408.19  4415.87  4433.54  4437.79  4449.99
                             4460.73  4466.08  4469.06  4476.93  4495.98
                             4513.15  4532.86  4582.07

 Zero-point correction=                           0.409267 (Hartree/Particle)
 Thermal correction to Energy=                    0.424472
 Thermal correction to Enthalpy=                  0.425416
 Thermal correction to Gibbs Free Energy=         0.368894
 Sum of electronic and zero-point Energies=           -588.141697
 Sum of electronic and thermal Energies=              -588.126491
 Sum of electronic and thermal Enthalpies=            -588.125547
 Sum of electronic and thermal Free Energies=         -588.182070

                     E (Thermal)             CV                S
                      KCal/Mol        Cal/Mol-Kelvin    Cal/Mol-Kelvin
 Total                  266.360             63.268            118.962
 Electronic               0.000              0.000              0.000
 Translational            0.889              2.981             41.904
 Rotational               0.889              2.981             32.034
 Vibrational            264.583             57.306             45.024
 Vibration     1          0.595              1.980              5.091
 Vibration     2          0.601              1.960              3.785
 Vibration     3          0.616              1.910              2.759
 Vibration     4          0.620              1.897              2.605
 Vibration     5          0.622              1.891              2.542
 Vibration     6          0.634              1.853              2.223
 Vibration     7          0.643              1.824              2.034
 Vibration     8          0.654              1.790              1.854
 Vibration     9          0.661              1.769              1.757
 Vibration    10          0.677              1.720              1.567
 Vibration    11          0.685              1.696              1.484
 Vibration    12          0.689              1.684              1.447
 Vibration    13          0.695              1.666              1.393
 Vibration    14          0.715              1.609              1.243
 Vibration    15          0.727              1.576              1.167
 Vibration    16          0.749              1.514              1.041
 Vibration    17          0.755              1.499              1.013
 Vibration    18          0.788              1.413              0.870
 Vibration    19          0.789              1.410              0.866
 Vibration    20          0.799              1.385              0.829
 Vibration    21          0.825              1.321              0.743
 Vibration    22          0.846              1.273              0.684
 Vibration    23          0.857              1.245              0.653
 Vibration    24          0.895              1.161              0.565

 Optimization completed.
    -- Stationary point found.
 Normal termination of Gaussian 16 at Thu Dec 10 16:28:25 2020.

 ----------------------------------------------------------------------
 # B3LYP/6-311++G(d,p) empiricaldispersion=gd3bj scf=xqc pop=npa geom=c
 heck
 ----------------------------------------------------------------------

 --------------------------------------
 CID_91052944_JID_5432_Energie_neutraal
 --------------------------------------
 Structure from the checkpoint file:  "JID_5432.chk"
 Charge =  0 Multiplicity = 1

 SCF Done:  E(RB3LYP) =  -588.706551439     A.U. after   14 cycles
 Normal termination of Gaussian 16 at Thu Dec 10 16:39:20 2020.

 ----------------------------------------------------------------------
 # B3LYP/6-311++G(d,p) empiricaldispersion=gd3bj scf=xqc pop=npa geom=c
 heck
 ----------------------------------------------------------------------

 ------------------------------------
 CID_91052944_JID_5432_Energie_kation
 ------------------------------------
 Structure from the checkpoint file:  "JID_5432.chk"
 Charge =  1 Multiplicity = 2

 SCF Done:  E(UB3LYP) =  -588.367448431     A.U. after   33 cycles
 SCF Done:  E(UB3LYP) =  -588.367865280     a.u. after    7 cycles
 Normal termination of Gaussian 16 at Thu Dec 10 18:59:30 2020.
 Gaussian 16:  ES64L-G16RevA.03 25-Dec-2016

 ----------------------------------------------------------------------
 # B3LYP/6-311++G(d,p) empiricaldispersion=gd3bj scf=xqc pop=npa geom=c
 heck
 ----------------------------------------------------------------------

 -----------------------------------
 CID_91052944_JID_5432_Energie_anion
 -----------------------------------
 Structure from the checkpoint file:  "JID_5432.chk"
 Charge = -1 Multiplicity = 2

                         Standard orientation:
 ---------------------------------------------------------------------
 Center     Atomic      Atomic             Coordinates (Angstroms)
 Number     Number       Type             X           Y           Z
 ---------------------------------------------------------------------
      1          6           0        3.469286   -0.581707    1.358685
      2          6           0        3.212667   -0.057546   -0.061575
      3          6           0        2.650424   -1.139074   -0.994790
      4          6           0        1.171399   -1.403715   -0.711795
      5          6           0        0.282505   -0.149354   -0.873727
      6          6           0        0.766917    1.002304    0.071888
      7          6           0        2.303717    1.179658   -0.138366
      8          6           0        0.438858    0.761262    1.556662
      9          6           0        0.177112    2.368997   -0.334802
     10          6           0       -1.214158   -0.625884   -0.991928
     11          6           0       -1.753192   -1.661664    0.036235
     12          6           0       -2.542727   -1.110912    1.230510
     13          6           0       -3.655646   -0.166411    0.767780
     14          6           0       -3.066747    0.976353   -0.064512
     15          6           0       -2.293649    0.447608   -1.282998
     16          1           0        4.254977   -1.346490    1.344163
     17          1           0        2.582867   -1.033744    1.811158
     18          1           0        3.800452    0.226396    2.021333
     19          1           0        4.190748    0.254823   -0.455096
     20          1           0        2.760770   -0.807618   -2.037113
     21          1           0        3.227644   -2.067901   -0.896657
     22          1           0        1.068333   -1.808779    0.301579
     23          1           0        0.805180   -2.188850   -1.385487
     24          1           0        0.497328    0.241041   -1.882276
     25          1           0        2.656797    1.943264    0.567925
     26          1           0        2.439269    1.610194   -1.140934
     27          1           0        1.057356    1.401409    2.196370
     28          1           0       -0.605139    1.003137    1.769482
     29          1           0        0.605190   -0.273434    1.866297
     30          1           0        0.343313    2.567731   -1.400159
     31          1           0       -0.891430    2.447858   -0.139721
     32          1           0        0.670690    3.169302    0.230699
     33          1           0       -1.147806   -1.202512   -1.924872
     34          1           0       -2.439707   -2.317688   -0.518488
     35          1           0       -0.948293   -2.312508    0.389182
     36          1           0       -1.880726   -0.581102    1.922749
     37          1           0       -2.967101   -1.952296    1.793440
     38          1           0       -4.206780    0.232364    1.628586
     39          1           0       -4.380848   -0.727376    0.159568
     40          1           0       -2.417287    1.573553    0.584921
     41          1           0       -3.861439    1.650445   -0.408974
     42          1           0       -1.857930    1.275166   -1.853603
     43          1           0       -3.037025   -0.015887   -1.947681
 ---------------------------------------------------------------------

 SCF Done:  E(UB3LYP) =  -588.691922428     A.U. after   28 cycles

 The electronic state is 2-A.
 Alpha  occ. eigenvalues --  -10.08309 -10.07007 -10.06960 -10.06885 -10.06435
 Alpha  occ. eigenvalues --  -10.06408 -10.06171 -10.06120 -10.05977 -10.05959
 Alpha  occ. eigenvalues --  -10.05813 -10.05739 -10.05667 -10.05616 -10.05563
 Alpha  occ. eigenvalues --   -0.74960  -0.72508  -0.68516  -0.66906  -0.64081
 Alpha  occ. eigenvalues --   -0.62802  -0.59208  -0.57710  -0.57189  -0.51751
 Alpha  occ. eigenvalues --   -0.50643  -0.49104  -0.46956  -0.43693  -0.41040
 Alpha  occ. eigenvalues --   -0.38242  -0.37154  -0.36357  -0.35150  -0.34486
 Alpha  occ. eigenvalues --   -0.33993  -0.33261  -0.32237  -0.31857  -0.30613
 Alpha  occ. eigenvalues --   -0.29637  -0.28613  -0.28354  -0.28107  -0.27556
 Alpha  occ. eigenvalues --   -0.27159  -0.26299  -0.25338  -0.24906  -0.23874
 Alpha  occ. eigenvalues --   -0.23211  -0.22967  -0.22510  -0.21255  -0.20816
 Alpha  occ. eigenvalues --   -0.20225  -0.19119  -0.18486  -0.18175   0.04306
 Alpha virt. eigenvalues --    0.06148   0.06951   0.07179   0.08128   0.08315
 Alpha virt. eigenvalues --    0.08528   0.09257   0.09385   0.10408   0.10703
 Alpha virt. eigenvalues --    0.10821   0.11144   0.11372   0.12210   0.12689

  Beta  occ. eigenvalues --  -10.08309 -10.07000 -10.06951 -10.06877 -10.06421
  Beta  occ. eigenvalues --  -10.06397 -10.06156 -10.06110 -10.05964 -10.05945
  Beta  occ. eigenvalues --  -10.05795 -10.05725 -10.05650 -10.05590 -10.05550
  Beta  occ. eigenvalues --   -0.74939  -0.72482  -0.68492  -0.66881  -0.64054
  Beta  occ. eigenvalues --   -0.62769  -0.59177  -0.57674  -0.57150  -0.51712
  Beta  occ. eigenvalues --   -0.50603  -0.49063  -0.46920  -0.43649  -0.40999
  Beta  occ. eigenvalues --   -0.38202  -0.37113  -0.36326  -0.35131  -0.34457
  Beta  occ. eigenvalues --   -0.33966  -0.33237  -0.32214  -0.31831  -0.30584
  Beta  occ. eigenvalues --   -0.29605  -0.28588  -0.28331  -0.28087  -0.27529
  Beta  occ. eigenvalues --   -0.27132  -0.26278  -0.25311  -0.24880  -0.23844
  Beta  occ. eigenvalues --   -0.23184  -0.22937  -0.22485  -0.21228  -0.20786
  Beta  occ. eigenvalues --   -0.20199  -0.19091  -0.18457  -0.18147
  Beta virt. eigenvalues --    0.06233   0.06917   0.07479   0.07662   0.08569
  Beta virt. eigenvalues --    0.08770   0.08958   0.09600   0.09674   0.10766
  Beta virt. eigenvalues --    0.11067   0.11140   0.11486   0.11614   0.12519

 Mulliken charges and spin densities:
               1          2
     1  C    0.681166  -1.363289
     2  C   -1.140880   1.540067
     3  C    1.202834  -2.046091
     4  C   -0.125008  -0.037813
     5  C   -0.246413   0.202273
     6  C   -1.152604   1.771859
     7  C    1.090867  -1.675576
     8  C   -0.330003  -0.336861
     9  C    0.523231  -1.121477
    10  C    0.841473  -0.537862
    11  C   -0.485378  -0.119437
    12  C   -0.214498   0.120002
    13  C    0.406649  -1.051206
    14  C   -0.304901   0.232964
    15  C   -0.002508  -0.556978
    16  H   -0.253311   0.397543
    17  H   -0.206548   0.338130
    18  H   -0.033039   0.161634
    19  H   -0.395654   0.611532
    20  H   -0.049040   0.171531
    21  H   -0.224016   0.402344
    22  H    0.362689  -0.268228
    23  H   -0.136921   0.320310
    24  H    0.000471   0.219358
    25  H   -0.035914   0.204946
    26  H   -0.006951   0.146477
    27  H    0.008912   0.167435
    28  H    0.113868   0.014737
    29  H    0.208179  -0.068472
    30  H   -0.104151   0.264795
    31  H    0.100303  -0.004784
    32  H    0.015271   0.126150
    33  H   -0.066373   0.290727
    34  H   -0.179283   0.337451
    35  H   -0.214519   0.383779
    36  H   -0.033516   0.132000
    37  H   -0.094392   0.265057
    38  H   -0.121366   0.293891
    39  H   -0.005325   0.128279
    40  H   -0.004848   0.063762
    41  H   -0.145880   0.328818
    42  H    0.023465   0.114675
    43  H   -0.266139   0.435549
 Sum of Mulliken charges =  -1.00000   1.00000

 Dipole moment (field-independent basis, Debye):
    X=             -1.1914    Y=              1.7537    Z=              1.6039  Tot=              2.6585
 Quadrupole moment (field-independent basis, Debye-Ang):
   XX=           -182.2761   YY=           -142.0669   ZZ=           -141.2349
   XY=              0.1833   XZ=             -1.6791   YZ=             -0.5065

 Summary of Natural Population Analysis:

                                       Natural Population
                Natural  -----------------------------------------------
    Atom  No    Charge         Core      Valence    Rydberg      Total
 -----------------------------------------------------------------------
      C    1   -0.28440      0.99964     2.27870    0.00606     3.28440
      C    2   -0.11191      0.99959     2.10125    0.01107     3.11191
      C    3   -0.18311      0.99961     2.17456    0.00894     3.18311
      C    4   -0.19256      0.99960     2.18371    0.00924     3.19256
      C    5   -0.09986      0.99954     2.08684    0.01348     3.09986
      C    6   -0.04294      0.99955     2.03159    0.01180     3.04294
      C    7   -0.18253      0.99958     2.17182    0.01113     3.18253
      C    8   -0.28633      0.99962     2.27999    0.00672     3.28633
      C    9   -0.28165      0.99963     2.27507    0.00696     3.28165
      C   10   -0.10554      0.99956     2.09297    0.01301     3.10554
      C   11   -0.18981      0.99960     2.18160    0.00860     3.18981
      C   12   -0.19125      0.99962     2.18398    0.00765     3.19125
      C   13   -0.18713      0.99963     2.17993    0.00756     3.18713
      C   14   -0.19081      0.99962     2.18362    0.00758     3.19081
      C   15   -0.18998      0.99961     2.18137    0.00900     3.18998
      H   16    0.09857      0.00000     0.40042    0.00101     0.40143
      H   17    0.09561      0.00000     0.40329    0.00110     0.40439
      H   18    0.09783      0.00000     0.40126    0.00091     0.40217
      H   19    0.09556      0.00000     0.40272    0.00171     0.40444
      H   20    0.09599      0.00000     0.40263    0.00138     0.40401
      H   21    0.09814      0.00000     0.40077    0.00109     0.40186
      H   22    0.09384      0.00000     0.40449    0.00167     0.40616
      H   23    0.10119      0.00000     0.39769    0.00113     0.39881
      H   24    0.09620      0.00000     0.40173    0.00207     0.40380
      H   25    0.09759      0.00000     0.40134    0.00107     0.40241
      H   26    0.09898      0.00000     0.39965    0.00137     0.40102
      H   27    0.09914      0.00000     0.40009    0.00077     0.40086
      H   28    0.09750      0.00000     0.40135    0.00115     0.40250
      H   29    0.09967      0.00000     0.39930    0.00103     0.40033
      H   30    0.09933      0.00000     0.39976    0.00091     0.40067
      H   31    0.09928      0.00000     0.39959    0.00114     0.40072
      H   32    0.09712      0.00000     0.40208    0.00080     0.40288
      H   33    0.09851      0.00000     0.39962    0.00187     0.40149
      H   34    0.09577      0.00000     0.40287    0.00136     0.40423
      H   35    0.10103      0.00000     0.39774    0.00123     0.39897
      H   36    0.09401      0.00000     0.40433    0.00166     0.40599
      H   37    0.09606      0.00000     0.40302    0.00092     0.40394
      H   38    0.09567      0.00000     0.40343    0.00090     0.40433
      H   39    0.09195      0.00000     0.40671    0.00134     0.40805
      H   40    0.09038      0.00000     0.40795    0.00168     0.40962
      H   41    0.09675      0.00000     0.40230    0.00094     0.40325
      H   42    0.10122      0.00000     0.39771    0.00107     0.39878
      H   43    0.09692      0.00000     0.40176    0.00131     0.40308
 =======================================================================
   * Total *    0.00000     14.99399    43.83264    0.17337    59.00000

 Normal termination of Gaussian 16 at Thu Dec 10 19:19:22 2020.
