 Gaussian 16, Revision A.03,

 -----------------------------------------------------------
 # opt freq B3LYP/6-31G(d) empiricaldispersion=gd3bj scf=xqc
 -----------------------------------------------------------

 -------------------------------
 CID_116830905_JID_6285_neutraal
 -------------------------------
 Symbolic Z-matrix:
 Charge =  0 Multiplicity = 1

 SCF Done:  E(RB3LYP) =  -1068.55955139     A.U. after   15 cycles
 SCF Done:  E(RB3LYP) =  -1068.56371783     A.U. after   13 cycles
 SCF Done:  E(RB3LYP) =  -1068.56185977     A.U. after   12 cycles
 SCF Done:  E(RB3LYP) =  -1068.56430543     A.U. after   12 cycles
 SCF Done:  E(RB3LYP) =  -1068.56472085     A.U. after   12 cycles
 SCF Done:  E(RB3LYP) =  -1068.56458999     A.U. after   12 cycles
 SCF Done:  E(RB3LYP) =  -1068.56477411     A.U. after   12 cycles
 SCF Done:  E(RB3LYP) =  -1068.56479251     A.U. after   10 cycles
 SCF Done:  E(RB3LYP) =  -1068.56479436     A.U. after    8 cycles
 SCF Done:  E(RB3LYP) =  -1068.56479553     A.U. after    8 cycles
 SCF Done:  E(RB3LYP) =  -1068.56479635     A.U. after    8 cycles
 SCF Done:  E(RB3LYP) =  -1068.56479673     A.U. after    8 cycles
 SCF Done:  E(RB3LYP) =  -1068.56479713     A.U. after    7 cycles
 SCF Done:  E(RB3LYP) =  -1068.56479736     A.U. after    8 cycles
 SCF Done:  E(RB3LYP) =  -1068.56479744     A.U. after    7 cycles
 SCF Done:  E(RB3LYP) =  -1068.56479748     A.U. after    7 cycles
 Optimization completed.
    -- Stationary point found.
 Normal termination of Gaussian 16 at Thu Dec 10 22:07:17 2020.

 --------------------------------------------------------------------
 #N Geom=AllCheck Guess=TCheck SCRF=Check GenChk RB3LYP/6-31G(d) Freq
 --------------------------------------------------------------------

 Structure from the checkpoint file:  "JID_6285.chk"
 -------------------------------
 CID_116830905_JID_6285_neutraal
 -------------------------------
 Charge =  0 Multiplicity = 1

 SCF Done:  E(RB3LYP) =  -1068.56479748     A.U. after    1 cycles

  Exact polarizability: 221.383  14.213 133.050 -16.322  13.471 106.260
 Approx polarizability: 297.866  33.689 241.502 -24.968  45.193 174.343

                      1                      2                      3
                      A                      A                      A
 Frequencies --     23.0837                39.2072                62.5426
 Red. masses --      6.1405                 5.2409                 3.7426
 Frc consts  --      0.0019                 0.0047                 0.0086
 IR Inten    --      0.4578                 2.7984                 1.9319

                      4                      5                      6
                      A                      A                      A
 Frequencies --     86.8684                96.2237               120.6282
 Red. masses --      4.0436                 2.3589                 1.1648
 Frc consts  --      0.0180                 0.0129                 0.0100
 IR Inten    --      0.6517                 3.2578                 0.1658

                      7                      8                      9
                      A                      A                      A
 Frequencies --    138.9752               170.4690               177.6606
 Red. masses --      2.9603                 3.1712                 1.8056
 Frc consts  --      0.0337                 0.0543                 0.0336
 IR Inten    --      1.0590                 5.4486                 0.9622

                     10                     11                     12
                      A                      A                      A
 Frequencies --    209.2565               258.5106               282.8519
 Red. masses --      3.5079                 3.0679                 5.2802
 Frc consts  --      0.0905                 0.1208                 0.2489
 IR Inten    --      2.4418                 1.1913                 1.6938

                     13                     14                     15
                      A                      A                      A
 Frequencies --    286.3524               318.7797               333.5675
 Red. masses --      4.1369                 3.1547                 4.6421
 Frc consts  --      0.1999                 0.1889                 0.3043
 IR Inten    --      2.6340                 3.1880                 0.2898

                     16                     17                     18
                      A                      A                      A
 Frequencies --    390.5245               436.3897               446.9981
 Red. masses --      3.1461                 3.4326                 4.0790
 Frc consts  --      0.2827                 0.3851                 0.4802
 IR Inten    --      1.7587                 2.6969                 3.2099

                     19                     20                     21
                      A                      A                      A
 Frequencies --    513.6804               544.2172               587.3056
 Red. masses --      4.3492                 4.1032                 4.0781
 Frc consts  --      0.6761                 0.7160                 0.8288
 IR Inten    --      1.0366                11.9434                 4.6126

                     22                     23                     24
                      A                      A                      A
 Frequencies --    613.2304               655.1298               668.9655
 Red. masses --      3.8686                 4.8010                 5.0685
 Frc consts  --      0.8571                 1.2140                 1.3364
 IR Inten    --      6.4660                 9.9973                 2.4550

                     25                     26                     27
                      A                      A                      A
 Frequencies --    695.5351               710.1033               726.2640
 Red. masses --      5.4685                 4.9498                 5.9410
 Frc consts  --      1.5587                 1.4705                 1.8463
 IR Inten    --      0.4916                 7.6368                 1.2708

                     28                     29                     30
                      A                      A                      A
 Frequencies --    746.1402               769.0572               825.5400
 Red. masses --      2.7063                 4.9832                 1.5082
 Frc consts  --      0.8877                 1.7365                 0.6056
 IR Inten    --      9.4729                 0.1235                32.2185

                     31                     32                     33
                      A                      A                      A
 Frequencies --    862.0773               883.0029               926.4189
 Red. masses --      4.9370                 3.1240                 2.7358
 Frc consts  --      2.1617                 1.4351                 1.3834
 IR Inten    --     48.2480                 5.3168                32.6328

                     34                     35                     36
                      A                      A                      A
 Frequencies --    932.8987               945.3338               951.8099
 Red. masses --      3.3112                 1.5291                 1.5704
 Frc consts  --      1.6978                 0.8051                 0.8382
 IR Inten    --     12.0731                 9.2288                 5.7054

                     37                     38                     39
                      A                      A                      A
 Frequencies --    968.4069               990.8570               999.1470
 Red. masses --      1.6539                 1.5805                 1.5299
 Frc consts  --      0.9138                 0.9142                 0.8998
 IR Inten    --      3.4278                 6.3352                 4.8616

                     40                     41                     42
                      A                      A                      A
 Frequencies --   1038.1762              1049.8357              1062.8107
 Red. masses --      1.7106                 1.9151                 2.2377
 Frc consts  --      1.0863                 1.2436                 1.4893
 IR Inten    --      9.2202                 0.6500                10.2076

                     43                     44                     45
                      A                      A                      A
 Frequencies --   1079.6724              1154.3764              1156.3810
 Red. masses --      1.5329                 1.5534                 2.0254
 Frc consts  --      1.0528                 1.2196                 1.5958
 IR Inten    --      3.5762                53.4368                63.4954

                     46                     47                     48
                      A                      A                      A
 Frequencies --   1205.7715              1226.9991              1244.1329
 Red. masses --      1.8707                 1.4027                 1.7114
 Frc consts  --      1.6024                 1.2442                 1.5607
 IR Inten    --     28.8199                20.4553                 3.9626

                     49                     50                     51
                      A                      A                      A
 Frequencies --   1286.8818              1303.5178              1315.2077
 Red. masses --      2.8989                 3.4463                 2.0944
 Frc consts  --      2.8285                 3.4501                 2.1345
 IR Inten    --    152.0982               115.2021                 4.2358

                     52                     53                     54
                      A                      A                      A
 Frequencies --   1331.1771              1376.4112              1396.4071
 Red. masses --      1.2364                 1.5857                 1.1613
 Frc consts  --      1.2908                 1.7700                 1.3342
 IR Inten    --     19.0069                39.8168                 9.7461

                     55                     56                     57
                      A                      A                      A
 Frequencies --   1402.0687              1438.3760              1477.5870
 Red. masses --      5.0556                 1.3617                 3.6647
 Frc consts  --      5.8555                 1.6599                 4.7141
 IR Inten    --      8.4303                 6.4701                76.8133

                     58                     59                     60
                      A                      A                      A
 Frequencies --   1485.5518              1497.3340              1502.1069
 Red. masses --      1.0811                 1.0565                 1.4797
 Frc consts  --      1.4058                 1.3956                 1.9671
 IR Inten    --     12.0521                 9.6308                 7.5849

                     61                     62                     63
                      A                      A                      A
 Frequencies --   1502.2690              1506.6457              1517.1668
 Red. masses --      1.0472                 1.1516                 1.0632
 Frc consts  --      1.3925                 1.5402                 1.4419
 IR Inten    --      8.2493                 8.8768                 2.8453

                     64                     65                     66
                      A                      A                      A
 Frequencies --   1525.2144              1633.5035              1657.2082
 Red. masses --      1.6299                 7.3616                 7.7878
 Frc consts  --      2.2339                11.5735                12.6013
 IR Inten    --     14.9208                10.7378                 2.4780

                     67                     68                     69
                      A                      A                      A
 Frequencies --   1688.0008              1762.6227              3060.7378
 Red. masses --      8.1021                11.3455                 1.0671
 Frc consts  --     13.6016                20.7679                 5.8901
 IR Inten    --    117.9657               143.5268                11.3937

                     70                     71                     72
                      A                      A                      A
 Frequencies --   3064.1274              3070.2987              3078.4681
 Red. masses --      1.0383                 1.0318                 1.0579
 Frc consts  --      5.7438                 5.7308                 5.9071
 IR Inten    --     11.9144                14.2393                25.4970

                     73                     74                     75
                      A                      A                      A
 Frequencies --   3119.5078              3127.4251              3142.9000
 Red. masses --      1.1011                 1.1049                 1.0975
 Frc consts  --      6.3132                 6.3670                 6.3870
 IR Inten    --      6.5867                 4.1615                15.7377

                     76                     77                     78
                      A                      A                      A
 Frequencies --   3154.9602              3166.0152              3178.6534
 Red. masses --      1.1052                 1.1058                 1.1007
 Frc consts  --      6.4816                 6.5308                 6.5523
 IR Inten    --      5.9974                 7.7250                 2.5337

                     79                     80                     81
                      A                      A                      A
 Frequencies --   3225.5627              3239.7476              3243.9745
 Red. masses --      1.0892                 1.0933                 1.0915
 Frc consts  --      6.6766                 6.7610                 6.7677
 IR Inten    --      1.4051                 3.0474                 1.5920

 - Thermochemistry -
 -------------------
 Temperature   298.150 Kelvin.  Pressure   1.00000 Atm.
 Atom     1 has atomic number  6 and mass  12.00000

 Molecular mass:   235.06670 amu.
 Principal axes and moments of inertia in atomic units:
                           1         2         3
     Eigenvalues --  1569.727147899.114218450.24534
           X            0.99998   0.00494  -0.00356
           Y           -0.00501   0.99980  -0.01928
           Z            0.00346   0.01930   0.99981
 This molecule is an asymmetric top.
 Rotational symmetry number  1.
 Warning -- assumption of classical behavior for rotation
           may cause significant error
 Rotational temperatures (Kelvin)      0.05518     0.01097     0.01025
 Rotational constants (GHZ):           1.14972     0.22847     0.21357
 Zero-point vibrational energy     604651.3 (Joules/Mol)
                                  144.51513 (Kcal/Mol)
 Warning -- explicit consideration of  22 degrees of freedom as
           vibrations may cause significant error
 Vibrational temperatures:     33.21    56.41    89.98   124.98   138.44
          (Kelvin)            173.56   199.95   245.27   255.61   301.07
                              371.94   406.96   412.00   458.65   479.93
                              561.88   627.87   643.13   739.07   783.01
                              845.00   882.30   942.59   962.49  1000.72
                             1021.68  1044.93  1073.53  1106.50  1187.77
                             1240.34  1270.44  1332.91  1342.23  1360.12
                             1369.44  1393.32  1425.62  1437.55  1493.70
                             1510.48  1529.15  1553.41  1660.89  1663.77
                             1734.84  1765.38  1790.03  1851.54  1875.47
                             1892.29  1915.27  1980.35  2009.12  2017.26
                             2069.50  2125.92  2137.38  2154.33  2161.20
                             2161.43  2167.73  2182.86  2194.44  2350.25
                             2384.35  2428.66  2536.02  4403.72  4408.60
                             4417.47  4429.23  4488.28  4499.67  4521.93
                             4539.28  4555.19  4573.37  4640.87  4661.27
                             4667.36

 Zero-point correction=                           0.230300 (Hartree/Particle)
 Thermal correction to Energy=                    0.245608
 Thermal correction to Enthalpy=                  0.246552
 Thermal correction to Gibbs Free Energy=         0.186008
 Sum of electronic and zero-point Energies=          -1068.334498
 Sum of electronic and thermal Energies=             -1068.319190
 Sum of electronic and thermal Enthalpies=           -1068.318245
 Sum of electronic and thermal Free Energies=        -1068.378789

                     E (Thermal)             CV                S
                      KCal/Mol        Cal/Mol-Kelvin    Cal/Mol-Kelvin
 Total                  154.121             56.720            127.425
 Electronic               0.000              0.000              0.000
 Translational            0.889              2.981             42.266
 Rotational               0.889              2.981             33.016
 Vibrational            152.344             50.758             52.144
 Vibration     1          0.593              1.985              6.349
 Vibration     2          0.594              1.981              5.299
 Vibration     3          0.597              1.972              4.375
 Vibration     4          0.601              1.958              3.729
 Vibration     5          0.603              1.952              3.529
 Vibration     6          0.609              1.932              3.090
 Vibration     7          0.615              1.914              2.818
 Vibration     8          0.626              1.879              2.430
 Vibration     9          0.628              1.870              2.353
 Vibration    10          0.642              1.827              2.050
 Vibration    11          0.667              1.748              1.672
 Vibration    12          0.682              1.705              1.516
 Vibration    13          0.684              1.699              1.495
 Vibration    14          0.705              1.638              1.316
 Vibration    15          0.715              1.608              1.243
 Vibration    16          0.758              1.490              0.998
 Vibration    17          0.797              1.391              0.838
 Vibration    18          0.806              1.368              0.805
 Vibration    19          0.869              1.220              0.625
 Vibration    20          0.899              1.152              0.556
 Vibration    21          0.944              1.059              0.472
 Vibration    22          0.973              1.004              0.427

 Optimization completed.
    -- Stationary point found.
 Normal termination of Gaussian 16 at Thu Dec 10 22:17:01 2020.

 ----------------------------------------------------------------------
 # B3LYP/6-311++G(d,p) empiricaldispersion=gd3bj scf=xqc pop=npa geom=c
 heck
 ----------------------------------------------------------------------

 ---------------------------------------
 CID_116830905_JID_6285_Energie_neutraal
 ---------------------------------------
 Structure from the checkpoint file:  "JID_6285.chk"
 Charge =  0 Multiplicity = 1

 SCF Done:  E(RB3LYP) =  -1068.77088977     A.U. after   17 cycles
 Normal termination of Gaussian 16 at Thu Dec 10 22:21:13 2020.

 ----------------------------------------------------------------------
 # B3LYP/6-311++G(d,p) empiricaldispersion=gd3bj scf=xqc pop=npa geom=c
 heck
 ----------------------------------------------------------------------

 -------------------------------------
 CID_116830905_JID_6285_Energie_kation
 -------------------------------------
 Structure from the checkpoint file:  "JID_6285.chk"
 Charge =  1 Multiplicity = 2

 SCF Done:  E(UB3LYP) =  -1068.47012962     A.U. after   32 cycles
 Normal termination of Gaussian 16 at Thu Dec 10 22:32:23 2020.
 Gaussian 16:  ES64L-G16RevA.03 25-Dec-2016

 ----------------------------------------------------------------------
 # B3LYP/6-311++G(d,p) empiricaldispersion=gd3bj scf=xqc pop=npa geom=c
 heck
 ----------------------------------------------------------------------

 ------------------------------------
 CID_116830905_JID_6285_Energie_anion
 ------------------------------------
 Structure from the checkpoint file:  "JID_6285.chk"
 Charge = -1 Multiplicity = 2

                         Standard orientation:
 ---------------------------------------------------------------------
 Center     Atomic      Atomic             Coordinates (Angstroms)
 Number     Number       Type             X           Y           Z
 ---------------------------------------------------------------------
      1          6           0       -5.510183   -0.213200    0.523379
      2          6           0       -4.058061   -0.037490    0.272995
      3          7           0       -3.291060    0.941889    0.624362
      4          6           0       -2.025621    0.594577    0.133664
      5          6           0       -2.124593   -0.645830   -0.519293
      6          8           0       -3.428904   -1.054354   -0.431756
      7          6           0       -1.052501   -1.287007   -1.118656
      8          6           0        0.169244   -0.615843   -1.059252
      9          6           0        0.303581    0.632964   -0.410963
     10          6           0       -0.801473    1.245326    0.203883
     11          6           0        1.616518    1.337702   -0.307047
     12          8           0        1.767240    2.266483    0.475541
     13          6           0        2.799671    0.910559   -1.170087
     14          6           0        3.931645    0.295539   -0.331903
     15         16           0        3.604635   -1.381378    0.335328
     16          6           0        2.607200   -0.994160    1.818549
     17          1           0       -5.881925    0.647330    1.080988
     18          1           0       -5.696319   -1.127033    1.098451
     19          1           0       -6.058534   -0.298757   -0.421315
     20          1           0       -1.154324   -2.251873   -1.602283
     21          1           0        1.042212   -1.093175   -1.487425
     22          1           0       -0.678361    2.194684    0.711456
     23          1           0        2.517265    0.234466   -1.978956
     24          1           0        3.181956    1.832945   -1.624986
     25          1           0        4.824097    0.180623   -0.954114
     26          1           0        4.184264    0.966082    0.495430
     27          1           0        3.097759   -0.222957    2.418688
     28          1           0        1.595632   -0.673461    1.563149
     29          1           0        2.550278   -1.915906    2.403242
 ---------------------------------------------------------------------

 SCF Done:  E(UB3LYP) =  -1068.78437570     A.U. after   28 cycles

 The electronic state is 2-A.
 Alpha  occ. eigenvalues --  -88.72170 -19.07264 -18.92031 -14.19118 -10.14941
 Alpha  occ. eigenvalues --  -10.09236 -10.08994 -10.07804 -10.07434 -10.06579
 Alpha  occ. eigenvalues --  -10.06418 -10.04627 -10.04263 -10.03772 -10.02373
 Alpha  occ. eigenvalues --  -10.01585  -7.80772  -5.77172  -5.76803  -5.76145
 Alpha  occ. eigenvalues --   -1.00378  -0.86225  -0.80532  -0.72249  -0.68818
 Alpha  occ. eigenvalues --   -0.66881  -0.62576  -0.61558  -0.59511  -0.54606
 Alpha  occ. eigenvalues --   -0.50717  -0.48271  -0.46733  -0.46269  -0.41651
 Alpha  occ. eigenvalues --   -0.38219  -0.37170  -0.36846  -0.35273  -0.32758
 Alpha  occ. eigenvalues --   -0.32356  -0.31812  -0.31244  -0.30940  -0.30323
 Alpha  occ. eigenvalues --   -0.29913  -0.29025  -0.28325  -0.26303  -0.24922
 Alpha  occ. eigenvalues --   -0.24015  -0.23292  -0.22067  -0.21492  -0.21173
 Alpha  occ. eigenvalues --   -0.20174  -0.18501  -0.17290  -0.11420  -0.10986
 Alpha  occ. eigenvalues --   -0.10815  -0.08500   0.04296
 Alpha virt. eigenvalues --    0.06854   0.08418   0.09033   0.09363   0.09800
 Alpha virt. eigenvalues --    0.10767   0.10980   0.11254   0.11743   0.12590
 Alpha virt. eigenvalues --    0.12732   0.13264   0.14255   0.14346   0.14757

  Beta  occ. eigenvalues --  -88.72169 -19.07280 -18.91539 -14.19053 -10.14902
  Beta  occ. eigenvalues --  -10.09241 -10.08749 -10.07746 -10.07433 -10.06677
  Beta  occ. eigenvalues --  -10.06035 -10.04630 -10.04239 -10.03808 -10.02316
  Beta  occ. eigenvalues --  -10.01195  -7.80771  -5.77169  -5.76804  -5.76144
  Beta  occ. eigenvalues --   -1.00308  -0.85298  -0.80459  -0.71998  -0.68737
  Beta  occ. eigenvalues --   -0.66786  -0.62412  -0.61121  -0.59280  -0.54395
  Beta  occ. eigenvalues --   -0.50428  -0.48112  -0.46602  -0.46060  -0.41189
  Beta  occ. eigenvalues --   -0.38083  -0.36966  -0.36597  -0.35165  -0.32539
  Beta  occ. eigenvalues --   -0.32294  -0.31624  -0.31141  -0.30731  -0.30175
  Beta  occ. eigenvalues --   -0.29768  -0.28845  -0.28247  -0.25930  -0.24774
  Beta  occ. eigenvalues --   -0.23644  -0.22564  -0.21820  -0.21291  -0.20655
  Beta  occ. eigenvalues --   -0.19496  -0.17403  -0.17184  -0.10930  -0.10273
  Beta  occ. eigenvalues --   -0.09610  -0.08046
  Beta virt. eigenvalues --    0.06834   0.08333   0.09113   0.09398   0.09755
  Beta virt. eigenvalues --    0.10808   0.10928   0.11107   0.11302   0.11736
  Beta virt. eigenvalues --    0.12536   0.12738   0.13232   0.14226   0.14601

 Mulliken charges and spin densities:
               1          2
     1  C   -0.146513  -0.013292
     2  C    0.282941   0.013321
     3  N   -0.078685   0.030072
     4  C   -0.072092  -0.058713
     5  C   -0.072213   0.123067
     6  O   -0.116610  -0.008780
     7  C   -0.683988   0.009534
     8  C   -0.692225  -0.022374
     9  C    1.025273   0.054745
    10  C   -0.365108   0.343249
    11  C   -0.620099   0.184396
    12  O   -0.361042   0.182906
    13  C    0.059836   0.119729
    14  C   -0.403460  -0.331589
    15  S    0.187852   0.054607
    16  C   -0.701983  -0.002386
    17  H    0.163058   0.000388
    18  H    0.150236   0.001455
    19  H    0.147002   0.004717
    20  H    0.144062  -0.001037
    21  H    0.074274   0.000637
    22  H    0.201376  -0.021198
    23  H    0.113982   0.030065
    24  H    0.031690   0.153871
    25  H    0.034078   0.165520
    26  H    0.211488  -0.020594
    27  H    0.167500   0.000307
    28  H    0.169582   0.006584
    29  H    0.149786   0.000794
 Sum of Mulliken charges =  -1.00000   1.00000

 Dipole moment (field-independent basis, Debye):
    X=             -3.6238    Y=             -4.3675    Z=             -0.2611  Tot=              5.6811
 Quadrupole moment (field-independent basis, Debye-Ang):
   XX=           -140.1509   YY=           -128.5197   ZZ=           -111.0942
   XY=              0.8423   XZ=             -0.0929   YZ=             -4.1728

 Summary of Natural Population Analysis:

                                       Natural Population
                Natural  -----------------------------------------------
    Atom  No    Charge         Core      Valence    Rydberg      Total
 -----------------------------------------------------------------------
      C    1   -0.32275      0.99965     2.31408    0.00902     3.32275
      C    2    0.29088      0.99964     1.69301    0.01647     2.70912
      N    3   -0.23621      0.99967     2.72864    0.00790     3.73621
      C    4    0.00987      0.99945     1.97473    0.01595     2.99013
      C    5    0.17578      0.99934     1.81225    0.01262     2.82422
      O    6   -0.26278      0.99986     3.25254    0.01038     4.26278
      C    7   -0.14461      0.99953     2.13686    0.00822     3.14461
      C    8   -0.08432      0.99955     2.07457    0.01019     3.08432
      C    9   -0.06994      0.99948     2.05756    0.01290     3.06994
      C   10    0.00153      0.99949     1.99037    0.00860     2.99847
      C   11    0.31499      0.99962     1.66081    0.02458     2.68501
      O   12   -0.26195      0.99988     3.25610    0.00597     4.26195
      C   13   -0.23654      0.99959     2.22610    0.01086     3.23654
      C   14   -0.24130      0.99959     2.22887    0.01285     3.24130
      S   15    0.06691      4.99964     2.91168    0.02177     7.93309
      C   16   -0.34684      0.99961     2.34239    0.00484     3.34684
      H   17    0.11122      0.00000     0.38791    0.00087     0.38878
      H   18    0.10449      0.00000     0.39443    0.00107     0.39551
      H   19    0.10449      0.00000     0.39443    0.00108     0.39551
      H   20    0.09794      0.00000     0.40070    0.00136     0.40206
      H   21    0.09993      0.00000     0.39872    0.00136     0.40007
      H   22    0.10829      0.00000     0.39020    0.00151     0.39171
      H   23    0.09566      0.00000     0.40279    0.00154     0.40434
      H   24    0.10776      0.00000     0.39051    0.00174     0.39224
      H   25    0.09885      0.00000     0.39976    0.00140     0.40115
      H   26    0.10514      0.00000     0.39351    0.00135     0.39486
      H   27    0.10097      0.00000     0.39798    0.00105     0.39903
      H   28    0.11547      0.00000     0.38345    0.00108     0.38453
      H   29    0.09789      0.00000     0.40133    0.00078     0.40211
 =======================================================================
   * Total *    0.00084     19.99358    41.79630    0.20928    61.99916

 Normal termination of Gaussian 16 at Thu Dec 10 22:41:42 2020.
