 Gaussian 16, Revision A.03,

 -----------------------------------------------------------
 # opt freq B3LYP/6-31G(d) empiricaldispersion=gd3bj scf=xqc
 -----------------------------------------------------------

 -------------------------------
 CID_130832558_JID_2476_neutraal
 -------------------------------
 Symbolic Z-matrix:
 Charge =  0 Multiplicity = 1

 SCF Done:  E(RB3LYP) =  -558.412839645     A.U. after   13 cycles
 SCF Done:  E(RB3LYP) =  -558.416311617     A.U. after   11 cycles
 SCF Done:  E(RB3LYP) =  -558.416647403     A.U. after   10 cycles
 SCF Done:  E(RB3LYP) =  -558.416696605     A.U. after   10 cycles
 SCF Done:  E(RB3LYP) =  -558.416696388     A.U. after   10 cycles
 SCF Done:  E(RB3LYP) =  -558.416696114     A.U. after    9 cycles
 SCF Done:  E(RB3LYP) =  -558.416708204     A.U. after    9 cycles
 SCF Done:  E(RB3LYP) =  -558.416716377     A.U. after    8 cycles
 SCF Done:  E(RB3LYP) =  -558.416720578     A.U. after    9 cycles
 SCF Done:  E(RB3LYP) =  -558.416724187     A.U. after    9 cycles
 SCF Done:  E(RB3LYP) =  -558.416725933     A.U. after    8 cycles
 SCF Done:  E(RB3LYP) =  -558.416726169     A.U. after    6 cycles
 Optimization completed.
    -- Stationary point found.
 Normal termination of Gaussian 16 at Wed Dec  9 17:26:44 2020.

 --------------------------------------------------------------------
 #N Geom=AllCheck Guess=TCheck SCRF=Check GenChk RB3LYP/6-31G(d) Freq
 --------------------------------------------------------------------

 Structure from the checkpoint file:  "JID_2476.chk"
 -------------------------------
 CID_130832558_JID_2476_neutraal
 -------------------------------
 Charge =  0 Multiplicity = 1

 SCF Done:  E(RB3LYP) =  -558.416726169     A.U. after    1 cycles

  Exact polarizability: 117.862  -0.260  98.994   3.607  -3.604  91.794
 Approx polarizability: 145.516   2.282 143.075   3.289  -5.966 138.079

                      1                      2                      3
                      A                      A                      A
 Frequencies --     59.3881                90.7177               116.8755
 Red. masses --      2.7727                 3.5358                 3.4249
 Frc consts  --      0.0058                 0.0171                 0.0276
 IR Inten    --      1.0583                 1.0489                 4.0422

                      4                      5                      6
                      A                      A                      A
 Frequencies --    177.6628               222.3831               241.8082
 Red. masses --      2.9169                 1.5609                 2.2462
 Frc consts  --      0.0542                 0.0455                 0.0774
 IR Inten    --      2.0666                 2.2727                 1.6415

                      7                      8                      9
                      A                      A                      A
 Frequencies --    249.7673               273.7402               313.9072
 Red. masses --      1.8115                 1.9870                 3.2385
 Frc consts  --      0.0666                 0.0877                 0.1880
 IR Inten    --      0.6979                 3.3741                 0.0108

                     10                     11                     12
                      A                      A                      A
 Frequencies --    328.4707               391.0946               414.5571
 Red. masses --      2.9998                 2.7140                 2.0576
 Frc consts  --      0.1907                 0.2446                 0.2083
 IR Inten    --      3.1834                 2.8878                 4.7596

                     13                     14                     15
                      A                      A                      A
 Frequencies --    464.2608               495.7742               562.7053
 Red. masses --      5.8731                 2.6717                 2.0898
 Frc consts  --      0.7458                 0.3869                 0.3899
 IR Inten    --      2.4959                 5.1267                 4.0062

                     16                     17                     18
                      A                      A                      A
 Frequencies --    580.9722               657.4388               704.7345
 Red. masses --      1.9453                 2.7930                 2.8648
 Frc consts  --      0.3869                 0.7113                 0.8383
 IR Inten    --      0.8081                 2.6187                 4.4112

                     19                     20                     21
                      A                      A                      A
 Frequencies --    761.2454               863.4408               874.5038
 Red. masses --      3.8600                 2.5249                 2.5112
 Frc consts  --      1.3179                 1.1091                 1.1315
 IR Inten    --     14.1367                 7.2719                37.1023

                     22                     23                     24
                      A                      A                      A
 Frequencies --    891.4297               894.3707               909.3412
 Red. masses --      1.8980                 2.0356                 1.5983
 Frc consts  --      0.8886                 0.9593                 0.7787
 IR Inten    --     52.0323                15.7759                 1.8300

                     25                     26                     27
                      A                      A                      A
 Frequencies --    928.0003               942.0553               958.0794
 Red. masses --      1.8470                 2.4341                 2.2677
 Frc consts  --      0.9372                 1.2727                 1.2264
 IR Inten    --      1.2942                 5.1716                13.3536

                     28                     29                     30
                      A                      A                      A
 Frequencies --    971.4083               979.0211               998.4752
 Red. masses --      1.6719                 1.9089                 1.8349
 Frc consts  --      0.9296                 1.0780                 1.0778
 IR Inten    --     49.0249                12.9054                 0.9077

                     31                     32                     33
                      A                      A                      A
 Frequencies --   1024.2152              1054.2590              1094.0534
 Red. masses --      1.9782                 1.8998                 2.2517
 Frc consts  --      1.2226                 1.2441                 1.5880
 IR Inten    --      4.4843                15.1344                25.5639

                     34                     35                     36
                      A                      A                      A
 Frequencies --   1103.3736              1123.4335              1149.5821
 Red. masses --      4.2196                 2.8680                 4.5879
 Frc consts  --      3.0267                 2.1327                 3.5722
 IR Inten    --     92.3916                85.0744                35.2838

                     37                     38                     39
                      A                      A                      A
 Frequencies --   1151.6661              1199.8220              1208.4853
 Red. masses --      2.4287                 1.6954                 1.5455
 Frc consts  --      1.8979                 1.4380                 1.3299
 IR Inten    --     25.3779                 7.5523                 4.9776

                     40                     41                     42
                      A                      A                      A
 Frequencies --   1227.3913              1233.8884              1239.8144
 Red. masses --      1.7661                 1.7370                 1.8285
 Frc consts  --      1.5675                 1.5581                 1.6560
 IR Inten    --      5.9082                 5.2644                 6.6175

                     43                     44                     45
                      A                      A                      A
 Frequencies --   1276.0142              1283.6080              1313.6631
 Red. masses --      1.2365                 1.6157                 1.2879
 Frc consts  --      1.1862                 1.5684                 1.3095
 IR Inten    --      2.4301                27.0041                 1.1926

                     46                     47                     48
                      A                      A                      A
 Frequencies --   1326.2549              1343.8936              1359.5332
 Red. masses --      1.3325                 1.2149                 1.3082
 Frc consts  --      1.3810                 1.2927                 1.4247
 IR Inten    --      1.1090                 6.6206                 1.2481

                     49                     50                     51
                      A                      A                      A
 Frequencies --   1372.3617              1386.4485              1402.8429
 Red. masses --      1.3241                 1.2836                 1.3090
 Frc consts  --      1.4693                 1.4538                 1.5177
 IR Inten    --      1.0862                 5.5757                 7.7766

                     52                     53                     54
                      A                      A                      A
 Frequencies --   1409.9305              1422.4895              1426.1145
 Red. masses --      1.3314                 1.5794                 1.3015
 Frc consts  --      1.5594                 1.8829                 1.5596
 IR Inten    --     11.1346                 8.3737                11.8361

                     55                     56                     57
                      A                      A                      A
 Frequencies --   1438.3718              1500.6453              1509.1295
 Red. masses --      1.3009                 1.1893                 1.0969
 Frc consts  --      1.5857                 1.5780                 1.4719
 IR Inten    --      6.5194                25.5223                 5.3145

                     58                     59                     60
                      A                      A                      A
 Frequencies --   1515.2107              1517.6306              1521.8908
 Red. masses --      1.0785                 1.0961                 1.1000
 Frc consts  --      1.4588                 1.4875                 1.5011
 IR Inten    --      8.7925                 1.6573                 2.8818

                     61                     62                     63
                      A                      A                      A
 Frequencies --   1527.8094              1530.5904              1545.7079
 Red. masses --      1.0938                 1.0993                 1.0588
 Frc consts  --      1.5043                 1.5174                 1.4905
 IR Inten    --      4.8326                 4.6096                 2.7325

                     64                     65                     66
                      A                      A                      A
 Frequencies --   1558.8253              2967.6280              2997.3148
 Red. masses --      1.0979                 1.0713                 1.0842
 Frc consts  --      1.5719                 5.5587                 5.7391
 IR Inten    --      1.1437                59.7757                55.2894

                     67                     68                     69
                      A                      A                      A
 Frequencies --   3014.3349              3017.2026              3053.6971
 Red. masses --      1.0706                 1.0649                 1.0576
 Frc consts  --      5.7316                 5.7119                 5.8109
 IR Inten    --     55.0098                45.1496                43.8010

                     70                     71                     72
                      A                      A                      A
 Frequencies --   3059.0086              3062.0490              3082.3119
 Red. masses --      1.0424                 1.0657                 1.0607
 Frc consts  --      5.7472                 5.8875                 5.9371
 IR Inten    --     12.6932                22.8985                13.0828

                     73                     74                     75
                      A                      A                      A
 Frequencies --   3092.6090              3093.6576              3095.3642
 Red. masses --      1.0943                 1.0973                 1.0997
 Frc consts  --      6.1663                 6.1876                 6.2078
 IR Inten    --     65.7308                60.3804                25.4786

                     76                     77                     78
                      A                      A                      A
 Frequencies --   3101.0845              3118.4193              3127.3152
 Red. masses --      1.1007                 1.1013                 1.0967
 Frc consts  --      6.2363                 6.3100                 6.3193
 IR Inten    --     49.2507                26.6026                21.0468

                     79                     80                     81
                      A                      A                      A
 Frequencies --   3136.3051              3150.4325              3461.6186
 Red. masses --      1.1068                 1.1030                 1.0724
 Frc consts  --      6.4145                 6.4502                 7.5713
 IR Inten    --     30.6781                18.3675                 2.5979

 - Thermochemistry -
 -------------------
 Temperature   298.150 Kelvin.  Pressure   1.00000 Atm.
 Atom     1 has atomic number  6 and mass  12.00000

 Molecular mass:   171.12593 amu.
 Principal axes and moments of inertia in atomic units:
                           1         2         3
     Eigenvalues --   957.956392908.190543047.61808
           X            0.99997  -0.00455   0.00560
           Y            0.00480   0.99897  -0.04504
           Z           -0.00539   0.04506   0.99897
 This molecule is an asymmetric top.
 Rotational symmetry number  1.
 Warning -- assumption of classical behavior for rotation
           may cause significant error
 Rotational temperatures (Kelvin)      0.09042     0.02978     0.02842
 Rotational constants (GHZ):           1.88395     0.62057     0.59218
 Zero-point vibrational energy     689329.7 (Joules/Mol)
                                  164.75376 (Kcal/Mol)
 Warning -- explicit consideration of  16 degrees of freedom as
           vibrations may cause significant error
 Vibrational temperatures:     85.45   130.52   168.16   255.62   319.96
          (Kelvin)            347.91   359.36   393.85   451.64   472.60
                              562.70   596.46   667.97   713.31   809.61
                              835.89   945.91  1013.96  1095.26  1242.30
                             1258.22  1282.57  1286.80  1308.34  1335.19
                             1355.41  1378.46  1397.64  1408.59  1436.58
                             1473.62  1516.84  1574.10  1587.51  1616.37
                             1653.99  1656.99  1726.28  1738.74  1765.94
                             1775.29  1783.82  1835.90  1846.83  1890.07
                             1908.19  1933.56  1956.07  1974.52  1994.79
                             2018.38  2028.58  2046.65  2051.86  2069.50
                             2159.09  2171.30  2180.05  2183.53  2189.66
                             2198.18  2202.18  2223.93  2242.80  4269.75
                             4312.47  4336.96  4341.08  4393.59  4401.23
                             4405.61  4434.76  4449.57  4451.08  4453.54
                             4461.77  4486.71  4499.51  4512.44  4532.77
                             4980.50

 Zero-point correction=                           0.262552 (Hartree/Particle)
 Thermal correction to Energy=                    0.273731
 Thermal correction to Enthalpy=                  0.274675
 Thermal correction to Gibbs Free Energy=         0.225862
 Sum of electronic and zero-point Energies=           -558.154174
 Sum of electronic and thermal Energies=              -558.142995
 Sum of electronic and thermal Enthalpies=            -558.142051
 Sum of electronic and thermal Free Energies=         -558.190865

                     E (Thermal)             CV                S
                      KCal/Mol        Cal/Mol-Kelvin    Cal/Mol-Kelvin
 Total                  171.769             44.414            102.737
 Electronic               0.000              0.000              0.000
 Translational            0.889              2.981             41.319
 Rotational               0.889              2.981             30.519
 Vibrational            169.991             38.452             30.899
 Vibration     1          0.597              1.974              4.477
 Vibration     2          0.602              1.956              3.645
 Vibration     3          0.608              1.935              3.151
 Vibration     4          0.628              1.870              2.353
 Vibration     5          0.648              1.807              1.940
 Vibration     6          0.658              1.776              1.790
 Vibration     7          0.663              1.763              1.732
 Vibration     8          0.676              1.722              1.572
 Vibration     9          0.702              1.647              1.342
 Vibration    10          0.712              1.619              1.268
 Vibration    11          0.759              1.489              0.996
 Vibration    12          0.778              1.439              0.911
 Vibration    13          0.822              1.329              0.754
 Vibration    14          0.851              1.259              0.669
 Vibration    15          0.918              1.112              0.518
 Vibration    16          0.938              1.072              0.484

 Optimization completed.
    -- Stationary point found.
 Normal termination of Gaussian 16 at Wed Dec  9 17:34:11 2020.

 ----------------------------------------------------------------------
 # B3LYP/6-311++G(d,p) empiricaldispersion=gd3bj scf=xqc pop=npa geom=c
 heck
 ----------------------------------------------------------------------

 ---------------------------------------
 CID_130832558_JID_2476_Energie_neutraal
 ---------------------------------------
 Structure from the checkpoint file:  "JID_2476.chk"
 Charge =  0 Multiplicity = 1

 SCF Done:  E(RB3LYP) =  -558.577002691     A.U. after   14 cycles
 Normal termination of Gaussian 16 at Wed Dec  9 17:37:19 2020.

 ----------------------------------------------------------------------
 # B3LYP/6-311++G(d,p) empiricaldispersion=gd3bj scf=xqc pop=npa geom=c
 heck
 ----------------------------------------------------------------------

 -------------------------------------
 CID_130832558_JID_2476_Energie_kation
 -------------------------------------
 Structure from the checkpoint file:  "JID_2476.chk"
 Charge =  1 Multiplicity = 2

 SCF Done:  E(UB3LYP) =  -558.286627155     A.U. after   20 cycles
 Normal termination of Gaussian 16 at Wed Dec  9 17:45:19 2020.
 Gaussian 16:  ES64L-G16RevA.03 25-Dec-2016

 ----------------------------------------------------------------------
 # B3LYP/6-311++G(d,p) empiricaldispersion=gd3bj scf=xqc pop=npa geom=c
 heck
 ----------------------------------------------------------------------

 ------------------------------------
 CID_130832558_JID_2476_Energie_anion
 ------------------------------------
 Structure from the checkpoint file:  "JID_2476.chk"
 Charge = -1 Multiplicity = 2

                         Standard orientation:
 ---------------------------------------------------------------------
 Center     Atomic      Atomic             Coordinates (Angstroms)
 Number     Number       Type             X           Y           Z
 ---------------------------------------------------------------------
      1          6           0        0.733213    2.007955    0.128187
      2          6           0        0.394838    0.537841   -0.149121
      3          6           0        1.280604    0.006578   -1.295978
      4          8           0        2.650716   -0.046937   -0.911265
      5          6           0        2.838994   -0.923691    0.192620
      6          6           0        2.016504   -0.462418    1.396334
      7          7           0        0.598827   -0.273284    1.069875
      8          6           0       -1.085560    0.412482   -0.546030
      9          6           0       -2.089110    0.954347    0.480994
     10          6           0       -3.306978    0.050344    0.258532
     11          6           0       -2.638924   -1.292652   -0.040538
     12          8           0       -1.414542   -0.981855   -0.718172
     13          1           0        1.814575    2.146584    0.203880
     14          1           0        0.269648    2.341794    1.060384
     15          1           0        0.376278    2.643172   -0.691096
     16          1           0        0.931066   -0.994200   -1.592322
     17          1           0        1.236564    0.665902   -2.169566
     18          1           0        3.912304   -0.921684    0.410039
     19          1           0        2.542943   -1.949725   -0.091343
     20          1           0        2.420716    0.485623    1.769340
     21          1           0        2.090992   -1.190830    2.212838
     22          1           0        0.187125   -1.185700    0.868104
     23          1           0       -1.223252    0.914219   -1.516783
     24          1           0       -1.682199    0.815983    1.487645
     25          1           0       -2.304135    2.015716    0.332155
     26          1           0       -3.979421    0.005279    1.120476
     27          1           0       -3.885493    0.389209   -0.608961
     28          1           0       -2.416667   -1.836969    0.889323
     29          1           0       -3.233717   -1.945751   -0.687751
 ---------------------------------------------------------------------

 SCF Done:  E(UB3LYP) =  -558.559849093     A.U. after   30 cycles

 The electronic state is 2-A.
 Alpha  occ. eigenvalues --  -19.02541 -19.01820 -14.19286 -10.11636 -10.11425
 Alpha  occ. eigenvalues --  -10.10939 -10.10938 -10.10314 -10.09068 -10.06502
 Alpha  occ. eigenvalues --  -10.06116 -10.05581  -0.94166  -0.93307  -0.80587
 Alpha  occ. eigenvalues --   -0.69838  -0.67855  -0.63060  -0.60967  -0.56909
 Alpha  occ. eigenvalues --   -0.53690  -0.49259  -0.48440  -0.44981  -0.40673
 Alpha  occ. eigenvalues --   -0.39799  -0.38430  -0.37654  -0.37164  -0.35374
 Alpha  occ. eigenvalues --   -0.34734  -0.32336  -0.31336  -0.29521  -0.28694
 Alpha  occ. eigenvalues --   -0.28408  -0.26539  -0.26275  -0.25446  -0.25106
 Alpha  occ. eigenvalues --   -0.24200  -0.23007  -0.21748  -0.21213  -0.17844
 Alpha  occ. eigenvalues --   -0.15397  -0.11629   0.04694
 Alpha virt. eigenvalues --    0.06536   0.07355   0.08304   0.08857   0.09190
 Alpha virt. eigenvalues --    0.09487   0.10066   0.10904   0.11398   0.11947
 Alpha virt. eigenvalues --    0.12670   0.12856   0.13788   0.14131   0.14650

  Beta  occ. eigenvalues --  -19.02537 -19.01822 -14.19275 -10.11624 -10.11407
  Beta  occ. eigenvalues --  -10.10930 -10.10913 -10.10312 -10.09046 -10.06470
  Beta  occ. eigenvalues --  -10.06096 -10.05561  -0.94155  -0.93299  -0.80567
  Beta  occ. eigenvalues --   -0.69813  -0.67815  -0.63019  -0.60930  -0.56878
  Beta  occ. eigenvalues --   -0.53646  -0.49177  -0.48390  -0.44945  -0.40639
  Beta  occ. eigenvalues --   -0.39753  -0.38394  -0.37627  -0.37145  -0.35335
  Beta  occ. eigenvalues --   -0.34700  -0.32302  -0.31296  -0.29484  -0.28667
  Beta  occ. eigenvalues --   -0.28376  -0.26508  -0.26251  -0.25424  -0.25062
  Beta  occ. eigenvalues --   -0.24161  -0.22968  -0.21727  -0.21191  -0.17819
  Beta  occ. eigenvalues --   -0.15381  -0.11612
  Beta virt. eigenvalues --    0.06952   0.07665   0.08162   0.08768   0.09500
  Beta virt. eigenvalues --    0.09785   0.10074   0.10567   0.11159   0.11850
  Beta virt. eigenvalues --    0.12558   0.13035   0.13221   0.14027   0.14339

 Mulliken charges and spin densities:
               1          2
     1  C    0.752092  -1.227375
     2  C   -0.322813   0.122116
     3  C   -0.157616  -0.353757
     4  O   -0.106921   0.031833
     5  C    0.406353  -0.568717
     6  C    0.326484  -0.569812
     7  N    0.142573   0.006480
     8  C   -1.437107   1.308682
     9  C    0.512133  -0.990971
    10  C    0.253884  -0.560567
    11  C    1.064842  -1.380607
    12  O   -0.124138  -0.003332
    13  H    0.081934   0.089948
    14  H   -0.212817   0.369737
    15  H   -0.029387   0.185169
    16  H    0.074294   0.091730
    17  H    0.072670   0.095340
    18  H   -0.308020   0.481507
    19  H    0.038484   0.074046
    20  H    0.087263   0.060182
    21  H   -0.572632   0.734849
    22  H    0.280077  -0.009349
    23  H   -0.443602   0.658931
    24  H    0.123528   0.097437
    25  H   -0.349976   0.505717
    26  H   -0.503260   0.659872
    27  H   -0.171994   0.329641
    28  H   -0.266695   0.396282
    29  H   -0.209634   0.364987
 Sum of Mulliken charges =  -1.00000   1.00000

 Dipole moment (field-independent basis, Debye):
    X=              3.0458    Y=             -0.2213    Z=             -1.5758  Tot=              3.4364
 Quadrupole moment (field-independent basis, Debye-Ang):
   XX=           -144.8637   YY=           -114.5635   ZZ=           -112.2942
   XY=              3.3910   XZ=             -1.9121   YZ=              4.4740

 Summary of Natural Population Analysis:

                                       Natural Population
                Natural  -----------------------------------------------
    Atom  No    Charge         Core      Valence    Rydberg      Total
 -----------------------------------------------------------------------
      C    1   -0.29464      0.99961     2.28736    0.00766     3.29464
      C    2    0.04157      0.99953     1.94374    0.01515     2.95843
      C    3   -0.01602      0.99950     2.00448    0.01204     3.01602
      O    4   -0.30325      0.99989     3.29389    0.00947     4.30325
      C    5   -0.01865      0.99958     2.00598    0.01309     3.01865
      C    6   -0.10169      0.99962     2.09080    0.01127     3.10169
      N    7   -0.34660      0.99973     2.83354    0.01333     3.84660
      C    8    0.06988      0.99948     1.91386    0.01677     2.93012
      C    9   -0.20620      0.99962     2.19760    0.00898     3.20620
      C   10   -0.20161      0.99964     2.19445    0.00752     3.20161
      C   11   -0.00588      0.99959     1.99410    0.01219     3.00588
      O   12   -0.31529      0.99989     3.30694    0.00846     4.31529
      H   13    0.10533      0.00000     0.39330    0.00137     0.39467
      H   14    0.10595      0.00000     0.39295    0.00111     0.39405
      H   15    0.10170      0.00000     0.39726    0.00104     0.39830
      H   16    0.08844      0.00000     0.40976    0.00180     0.41156
      H   17    0.09139      0.00000     0.40724    0.00137     0.40861
      H   18    0.09060      0.00000     0.40801    0.00140     0.40940
      H   19    0.07533      0.00000     0.42311    0.00156     0.42467
      H   20    0.09138      0.00000     0.40738    0.00124     0.40862
      H   21    0.09801      0.00000     0.40054    0.00145     0.40199
      H   22    0.17862      0.00000     0.31782    0.00357     0.32138
      H   23    0.08713      0.00000     0.41111    0.00176     0.41287
      H   24    0.10786      0.00000     0.38989    0.00226     0.39214
      H   25    0.10720      0.00000     0.39123    0.00157     0.39280
      H   26    0.10477      0.00000     0.39349    0.00174     0.39523
      H   27    0.09757      0.00000     0.40060    0.00183     0.40243
      H   28    0.07934      0.00000     0.41893    0.00173     0.42066
      H   29    0.08777      0.00000     0.41077    0.00146     0.41223
 =======================================================================
   * Total *   -0.00000     11.99569    34.84013    0.16419    47.00000

 Normal termination of Gaussian 16 at Wed Dec  9 17:54:23 2020.
