 Gaussian 16, Revision A.03,

 -----------------------------------------------------------
 # opt freq B3LYP/6-31G(d) empiricaldispersion=gd3bj scf=xqc
 -----------------------------------------------------------

 -------------------------------
 CID_104378024_JID_4692_neutraal
 -------------------------------
 Symbolic Z-matrix:
 Charge =  0 Multiplicity = 1

 SCF Done:  E(RB3LYP) =  -618.380923167     A.U. after   13 cycles
 SCF Done:  E(RB3LYP) =  -618.385908928     A.U. after   10 cycles
 SCF Done:  E(RB3LYP) =  -618.386468069     A.U. after   10 cycles
 SCF Done:  E(RB3LYP) =  -618.386361356     A.U. after   10 cycles
 SCF Done:  E(RB3LYP) =  -618.386682436     A.U. after   10 cycles
 SCF Done:  E(RB3LYP) =  -618.386699260     A.U. after    9 cycles
 SCF Done:  E(RB3LYP) =  -618.386704001     A.U. after    9 cycles
 SCF Done:  E(RB3LYP) =  -618.386705328     A.U. after    8 cycles
 SCF Done:  E(RB3LYP) =  -618.386705969     A.U. after    7 cycles
 SCF Done:  E(RB3LYP) =  -618.386706682     A.U. after    9 cycles
 SCF Done:  E(RB3LYP) =  -618.386707250     A.U. after    8 cycles
 SCF Done:  E(RB3LYP) =  -618.386707396     A.U. after    8 cycles
 SCF Done:  E(RB3LYP) =  -618.386707410     A.U. after    6 cycles
 Optimization completed.
    -- Stationary point found.
 Normal termination of Gaussian 16 at Thu Dec 10 10:24:01 2020.

 --------------------------------------------------------------------
 #N Geom=AllCheck Guess=TCheck SCRF=Check GenChk RB3LYP/6-31G(d) Freq
 --------------------------------------------------------------------

 Structure from the checkpoint file:  "JID_4692.chk"
 -------------------------------
 CID_104378024_JID_4692_neutraal
 -------------------------------
 Charge =  0 Multiplicity = 1

 SCF Done:  E(RB3LYP) =  -618.386707410     A.U. after    1 cycles

  Exact polarizability: 146.795  -3.773 129.583  -2.545  -0.291 119.754
 Approx polarizability: 181.807  -4.559 178.576  -0.550  -0.027 173.938

                      1                      2                      3
                      A                      A                      A
 Frequencies --     17.0839                24.2765                32.5222
 Red. masses --      2.7422                 3.4230                 3.3578
 Frc consts  --      0.0005                 0.0012                 0.0021
 IR Inten    --      0.5141                 0.2216                 0.6264

                      4                      5                      6
                      A                      A                      A
 Frequencies --     56.3077               107.3128               117.1004
 Red. masses --      3.2645                 3.1420                 3.8346
 Frc consts  --      0.0061                 0.0213                 0.0310
 IR Inten    --      2.5307                 0.0918                 0.4426

                      7                      8                      9
                      A                      A                      A
 Frequencies --    157.6807               194.5455               196.9632
 Red. masses --      2.8001                 2.3790                 2.0114
 Frc consts  --      0.0410                 0.0531                 0.0460
 IR Inten    --      2.5205                 1.8332                 0.1218

                     10                     11                     12
                      A                      A                      A
 Frequencies --    224.2577               234.0383               259.7193
 Red. masses --      1.4045                 1.8990                 1.9113
 Frc consts  --      0.0416                 0.0613                 0.0760
 IR Inten    --      1.0215                 0.2392                 3.4791

                     13                     14                     15
                      A                      A                      A
 Frequencies --    264.7480               277.6714               298.2331
 Red. masses --      1.2152                 2.1854                 1.1519
 Frc consts  --      0.0502                 0.0993                 0.0604
 IR Inten    --      1.3937                 0.7603                 0.2674

                     16                     17                     18
                      A                      A                      A
 Frequencies --    328.7961               359.0764               382.6423
 Red. masses --      2.1591                 2.3028                 2.9131
 Frc consts  --      0.1375                 0.1749                 0.2513
 IR Inten    --      0.2218                 0.4313                 5.5598

                     19                     20                     21
                      A                      A                      A
 Frequencies --    418.1657               448.5526               471.5584
 Red. masses --      2.5281                 2.7023                 2.2352
 Frc consts  --      0.2605                 0.3203                 0.2928
 IR Inten    --      4.9484                 5.7803                 4.0731

                     22                     23                     24
                      A                      A                      A
 Frequencies --    517.5468               563.6315               593.0480
 Red. masses --      2.7539                 2.5322                 2.1049
 Frc consts  --      0.4346                 0.4739                 0.4362
 IR Inten    --      3.1105                 5.7508                 1.3608

                     25                     26                     27
                      A                      A                      A
 Frequencies --    691.1885               742.4579               792.6491
 Red. masses --      3.8093                 1.6126                 1.4764
 Frc consts  --      1.0722                 0.5238                 0.5465
 IR Inten    --      6.4885               127.7189                11.8170

                     28                     29                     30
                      A                      A                      A
 Frequencies --    812.5420               830.6636               858.1814
 Red. masses --      2.3139                 1.5410                 1.6755
 Frc consts  --      0.9001                 0.6265                 0.7270
 IR Inten    --      7.8291                24.6569                 2.3238

                     31                     32                     33
                      A                      A                      A
 Frequencies --    879.9322               919.2515               925.7538
 Red. masses --      2.2807                 2.2047                 2.3482
 Frc consts  --      1.0404                 1.0977                 1.1857
 IR Inten    --      1.6105                17.0708                 7.4329

                     34                     35                     36
                      A                      A                      A
 Frequencies --    936.9936               952.7300               956.8011
 Red. masses --      1.2402                 1.9985                 1.4321
 Frc consts  --      0.6415                 1.0688                 0.7724
 IR Inten    --      0.8999                 7.9880                 0.7990

                     37                     38                     39
                      A                      A                      A
 Frequencies --    983.2962               988.7683               997.3365
 Red. masses --      1.9575                 1.4060                 2.0165
 Frc consts  --      1.1151                 0.8099                 1.1818
 IR Inten    --      7.9388                 1.8638                11.8795

                     40                     41                     42
                      A                      A                      A
 Frequencies --   1013.2737              1027.3868              1059.4962
 Red. masses --      1.7251                 1.8883                 1.6110
 Frc consts  --      1.0436                 1.1743                 1.0655
 IR Inten    --      3.6264                 6.5280                 0.8357

                     43                     44                     45
                      A                      A                      A
 Frequencies --   1099.5821              1126.0996              1135.7970
 Red. masses --      4.3817                 2.1333                 3.0694
 Frc consts  --      3.1214                 1.5939                 2.3329
 IR Inten    --    101.1628                12.9014                31.4097

                     46                     47                     48
                      A                      A                      A
 Frequencies --   1140.3065              1156.5257              1158.0583
 Red. masses --      2.5023                 2.8442                 2.0008
 Frc consts  --      1.9170                 2.2414                 1.5810
 IR Inten    --     18.5870                63.6604                13.6280

                     49                     50                     51
                      A                      A                      A
 Frequencies --   1178.5691              1199.0373              1203.2787
 Red. masses --      2.0835                 1.8174                 1.8644
 Frc consts  --      1.7052                 1.5394                 1.5904
 IR Inten    --      3.1976                 3.5188                 9.4499

                     52                     53                     54
                      A                      A                      A
 Frequencies --   1208.6588              1212.2206              1251.2717
 Red. masses --      1.5765                 2.0646                 1.2473
 Frc consts  --      1.3569                 1.7876                 1.1506
 IR Inten    --     14.4118                43.9752                 3.7062

                     55                     56                     57
                      A                      A                      A
 Frequencies --   1255.2598              1293.9547              1313.2752
 Red. masses --      1.3150                 1.4803                 1.2184
 Frc consts  --      1.2208                 1.4603                 1.2381
 IR Inten    --      9.2204                 8.7499                 2.8300

                     58                     59                     60
                      A                      A                      A
 Frequencies --   1325.8974              1334.9845              1366.2330
 Red. masses --      1.2948                 1.2926                 1.3461
 Frc consts  --      1.3412                 1.3573                 1.4804
 IR Inten    --      7.8927                 0.2995                 5.4955

                     61                     62                     63
                      A                      A                      A
 Frequencies --   1367.4366              1373.4623              1379.3191
 Red. masses --      1.3037                 1.3035                 1.2329
 Frc consts  --      1.4363                 1.4487                 1.3820
 IR Inten    --      9.7994                 7.6894                11.3873

                     64                     65                     66
                      A                      A                      A
 Frequencies --   1398.2977              1406.5044              1415.6547
 Red. masses --      1.3678                 1.3025                 1.3014
 Frc consts  --      1.5757                 1.5182                 1.5367
 IR Inten    --      4.3603                 7.6060                 9.1771

                     67                     68                     69
                      A                      A                      A
 Frequencies --   1418.3836              1430.0918              1434.3280
 Red. masses --      1.4887                 1.3263                 1.2796
 Frc consts  --      1.7646                 1.5982                 1.5511
 IR Inten    --      5.4031                 4.2744                 2.4843

                     70                     71                     72
                      A                      A                      A
 Frequencies --   1439.5136              1442.6087              1499.7733
 Red. masses --      1.3925                 1.2514                 1.1162
 Frc consts  --      1.7002                 1.5344                 1.4793
 IR Inten    --      2.8452                10.5861                 3.5751

                     73                     74                     75
                      A                      A                      A
 Frequencies --   1502.3232              1509.8509              1515.1867
 Red. masses --      1.1381                 1.1665                 1.0533
 Frc consts  --      1.5135                 1.5668                 1.4247
 IR Inten    --     25.1119                20.5811                 1.1041

                     76                     77                     78
                      A                      A                      A
 Frequencies --   1518.1158              1520.0887              1530.6517
 Red. masses --      1.0506                 1.1008                 1.0652
 Frc consts  --      1.4266                 1.4986                 1.4704
 IR Inten    --      3.6448                 5.0808                 7.6205

                     79                     80                     81
                      A                      A                      A
 Frequencies --   1536.2157              1537.2678              1540.4123
 Red. masses --      1.0765                 1.0871                 1.0632
 Frc consts  --      1.4968                 1.5136                 1.4864
 IR Inten    --      4.4727                 0.4053                13.1503

                     82                     83                     84
                      A                      A                      A
 Frequencies --   1543.0249              1543.5675              1558.5481
 Red. masses --      1.0855                 1.0737                 1.0961
 Frc consts  --      1.5227                 1.5072                 1.5687
 IR Inten    --     27.8806                 1.7679                 1.2360

                     85                     86                     87
                      A                      A                      A
 Frequencies --   2930.7080              2968.1752              3001.3509
 Red. masses --      1.0727                 1.0711                 1.0721
 Frc consts  --      5.4284                 5.5599                 5.6899
 IR Inten    --     51.4602                53.7296                90.7147

                     88                     89                     90
                      A                      A                      A
 Frequencies --   3028.1144              3028.7672              3035.6765
 Red. masses --      1.0814                 1.0836                 1.0397
 Frc consts  --      5.8425                 5.8564                 5.6452
 IR Inten    --      8.3023                11.9072                15.6653

                     91                     92                     93
                      A                      A                      A
 Frequencies --   3042.4077              3043.2883              3045.2093
 Red. masses --      1.0516                 1.0549                 1.0376
 Frc consts  --      5.7352                 5.7565                 5.6690
 IR Inten    --     66.4003                 4.9357                20.5690

                     94                     95                     96
                      A                      A                      A
 Frequencies --   3054.8467              3061.7141              3062.9679
 Red. masses --      1.0642                 1.0853                 1.0877
 Frc consts  --      5.8515                 5.9939                 6.0121
 IR Inten    --     30.6545                53.0248                59.2439

                     97                     98                     99
                      A                      A                      A
 Frequencies --   3085.3162              3088.3155              3098.7047
 Red. masses --      1.0876                 1.0925                 1.1029
 Frc consts  --      6.0996                 6.1392                 6.2392
 IR Inten    --     25.6847                50.3704                37.5766

                    100                    101                    102
                      A                      A                      A
 Frequencies --   3099.7402              3107.8504              3108.9663
 Red. masses --      1.0984                 1.1006                 1.0970
 Frc consts  --      6.2184                 6.2633                 6.2473
 IR Inten    --     12.0603                33.8379                71.5158

                    103                    104                    105
                      A                      A                      A
 Frequencies --   3114.2152              3115.4887              3123.0092
 Red. masses --      1.1015                 1.1026                 1.1008
 Frc consts  --      6.2938                 6.3058                 6.3256
 IR Inten    --     73.8762                23.7307                34.3938

                    106                    107                    108
                      A                      A                      A
 Frequencies --   3136.8554              3469.9871              3536.0743
 Red. masses --      1.1026                 1.0722                 1.0729
 Frc consts  --      6.3924                 7.6062                 7.9041
 IR Inten    --     26.6645                 2.3879                 0.3730

 - Thermochemistry -
 -------------------
 Temperature   298.150 Kelvin.  Pressure   1.00000 Atm.
 Atom     1 has atomic number  6 and mass  12.00000

 Molecular mass:   200.18886 amu.
 Principal axes and moments of inertia in atomic units:
                           1         2         3
     Eigenvalues --  1850.117605513.112366068.07792
           X            0.99997  -0.00034   0.00790
           Y            0.00045   0.99991  -0.01355
           Z           -0.00789   0.01356   0.99988
 This molecule is an asymmetric top.
 Rotational symmetry number  1.
 Warning -- assumption of classical behavior for rotation
           may cause significant error
 Rotational temperatures (Kelvin)      0.04682     0.01571     0.01427
 Rotational constants (GHZ):           0.97547     0.32735     0.29742
 Zero-point vibrational energy     924842.4 (Joules/Mol)
                                  221.04263 (Kcal/Mol)
 Warning -- explicit consideration of  24 degrees of freedom as
           vibrations may cause significant error
 Vibrational temperatures:     24.58    34.93    46.79    81.01   154.40
          (Kelvin)            168.48   226.87   279.91   283.39   322.66
                              336.73   373.68   380.91   399.51   429.09
                              473.06   516.63   550.54   601.65   645.37
                              678.47   744.63   810.94   853.26   994.47
                             1068.23  1140.45  1169.07  1195.14  1234.73
                             1266.03  1322.60  1331.95  1348.12  1370.77
                             1376.62  1414.74  1422.62  1434.94  1457.87
                             1478.18  1524.38  1582.05  1620.21  1634.16
                             1640.65  1663.98  1666.19  1695.70  1725.15
                             1731.25  1738.99  1744.12  1800.30  1806.04
                             1861.71  1889.51  1907.67  1920.74  1965.70
                             1967.44  1976.11  1984.53  2011.84  2023.65
                             2036.81  2040.74  2057.58  2063.68  2071.14
                             2075.59  2157.84  2161.51  2172.34  2180.02
                             2184.23  2187.07  2202.27  2210.27  2211.79
                             2216.31  2220.07  2220.85  2242.40  4216.64
                             4270.54  4318.27  4356.78  4357.72  4367.66
                             4377.35  4378.61  4381.38  4395.24  4405.12
                             4406.93  4439.08  4443.40  4458.34  4459.83
                             4471.50  4473.11  4480.66  4482.49  4493.31
                             4513.24  4992.54  5087.62

 Zero-point correction=                           0.352254 (Hartree/Particle)
 Thermal correction to Energy=                    0.368464
 Thermal correction to Enthalpy=                  0.369408
 Thermal correction to Gibbs Free Energy=         0.306560
 Sum of electronic and zero-point Energies=           -618.034454
 Sum of electronic and thermal Energies=              -618.018244
 Sum of electronic and thermal Enthalpies=            -618.017300
 Sum of electronic and thermal Free Energies=         -618.080148

                     E (Thermal)             CV                S
                      KCal/Mol        Cal/Mol-Kelvin    Cal/Mol-Kelvin
 Total                  231.214             60.578            132.275
 Electronic               0.000              0.000              0.000
 Translational            0.889              2.981             41.787
 Rotational               0.889              2.981             32.493
 Vibrational            229.437             54.616             57.996
 Vibration     1          0.593              1.986              6.947
 Vibration     2          0.593              1.985              6.249
 Vibration     3          0.594              1.983              5.669
 Vibration     4          0.596              1.975              4.583
 Vibration     5          0.606              1.943              3.317
 Vibration     6          0.608              1.935              3.148
 Vibration     7          0.621              1.894              2.577
 Vibration     8          0.635              1.847              2.184
 Vibration     9          0.636              1.844              2.161
 Vibration    10          0.649              1.804              1.924
 Vibration    11          0.654              1.789              1.848
 Vibration    12          0.668              1.746              1.664
 Vibration    13          0.671              1.738              1.630
 Vibration    14          0.679              1.715              1.548
 Vibration    15          0.691              1.677              1.427
 Vibration    16          0.712              1.618              1.266
 Vibration    17          0.734              1.557              1.126
 Vibration    18          0.752              1.507              1.029
 Vibration    19          0.781              1.431              0.898
 Vibration    20          0.808              1.364              0.800
 Vibration    21          0.829              1.313              0.733
 Vibration    22          0.873              1.211              0.616
 Vibration    23          0.919              1.110              0.517
 Vibration    24          0.951              1.047              0.462

                           ! Non-Optimized Parameters !
 Normal termination of Gaussian 16 at Thu Dec 10 10:35:07 2020.

 ----------------------------------------------------------------------
 # B3LYP/6-311++G(d,p) empiricaldispersion=gd3bj scf=xqc pop=npa geom=c
 heck
 ----------------------------------------------------------------------

 ---------------------------------------
 CID_104378024_JID_4692_Energie_neutraal
 ---------------------------------------
 Structure from the checkpoint file:  "JID_4692.chk"
 Charge =  0 Multiplicity = 1

 SCF Done:  E(RB3LYP) =  -618.568849297     A.U. after   14 cycles
 Normal termination of Gaussian 16 at Thu Dec 10 10:40:38 2020.

 ----------------------------------------------------------------------
 # B3LYP/6-311++G(d,p) empiricaldispersion=gd3bj scf=xqc pop=npa geom=c
 heck
 ----------------------------------------------------------------------

 -------------------------------------
 CID_104378024_JID_4692_Energie_kation
 -------------------------------------
 Structure from the checkpoint file:  "JID_4692.chk"
 Charge =  1 Multiplicity = 2

 SCF Done:  E(UB3LYP) =  -618.278527655     A.U. after   22 cycles
 Normal termination of Gaussian 16 at Thu Dec 10 10:53:22 2020.
 Gaussian 16:  ES64L-G16RevA.03 25-Dec-2016

 ----------------------------------------------------------------------
 # B3LYP/6-311++G(d,p) empiricaldispersion=gd3bj scf=xqc pop=npa geom=c
 heck
 ----------------------------------------------------------------------

 ------------------------------------
 CID_104378024_JID_4692_Energie_anion
 ------------------------------------
 Structure from the checkpoint file:  "JID_4692.chk"
 Charge = -1 Multiplicity = 2

                         Standard orientation:
 ---------------------------------------------------------------------
 Center     Atomic      Atomic             Coordinates (Angstroms)
 Number     Number       Type             X           Y           Z
 ---------------------------------------------------------------------
      1          6           0        1.311570   -1.173213    1.760305
      2          6           0        2.476477   -0.719839    0.883714
      3          6           0        2.765646   -1.634231   -0.315772
      4          6           0        3.672060   -0.743209   -1.159998
      5          8           0        3.197917    0.589719   -0.964509
      6          6           0        2.357185    0.666836    0.201631
      7          6           0        0.958501    1.085048   -0.266311
      8          7           0        0.165761    1.668359    0.810272
      9          6           0       -1.055104    2.346099    0.376137
     10          6           0       -2.047217    1.489372   -0.426306
     11          7           0       -2.391438    0.283941    0.323192
     12          6           0       -3.481776   -0.525990   -0.233764
     13          6           0       -3.204304   -1.080401   -1.641109
     14          6           0       -3.795110   -1.655034    0.749773
     15          1           0        1.141906   -0.487064    2.597490
     16          1           0        1.516578   -2.162388    2.184187
     17          1           0        0.381648   -1.257205    1.185172
     18          1           0        3.380999   -0.692571    1.506759
     19          1           0        3.234472   -2.581352   -0.030555
     20          1           0        1.836075   -1.862228   -0.852754
     21          1           0        3.640244   -0.967425   -2.231688
     22          1           0        4.718211   -0.823257   -0.824962
     23          1           0        2.736781    1.460800    0.855919
     24          1           0        1.107334    1.859691   -1.026685
     25          1           0        0.475503    0.235075   -0.786193
     26          1           0       -0.082116    0.963997    1.498832
     27          1           0       -1.557419    2.716142    1.276594
     28          1           0       -0.767437    3.217760   -0.226590
     29          1           0       -2.967607    2.067058   -0.581810
     30          1           0       -1.633306    1.283820   -1.429048
     31          1           0       -1.562692   -0.307105    0.389427
     32          1           0       -4.356918    0.136761   -0.290171
     33          1           0       -2.325222   -1.738777   -1.624951
     34          1           0       -4.054222   -1.666452   -2.009687
     35          1           0       -3.012597   -0.279783   -2.362619
     36          1           0       -4.007348   -1.248911    1.743056
     37          1           0       -4.655021   -2.245159    0.414827
     38          1           0       -2.939017   -2.337915    0.837454
 ---------------------------------------------------------------------

 SCF Done:  E(UB3LYP) =  -618.555500954     A.U. after   27 cycles

 The electronic state is 2-A.
 Alpha  occ. eigenvalues --  -19.02431 -14.20554 -14.20240 -10.12261 -10.11923
 Alpha  occ. eigenvalues --  -10.10402 -10.10066 -10.09662 -10.09593 -10.08516
 Alpha  occ. eigenvalues --  -10.07234 -10.07211 -10.06070 -10.05967  -0.94102
 Alpha  occ. eigenvalues --   -0.82829  -0.80163  -0.71126  -0.68119  -0.66199
 Alpha  occ. eigenvalues --   -0.62082  -0.60154  -0.58964  -0.55706  -0.50575
 Alpha  occ. eigenvalues --   -0.49980  -0.49003  -0.46693  -0.42515  -0.39669
 Alpha  occ. eigenvalues --   -0.38849  -0.38191  -0.37312  -0.36356  -0.34665
 Alpha  occ. eigenvalues --   -0.34182  -0.33108  -0.32722  -0.31689  -0.30831
 Alpha  occ. eigenvalues --   -0.30128  -0.29753  -0.28981  -0.28546  -0.27604
 Alpha  occ. eigenvalues --   -0.26740  -0.25792  -0.25021  -0.24736  -0.24276
 Alpha  occ. eigenvalues --   -0.23807  -0.23026  -0.21227  -0.16128  -0.14150
 Alpha  occ. eigenvalues --   -0.13131   0.04249
 Alpha virt. eigenvalues --    0.05975   0.07000   0.07187   0.07956   0.08479
 Alpha virt. eigenvalues --    0.08646   0.09291   0.09748   0.10478   0.10672
 Alpha virt. eigenvalues --    0.10990   0.11251   0.11604   0.11866   0.12665

  Beta  occ. eigenvalues --  -19.02429 -14.20550 -14.20231 -10.12258 -10.11909
  Beta  occ. eigenvalues --  -10.10390 -10.10061 -10.09650 -10.09582 -10.08506
  Beta  occ. eigenvalues --  -10.07203 -10.07180 -10.06043 -10.05930  -0.94094
  Beta  occ. eigenvalues --   -0.82815  -0.80148  -0.71095  -0.68091  -0.66171
  Beta  occ. eigenvalues --   -0.62047  -0.60111  -0.58903  -0.55666  -0.50536
  Beta  occ. eigenvalues --   -0.49923  -0.48947  -0.46660  -0.42488  -0.39637
  Beta  occ. eigenvalues --   -0.38817  -0.38155  -0.37284  -0.36335  -0.34632
  Beta  occ. eigenvalues --   -0.34145  -0.33069  -0.32686  -0.31662  -0.30801
  Beta  occ. eigenvalues --   -0.30097  -0.29718  -0.28946  -0.28512  -0.27581
  Beta  occ. eigenvalues --   -0.26714  -0.25768  -0.24989  -0.24701  -0.24246
  Beta  occ. eigenvalues --   -0.23758  -0.22988  -0.21209  -0.16111  -0.14138
  Beta  occ. eigenvalues --   -0.13118
  Beta virt. eigenvalues --    0.06333   0.06908   0.07405   0.07552   0.08414
  Beta virt. eigenvalues --    0.08797   0.09130   0.09586   0.10030   0.10664
  Beta virt. eigenvalues --    0.11101   0.11373   0.11515   0.11790   0.12176

 Mulliken charges and spin densities:
               1          2
     1  C    0.130600  -0.878788
     2  C   -0.602988   1.157700
     3  C    0.521928  -0.881056
     4  C    0.144972  -0.411533
     5  O   -0.116138   0.038932
     6  C    0.168848  -0.879361
     7  C   -0.367622  -0.107817
     8  N   -0.097670   0.069234
     9  C   -0.048012  -0.351998
    10  C   -0.244080   0.076108
    11  N    0.114882  -0.114905
    12  C   -1.297800   1.286986
    13  C    1.180195  -1.696213
    14  C    0.263836  -0.816639
    15  H    0.064428   0.084327
    16  H   -0.633152   0.816821
    17  H    0.321585  -0.177222
    18  H   -0.176241   0.369836
    19  H   -0.606084   0.791756
    20  H   -0.028567   0.156116
    21  H   -0.098775   0.250159
    22  H    0.061436   0.070755
    23  H    0.160039   0.026158
    24  H    0.167250   0.000088
    25  H    0.354260  -0.124559
    26  H    0.171705   0.058031
    27  H    0.121666   0.041667
    28  H    0.015505   0.127273
    29  H   -0.193583   0.350691
    30  H    0.126059  -0.030761
    31  H    0.771684  -0.669883
    32  H   -0.088573   0.235900
    33  H   -0.207868   0.359583
    34  H   -0.370146   0.520658
    35  H   -0.183520   0.321679
    36  H    0.002842   0.151307
    37  H   -0.266744   0.409813
    38  H   -0.236159   0.369159
 Sum of Mulliken charges =  -1.00000   1.00000

 Dipole moment (field-independent basis, Debye):
    X=              1.0591    Y=              5.8591    Z=              0.2482  Tot=              5.9592
 Quadrupole moment (field-independent basis, Debye-Ang):
   XX=           -174.2559   YY=           -143.8330   ZZ=           -130.9078
   XY=             -1.0028   XZ=             -7.5405   YZ=              2.2110

 Summary of Natural Population Analysis:

                                       Natural Population
                Natural  -----------------------------------------------
    Atom  No    Charge         Core      Valence    Rydberg      Total
 -----------------------------------------------------------------------
      C    1   -0.28703      0.99964     2.28081    0.00658     3.28703
      C    2   -0.12210      0.99959     2.11079    0.01173     3.12210
      C    3   -0.20398      0.99962     2.19510    0.00926     3.20398
      C    4   -0.00704      0.99959     1.99466    0.01278     3.00704
      O    5   -0.30799      0.99989     3.29987    0.00823     4.30799
      C    6    0.07136      0.99953     1.91507    0.01405     2.92864
      C    7   -0.10364      0.99959     2.09238    0.01166     3.10364
      N    8   -0.34445      0.99974     2.83383    0.01087     3.84445
      C    9   -0.08435      0.99963     2.07376    0.01096     3.08435
      C   10   -0.09830      0.99963     2.08842    0.01025     3.09830
      N   11   -0.34760      0.99973     2.83612    0.01175     3.84760
      C   12   -0.00935      0.99963     1.99846    0.01126     3.00935
      C   13   -0.29575      0.99965     2.29028    0.00582     3.29575
      C   14   -0.28618      0.99965     2.28039    0.00615     3.28618
      H   15    0.09913      0.00000     0.39987    0.00101     0.40087
      H   16    0.10809      0.00000     0.39057    0.00135     0.39191
      H   17    0.09457      0.00000     0.40343    0.00200     0.40543
      H   18    0.09850      0.00000     0.39993    0.00157     0.40150
      H   19    0.10802      0.00000     0.38962    0.00236     0.39198
      H   20    0.09815      0.00000     0.40009    0.00176     0.40185
      H   21    0.08735      0.00000     0.41152    0.00114     0.41265
      H   22    0.07671      0.00000     0.42190    0.00139     0.42329
      H   23    0.08896      0.00000     0.40941    0.00164     0.41104
      H   24    0.09978      0.00000     0.39884    0.00139     0.40022
      H   25    0.08071      0.00000     0.41691    0.00237     0.41929
      H   26    0.17590      0.00000     0.32045    0.00365     0.32410
      H   27    0.09414      0.00000     0.40482    0.00104     0.40586
      H   28    0.08861      0.00000     0.41040    0.00099     0.41139
      H   29    0.09351      0.00000     0.40513    0.00136     0.40649
      H   30    0.08093      0.00000     0.41758    0.00149     0.41907
      H   31    0.16843      0.00000     0.32684    0.00473     0.33157
      H   32    0.08650      0.00000     0.41155    0.00195     0.41350
      H   33    0.09802      0.00000     0.40048    0.00149     0.40198
      H   34    0.10184      0.00000     0.39684    0.00132     0.39816
      H   35    0.09911      0.00000     0.39982    0.00107     0.40089
      H   36    0.10222      0.00000     0.39664    0.00114     0.39778
      H   37    0.09998      0.00000     0.39901    0.00101     0.40002
      H   38    0.09726      0.00000     0.40145    0.00129     0.40274
 =======================================================================
   * Total *    0.00000     13.99511    41.82303    0.18187    56.00000

 Normal termination of Gaussian 16 at Thu Dec 10 11:13:11 2020.
