 Gaussian 16, Revision A.03,

 -----------------------------------------------------------
 # opt freq B3LYP/6-31G(d) empiricaldispersion=gd3bj scf=xqc
 -----------------------------------------------------------

 ------------------------------
 CID_80587101_JID_5729_neutraal
 ------------------------------
 Symbolic Z-matrix:
 Charge =  0 Multiplicity = 1

 SCF Done:  E(RB3LYP) =  -1349.56540224     A.U. after   15 cycles
 SCF Done:  E(RB3LYP) =  -1349.57132319     A.U. after   13 cycles
 SCF Done:  E(RB3LYP) =  -1349.57270907     A.U. after   13 cycles
 SCF Done:  E(RB3LYP) =  -1349.57328603     A.U. after   13 cycles
 SCF Done:  E(RB3LYP) =  -1349.57347854     A.U. after   12 cycles
 SCF Done:  E(RB3LYP) =  -1349.57352740     A.U. after   11 cycles
 SCF Done:  E(RB3LYP) =  -1349.57354038     A.U. after   10 cycles
 SCF Done:  E(RB3LYP) =  -1349.57354436     A.U. after   10 cycles
 SCF Done:  E(RB3LYP) =  -1349.57354617     A.U. after    9 cycles
 SCF Done:  E(RB3LYP) =  -1349.57354702     A.U. after    9 cycles
 SCF Done:  E(RB3LYP) =  -1349.57354746     A.U. after    9 cycles
 SCF Done:  E(RB3LYP) =  -1349.57354767     A.U. after    8 cycles
 SCF Done:  E(RB3LYP) =  -1349.57354773     A.U. after    7 cycles
 SCF Done:  E(RB3LYP) =  -1349.57354776     A.U. after    7 cycles
 SCF Done:  E(RB3LYP) =  -1349.57354778     A.U. after    7 cycles
 Optimization completed.
    -- Stationary point found.
 Normal termination of Gaussian 16 at Thu Dec 10 16:42:43 2020.

 --------------------------------------------------------------------
 #N Geom=AllCheck Guess=TCheck SCRF=Check GenChk RB3LYP/6-31G(d) Freq
 --------------------------------------------------------------------

 Structure from the checkpoint file:  "JID_5729.chk"
 ------------------------------
 CID_80587101_JID_5729_neutraal
 ------------------------------
 Charge =  0 Multiplicity = 1

 SCF Done:  E(RB3LYP) =  -1349.57354778     A.U. after    1 cycles

  Exact polarizability: 191.848  -9.646 163.375  14.434   1.276 103.755
 Approx polarizability: 251.121 -13.831 297.063  31.499  10.203 168.135

                      1                      2                      3
                      A                      A                      A
 Frequencies --     25.9559                33.2138                44.7813
 Red. masses --      6.6287                 4.9770                 4.9196
 Frc consts  --      0.0026                 0.0032                 0.0058
 IR Inten    --      0.1808                 0.0584                 1.0338

                      4                      5                      6
                      A                      A                      A
 Frequencies --     73.8816                96.3291               103.2504
 Red. masses --      3.5562                 2.8061                 6.5145
 Frc consts  --      0.0114                 0.0153                 0.0409
 IR Inten    --      0.2812                 3.5048                 8.2804

                      7                      8                      9
                      A                      A                      A
 Frequencies --    116.3327               161.5134               196.6757
 Red. masses --      1.3551                 6.3155                 4.6913
 Frc consts  --      0.0108                 0.0971                 0.1069
 IR Inten    --      0.1073                 3.9017                 0.7430

                     10                     11                     12
                      A                      A                      A
 Frequencies --    232.2434               255.9810               290.7641
 Red. masses --      2.9212                 3.1877                 2.5752
 Frc consts  --      0.0928                 0.1231                 0.1283
 IR Inten    --      1.4882                 2.6788                 1.7471

                     13                     14                     15
                      A                      A                      A
 Frequencies --    299.9796               354.5004               409.4773
 Red. masses --      3.9260                 4.8964                 2.4825
 Frc consts  --      0.2082                 0.3625                 0.2452
 IR Inten    --      2.2606                 4.4354                 2.0371

                     16                     17                     18
                      A                      A                      A
 Frequencies --    446.2469               468.2854               502.8681
 Red. masses --      2.9267                 3.7102                 4.9199
 Frc consts  --      0.3434                 0.4794                 0.7330
 IR Inten    --     28.6652                30.8292                20.5866

                     19                     20                     21
                      A                      A                      A
 Frequencies --    509.2794               520.1409               539.2457
 Red. masses --      5.4837                 3.6189                 3.2369
 Frc consts  --      0.8380                 0.5769                 0.5546
 IR Inten    --      6.1652                 0.4797                15.5628

                     22                     23                     24
                      A                      A                      A
 Frequencies --    561.0999               577.4606               595.2926
 Red. masses --      3.2746                 4.3910                 4.4045
 Frc consts  --      0.6074                 0.8627                 0.9196
 IR Inten    --      4.8341                20.5808                 3.6599

                     25                     26                     27
                      A                      A                      A
 Frequencies --    631.2923               643.6415               681.9542
 Red. masses --      4.5134                 4.3471                 4.1532
 Frc consts  --      1.0598                 1.0611                 1.1380
 IR Inten    --      7.5519                13.3948                 5.1200

                     28                     29                     30
                      A                      A                      A
 Frequencies --    682.5405               756.5615               872.1375
 Red. masses --      6.4141                 8.8627                 1.3928
 Frc consts  --      1.7605                 2.9888                 0.6242
 IR Inten    --      8.9437                12.9606                 2.0467

                     31                     32                     33
                      A                      A                      A
 Frequencies --    890.8938               900.6870               921.6524
 Red. masses --      3.4243                 2.6125                 2.2384
 Frc consts  --      1.6013                 1.2487                 1.1203
 IR Inten    --      3.8817                 6.2871                 1.5899

                     34                     35                     36
                      A                      A                      A
 Frequencies --    954.0667              1004.2232              1025.0889
 Red. masses --      1.6691                 2.0739                 2.5847
 Frc consts  --      0.8951                 1.2323                 1.6003
 IR Inten    --      1.3626                 9.9529                 3.8618

                     37                     38                     39
                      A                      A                      A
 Frequencies --   1039.6164              1061.0829              1069.9269
 Red. masses --      1.6409                 2.0718                 1.5123
 Frc consts  --      1.0449                 1.3744                 1.0200
 IR Inten    --      6.6551                 1.0692                 2.3461

                     40                     41                     42
                      A                      A                      A
 Frequencies --   1071.1345              1121.5876              1145.2101
 Red. masses --      1.4975                 2.6877                 1.5890
 Frc consts  --      1.0123                 1.9920                 1.2278
 IR Inten    --      3.6971                 5.2869                10.0440

                     43                     44                     45
                      A                      A                      A
 Frequencies --   1161.0178              1203.0341              1248.6572
 Red. masses --      4.5736                 1.3960                 1.3417
 Frc consts  --      3.6323                 1.1904                 1.2325
 IR Inten    --     32.9809                 8.1757                 8.6373

                     46                     47                     48
                      A                      A                      A
 Frequencies --   1268.6735              1310.4139              1317.2926
 Red. masses --      1.4206                 1.2478                 1.3746
 Frc consts  --      1.3472                 1.2625                 1.4054
 IR Inten    --      9.9521                21.2357                 5.1568

                     49                     50                     51
                      A                      A                      A
 Frequencies --   1343.0764              1356.7071              1370.0729
 Red. masses --      1.3259                 2.4847                 1.4041
 Frc consts  --      1.4092                 2.6946                 1.5528
 IR Inten    --      7.2989                 9.8176                 0.7601

                     52                     53                     54
                      A                      A                      A
 Frequencies --   1389.8323              1412.0511              1427.7212
 Red. masses --      1.3467                 1.5295                 1.7623
 Frc consts  --      1.5327                 1.7969                 2.1164
 IR Inten    --     11.2576                81.2242                 8.4980

                     55                     56                     57
                      A                      A                      A
 Frequencies --   1446.4626              1464.7107              1494.9175
 Red. masses --      2.3056                 1.6878                 1.2537
 Frc consts  --      2.8422                 2.1334                 1.6507
 IR Inten    --     29.1640                57.9297                23.8836

                     58                     59                     60
                      A                      A                      A
 Frequencies --   1507.7681              1508.8761              1514.5829
 Red. masses --      1.0432                 1.1043                 1.0881
 Frc consts  --      1.3973                 1.4814                 1.4707
 IR Inten    --      9.0405                 3.1164                 2.3858

                     61                     62                     63
                      A                      A                      A
 Frequencies --   1515.0647              1532.8347              1568.1080
 Red. masses --      1.0899                 1.1048                 3.3516
 Frc consts  --      1.4740                 1.5295                 4.8557
 IR Inten    --      7.4537                 1.2261                83.1486

                     64                     65                     66
                      A                      A                      A
 Frequencies --   1619.9746              2328.8776              3040.1190
 Red. masses --      4.1608                12.6542                 1.0651
 Frc consts  --      6.4335                40.4370                 5.7998
 IR Inten    --    399.9983                80.1383                 6.0763

                     67                     68                     69
                      A                      A                      A
 Frequencies --   3045.8008              3058.9003              3061.5908
 Red. masses --      1.0670                 1.0377                 1.0601
 Frc consts  --      5.8318                 5.7207                 5.8545
 IR Inten    --     36.1467                10.3840                26.8895

                     70                     71                     72
                      A                      A                      A
 Frequencies --   3079.7638              3080.6575              3099.6250
 Red. masses --      1.0672                 1.0830                 1.0966
 Frc consts  --      5.9637                 6.0556                 6.2074
 IR Inten    --     17.5270                12.1423                21.1810

                     73                     74                     75
                      A                      A                      A
 Frequencies --   3109.2063              3114.5183              3121.6866
 Red. masses --      1.1031                 1.1009                 1.0986
 Frc consts  --      6.2828                 6.2921                 6.3077
 IR Inten    --     31.3450                 8.8671                33.0060

                     76                     77                     78
                      A                      A                      A
 Frequencies --   3141.5929              3166.5526              3566.9071
 Red. masses --      1.1065                 1.1012                 1.0763
 Frc consts  --      6.4343                 6.5058                 8.0680
 IR Inten    --     13.3764                 6.2732                38.2113

 - Thermochemistry -
 -------------------
 Temperature   298.150 Kelvin.  Pressure   1.00000 Atm.
 Atom     1 has atomic number  6 and mass  12.00000

 Molecular mass:   239.05509 amu.
 Principal axes and moments of inertia in atomic units:
                           1         2         3
     Eigenvalues --  1953.531376920.321948062.17246
           X            0.99994  -0.00901   0.00623
           Y            0.00905   0.99994  -0.00585
           Z           -0.00618   0.00591   0.99996
 This molecule is an asymmetric top.
 Rotational symmetry number  1.
 Warning -- assumption of classical behavior for rotation
           may cause significant error
 Rotational temperatures (Kelvin)      0.04434     0.01252     0.01074
 Rotational constants (GHZ):           0.92384     0.26079     0.22385
 Zero-point vibrational energy     585486.8 (Joules/Mol)
                                  139.93470 (Kcal/Mol)
 Warning -- explicit consideration of  24 degrees of freedom as
           vibrations may cause significant error
 Vibrational temperatures:     37.34    47.79    64.43   106.30   138.60
          (Kelvin)            148.55   167.38   232.38   282.97   334.15
                              368.30   418.34   431.60   510.05   589.15
                              642.05   673.76   723.52   732.74   748.37
                              775.85   807.30   830.84   856.49   908.29
                              926.06   981.18   982.02  1088.52  1254.81
                             1281.80  1295.89  1326.05  1372.69  1444.85
                             1474.87  1495.78  1526.66  1539.39  1541.12
                             1613.71  1647.70  1670.45  1730.90  1796.54
                             1825.34  1885.39  1895.29  1932.39  1952.00
                             1971.23  1999.66  2031.63  2054.17  2081.14
                             2107.39  2150.85  2169.34  2170.94  2179.15
                             2179.84  2205.41  2256.16  2330.78  3350.74
                             4374.05  4382.23  4401.08  4404.95  4431.09
                             4432.38  4459.67  4473.45  4481.10  4491.41
                             4520.05  4555.96  5131.98

 Zero-point correction=                           0.223000 (Hartree/Particle)
 Thermal correction to Energy=                    0.238248
 Thermal correction to Enthalpy=                  0.239192
 Thermal correction to Gibbs Free Energy=         0.178213
 Sum of electronic and zero-point Energies=          -1349.350548
 Sum of electronic and thermal Energies=             -1349.335300
 Sum of electronic and thermal Enthalpies=           -1349.334356
 Sum of electronic and thermal Free Energies=        -1349.395335

                     E (Thermal)             CV                S
                      KCal/Mol        Cal/Mol-Kelvin    Cal/Mol-Kelvin
 Total                  149.503             55.890            128.341
 Electronic               0.000              0.000              0.000
 Translational            0.889              2.981             42.316
 Rotational               0.889              2.981             33.055
 Vibrational            147.725             49.929             52.970
 Vibration     1          0.593              1.985              6.117
 Vibration     2          0.594              1.983              5.628
 Vibration     3          0.595              1.979              5.035
 Vibration     4          0.599              1.966              4.047
 Vibration     5          0.603              1.952              3.527
 Vibration     6          0.605              1.947              3.392
 Vibration     7          0.608              1.936              3.160
 Vibration     8          0.622              1.890              2.532
 Vibration     9          0.636              1.845              2.164
 Vibration    10          0.653              1.792              1.862
 Vibration    11          0.666              1.753              1.689
 Vibration    12          0.687              1.691              1.470
 Vibration    13          0.693              1.674              1.417
 Vibration    14          0.730              1.566              1.146
 Vibration    15          0.774              1.450              0.928
 Vibration    16          0.806              1.369              0.807
 Vibration    17          0.825              1.320              0.742
 Vibration    18          0.858              1.244              0.651
 Vibration    19          0.864              1.229              0.635
 Vibration    20          0.875              1.205              0.610
 Vibration    21          0.894              1.163              0.567
 Vibration    22          0.917              1.115              0.522
 Vibration    23          0.934              1.080              0.490
 Vibration    24          0.953              1.042              0.458

                           ! Non-Optimized Parameters !
 Normal termination of Gaussian 16 at Thu Dec 10 16:50:51 2020.

 ----------------------------------------------------------------------
 # B3LYP/6-311++G(d,p) empiricaldispersion=gd3bj scf=xqc pop=npa geom=c
 heck
 ----------------------------------------------------------------------

 --------------------------------------
 CID_80587101_JID_5729_Energie_neutraal
 --------------------------------------
 Structure from the checkpoint file:  "JID_5729.chk"
 Charge =  0 Multiplicity = 1

 SCF Done:  E(RB3LYP) =  -1349.77590469     A.U. after   15 cycles
 Normal termination of Gaussian 16 at Thu Dec 10 16:55:03 2020.

 ----------------------------------------------------------------------
 # B3LYP/6-311++G(d,p) empiricaldispersion=gd3bj scf=xqc pop=npa geom=c
 heck
 ----------------------------------------------------------------------

 ------------------------------------
 CID_80587101_JID_5729_Energie_kation
 ------------------------------------
 Structure from the checkpoint file:  "JID_5729.chk"
 Charge =  1 Multiplicity = 2

 SCF Done:  E(UB3LYP) =  -1349.48284574     A.U. after   23 cycles
 Normal termination of Gaussian 16 at Thu Dec 10 17:02:28 2020.
 Gaussian 16:  ES64L-G16RevA.03 25-Dec-2016

 ----------------------------------------------------------------------
 # B3LYP/6-311++G(d,p) empiricaldispersion=gd3bj scf=xqc pop=npa geom=c
 heck
 ----------------------------------------------------------------------

 -----------------------------------
 CID_80587101_JID_5729_Energie_anion
 -----------------------------------
 Structure from the checkpoint file:  "JID_5729.chk"
 Charge = -1 Multiplicity = 2

                         Standard orientation:
 ---------------------------------------------------------------------
 Center     Atomic      Atomic             Coordinates (Angstroms)
 Number     Number       Type             X           Y           Z
 ---------------------------------------------------------------------
      1          6           0       -4.586771    0.058283   -1.029829
      2          6           0       -3.263403   -0.385240   -0.482538
      3          7           0       -2.919904   -1.650484   -0.545263
      4         16           0       -1.376008   -1.858429    0.145427
      5          6           0       -1.174797   -0.171275    0.548501
      6          6           0       -2.314731    0.511972    0.123135
      7          6           0       -2.472981    1.907597    0.289049
      8          7           0       -2.562347    3.059858    0.444888
      9          7           0       -0.102373    0.338562    1.196620
     10          6           0        1.145182   -0.391273    1.364588
     11          6           0        2.000218   -0.462395    0.096895
     12          6           0        3.334210   -1.190051    0.319646
     13          6           0        4.330735   -0.655006   -0.712400
     14          6           0        4.229619    0.871618   -0.657252
     15         16           0        2.426679    1.245571   -0.503666
     16          1           0       -4.447551    0.806216   -1.818761
     17          1           0       -5.194201    0.522787   -0.244699
     18          1           0       -5.123956   -0.799172   -1.438970
     19          1           0       -0.041819    1.351128    1.221391
     20          1           0        1.709601    0.098886    2.162751
     21          1           0        0.903212   -1.406127    1.708027
     22          1           0        1.425765   -0.954000   -0.694584
     23          1           0        3.702831   -0.970873    1.330998
     24          1           0        3.200724   -2.275060    0.245170
     25          1           0        5.353183   -0.992128   -0.507362
     26          1           0        4.055056   -1.007289   -1.713055
     27          1           0        4.764172    1.275192    0.207921
     28          1           0        4.610927    1.355242   -1.559489
 ---------------------------------------------------------------------

 SCF Done:  E(UB3LYP) =  -1349.77227570     A.U. after   31 cycles

 The electronic state is 2-A.
 Alpha  occ. eigenvalues --  -88.78789 -88.73768 -14.24972 -14.21893 -14.20357
 Alpha  occ. eigenvalues --  -10.14122 -10.12666 -10.12479 -10.10959 -10.10697
 Alpha  occ. eigenvalues --  -10.10034 -10.09355 -10.08714 -10.08066 -10.07872
 Alpha  occ. eigenvalues --   -7.87246  -7.82400  -5.83661  -5.83193  -5.82712
 Alpha  occ. eigenvalues --   -5.78782  -5.78438  -5.77772  -0.87673  -0.84446
 Alpha  occ. eigenvalues --   -0.80108  -0.75327  -0.69670  -0.68684  -0.65527
 Alpha  occ. eigenvalues --   -0.62600  -0.60814  -0.58231  -0.51822  -0.49040
 Alpha  occ. eigenvalues --   -0.48436  -0.46386  -0.45697  -0.39562  -0.38570
 Alpha  occ. eigenvalues --   -0.38433  -0.37738  -0.35265  -0.34511  -0.32230
 Alpha  occ. eigenvalues --   -0.32103  -0.31241  -0.30398  -0.29408  -0.27098
 Alpha  occ. eigenvalues --   -0.26789  -0.26158  -0.25711  -0.25486  -0.24918
 Alpha  occ. eigenvalues --   -0.24534  -0.23747  -0.22748  -0.21008  -0.19170
 Alpha  occ. eigenvalues --   -0.15625  -0.12995  -0.12180   0.04066
 Alpha virt. eigenvalues --    0.05919   0.07240   0.07707   0.07832   0.08658
 Alpha virt. eigenvalues --    0.09156   0.09254   0.09647   0.10397   0.10764
 Alpha virt. eigenvalues --    0.11027   0.11427   0.11466   0.12218   0.12403

  Beta  occ. eigenvalues --  -88.78771 -88.73768 -14.24902 -14.21807 -14.20293
  Beta  occ. eigenvalues --  -10.13725 -10.12657 -10.12470 -10.10939 -10.10676
  Beta  occ. eigenvalues --  -10.10007 -10.09382 -10.08713 -10.08032 -10.07835
  Beta  occ. eigenvalues --   -7.87230  -7.82399  -5.83657  -5.83192  -5.82644
  Beta  occ. eigenvalues --   -5.78781  -5.78438  -5.77772  -0.87405  -0.84312
  Beta  occ. eigenvalues --   -0.80011  -0.75268  -0.69418  -0.68595  -0.65443
  Beta  occ. eigenvalues --   -0.62543  -0.60712  -0.58152  -0.51555  -0.48937
  Beta  occ. eigenvalues --   -0.48333  -0.46292  -0.45534  -0.39506  -0.38477
  Beta  occ. eigenvalues --   -0.38327  -0.37621  -0.35073  -0.34443  -0.32063
  Beta  occ. eigenvalues --   -0.31961  -0.30989  -0.30340  -0.29221  -0.26999
  Beta  occ. eigenvalues --   -0.26659  -0.26086  -0.25554  -0.25213  -0.24823
  Beta  occ. eigenvalues --   -0.24467  -0.23666  -0.22158  -0.20895  -0.19059
  Beta  occ. eigenvalues --   -0.15301  -0.12911  -0.11641
  Beta virt. eigenvalues --    0.06824   0.07220   0.08004   0.08202   0.08585
  Beta virt. eigenvalues --    0.09169   0.09411   0.09547   0.09839   0.10696
  Beta virt. eigenvalues --    0.10945   0.11284   0.11552   0.11585   0.12391

 Mulliken charges and spin densities:
               1          2
     1  C   -0.638564   0.000471
     2  C   -1.012743  -0.021464
     3  N   -0.053762   0.030330
     4  S    0.281279   0.055016
     5  C   -0.047968   0.035508
     6  C    2.297613   0.062971
     7  C   -1.801275  -0.012033
     8  N   -0.243833   0.031409
     9  N    0.140618   0.057601
    10  C   -0.468857  -0.630654
    11  C    1.012600   0.039472
    12  C   -0.315719  -0.260327
    13  C   -0.100489  -0.010438
    14  C    0.588070  -1.217299
    15  S   -0.075768  -0.091509
    16  H    0.157140   0.001034
    17  H    0.153425  -0.000083
    18  H    0.151216  -0.000415
    19  H    0.296913   0.012791
    20  H    0.022057   0.156097
    21  H    0.194550  -0.052747
    22  H    0.052445   0.166054
    23  H   -0.291184   0.467539
    24  H   -0.315655   0.476386
    25  H   -0.884595   1.075434
    26  H    0.102236   0.058114
    27  H   -0.135970   0.330627
    28  H   -0.063778   0.240115
 Sum of Mulliken charges =  -1.00000   1.00000

 Dipole moment (field-independent basis, Debye):
    X=             -5.8406    Y=             -0.6529    Z=              0.0740  Tot=              5.8774
 Quadrupole moment (field-independent basis, Debye-Ang):
   XX=           -198.2586   YY=           -150.7399   ZZ=           -123.5732
   XY=             12.5536   XZ=              0.1298   YZ=             -3.2162

 Summary of Natural Population Analysis:

                                       Natural Population
                Natural  -----------------------------------------------
    Atom  No    Charge         Core      Valence    Rydberg      Total
 -----------------------------------------------------------------------
      C    1   -0.29921      0.99962     2.29538    0.00421     3.29921
      C    2    0.12697      0.99957     1.86047    0.01299     2.87303
      N    3   -0.31635      0.99969     2.80421    0.01245     3.81635
      S    4    0.26193      4.99945     2.71206    0.02656     7.73807
      C    5    0.11978      0.99949     1.86488    0.01585     2.88022
      C    6   -0.18882      0.99932     2.17926    0.01024     3.18882
      C    7    0.15103      0.99964     1.83199    0.01734     2.84897
      N    8   -0.19134      0.99979     2.68073    0.01082     3.69134
      N    9   -0.29546      0.99964     2.78544    0.01038     3.79546
      C   10   -0.09040      0.99958     2.07724    0.01358     3.09040
      C   11   -0.16500      0.99956     2.15253    0.01291     3.16500
      C   12   -0.19542      0.99960     2.18510    0.01072     3.19542
      C   13   -0.19419      0.99962     2.18473    0.00984     3.19419
      C   14   -0.24032      0.99961     2.23063    0.01008     3.24032
      S   15    0.06892      4.99964     2.91574    0.01570     7.93108
      H   16    0.10656      0.00000     0.39257    0.00087     0.39344
      H   17    0.10563      0.00000     0.39350    0.00087     0.39437
      H   18    0.10807      0.00000     0.39091    0.00102     0.39193
      H   19    0.19970      0.00000     0.29799    0.00231     0.30030
      H   20    0.10300      0.00000     0.39568    0.00133     0.39700
      H   21    0.09999      0.00000     0.39856    0.00145     0.40001
      H   22    0.10515      0.00000     0.39278    0.00207     0.39485
      H   23    0.09961      0.00000     0.39824    0.00215     0.40039
      H   24    0.10821      0.00000     0.39034    0.00145     0.39179
      H   25    0.10932      0.00000     0.38619    0.00449     0.39068
      H   26    0.09810      0.00000     0.40063    0.00127     0.40190
      H   27    0.10011      0.00000     0.39784    0.00205     0.39989
      H   28    0.10443      0.00000     0.39439    0.00119     0.39557
 =======================================================================
   * Total *   -0.00000     22.99382    39.78999    0.21618    63.00000

 Normal termination of Gaussian 16 at Thu Dec 10 17:13:07 2020.
