 Gaussian 16, Revision A.03,

 -----------------------------------------------------------
 # opt freq B3LYP/6-31G(d) empiricaldispersion=gd3bj scf=xqc
 -----------------------------------------------------------

 -------------------------------
 CID_146646235_JID_7733_neutraal
 -------------------------------
 Symbolic Z-matrix:
 Charge =  0 Multiplicity = 1

 SCF Done:  E(RB3LYP) =  -746.354900135     A.U. after   15 cycles
 SCF Done:  E(RB3LYP) =  -746.367410543     A.U. after   13 cycles
 SCF Done:  E(RB3LYP) =  -746.370027159     A.U. after   12 cycles
 SCF Done:  E(RB3LYP) =  -746.370720451     A.U. after   12 cycles
 SCF Done:  E(RB3LYP) =  -746.371009235     A.U. after   11 cycles
 SCF Done:  E(RB3LYP) =  -746.371220690     A.U. after   11 cycles
 SCF Done:  E(RB3LYP) =  -746.371329580     A.U. after   11 cycles
 SCF Done:  E(RB3LYP) =  -746.371367321     A.U. after   10 cycles
 SCF Done:  E(RB3LYP) =  -746.371384288     A.U. after   10 cycles
 SCF Done:  E(RB3LYP) =  -746.371390981     A.U. after    9 cycles
 SCF Done:  E(RB3LYP) =  -746.371400274     A.U. after    9 cycles
 SCF Done:  E(RB3LYP) =  -746.371402911     A.U. after    9 cycles
 SCF Done:  E(RB3LYP) =  -746.371403259     A.U. after    7 cycles
 SCF Done:  E(RB3LYP) =  -746.371403314     A.U. after    7 cycles
 SCF Done:  E(RB3LYP) =  -746.371403332     A.U. after    6 cycles
 Optimization completed.
    -- Stationary point found.
 Normal termination of Gaussian 16 at Fri Dec 11 13:12:33 2020.

 --------------------------------------------------------------------
 #N Geom=AllCheck Guess=TCheck SCRF=Check GenChk RB3LYP/6-31G(d) Freq
 --------------------------------------------------------------------

 Structure from the checkpoint file:  "JID_7733.chk"
 -------------------------------
 CID_146646235_JID_7733_neutraal
 -------------------------------
 Charge =  0 Multiplicity = 1

 SCF Done:  E(RB3LYP) =  -746.371403332     A.U. after    2 cycles

  Exact polarizability: 201.456 -12.118 164.688  -5.316  -5.091 104.723
 Approx polarizability: 264.075 -27.005 274.094  -7.863 -16.617 159.126

                      1                      2                      3
                      A                      A                      A
 Frequencies --     41.3198                54.5168                74.1741
 Red. masses --      3.2546                 2.8490                 3.0434
 Frc consts  --      0.0033                 0.0050                 0.0099
 IR Inten    --      1.5670                 0.5205                 2.2827

                      4                      5                      6
                      A                      A                      A
 Frequencies --     89.3211               120.7026               157.0892
 Red. masses --      3.2539                 1.7203                 2.0024
 Frc consts  --      0.0153                 0.0148                 0.0291
 IR Inten    --      6.6183                 0.2474                 0.4391

                      7                      8                      9
                      A                      A                      A
 Frequencies --    175.7955               191.6994               231.3673
 Red. masses --      3.3675                 1.6430                 2.3767
 Frc consts  --      0.0613                 0.0356                 0.0750
 IR Inten    --      0.1381                 1.3390                 0.3184

                     10                     11                     12
                      A                      A                      A
 Frequencies --    273.0581               285.9000               299.8812
 Red. masses --      2.3139                 3.5000                 3.2644
 Frc consts  --      0.1016                 0.1686                 0.1730
 IR Inten    --      3.5392                 8.3423                 0.4917

                     13                     14                     15
                      A                      A                      A
 Frequencies --    310.3458               326.3559               365.4657
 Red. masses --      3.5625                 2.8792                 2.9994
 Frc consts  --      0.2022                 0.1807                 0.2360
 IR Inten    --      1.4237                 0.2553                 0.5820

                     16                     17                     18
                      A                      A                      A
 Frequencies --    399.1870               421.7376               465.5820
 Red. masses --      2.3384                 2.9042                 4.1764
 Frc consts  --      0.2195                 0.3043                 0.5334
 IR Inten    --      1.2807                 4.1133                10.5711

                     19                     20                     21
                      A                      A                      A
 Frequencies --    485.5394               521.0790               561.7140
 Red. masses --      3.7842                 3.5151                 4.2553
 Frc consts  --      0.5256                 0.5623                 0.7911
 IR Inten    --      9.4662                 8.7791                 6.6493

                     22                     23                     24
                      A                      A                      A
 Frequencies --    600.0264               610.5542               633.3915
 Red. masses --      4.1690                 3.6875                 3.8340
 Frc consts  --      0.8843                 0.8099                 0.9062
 IR Inten    --     19.4941                 2.4363                13.1599

                     25                     26                     27
                      A                      A                      A
 Frequencies --    660.4198               688.9793               713.4479
 Red. masses --      3.2006                 2.7135                 3.3625
 Frc consts  --      0.8225                 0.7589                 1.0084
 IR Inten    --      6.4284                 2.8645                41.7647

                     28                     29                     30
                      A                      A                      A
 Frequencies --    734.5813               758.6776               781.3393
 Red. masses --      3.2735                 2.3561                 1.9106
 Frc consts  --      1.0407                 0.7990                 0.6872
 IR Inten    --      0.3401                25.7861                18.3762

                     31                     32                     33
                      A                      A                      A
 Frequencies --    815.2885               828.3097               852.1163
 Red. masses --      1.8616                 2.6277                 3.7266
 Frc consts  --      0.7291                 1.0622                 1.5942
 IR Inten    --     41.7012                 6.4745                 4.8064

                     34                     35                     36
                      A                      A                      A
 Frequencies --    867.1974               914.3374               921.3533
 Red. masses --      2.2763                 2.5540                 2.5405
 Frc consts  --      1.0086                 1.2580                 1.2707
 IR Inten    --     12.3366                 5.7365                 8.7780

                     37                     38                     39
                      A                      A                      A
 Frequencies --    959.4382               988.6292              1010.7607
 Red. masses --      2.8252                 2.1004                 1.7851
 Frc consts  --      1.5323                 1.2095                 1.0745
 IR Inten    --     12.5375                 1.7716                 1.5935

                     40                     41                     42
                      A                      A                      A
 Frequencies --   1018.3289              1045.2693              1066.1332
 Red. masses --      2.2629                 2.1895                 2.0832
 Frc consts  --      1.3826                 1.4094                 1.3951
 IR Inten    --      6.3411                 3.1480                 3.0101

                     43                     44                     45
                      A                      A                      A
 Frequencies --   1092.7700              1098.6321              1117.6917
 Red. masses --      1.5402                 1.5987                 2.4254
 Frc consts  --      1.0836                 1.1369                 1.7851
 IR Inten    --     25.9326                 4.8749                10.7452

                     46                     47                     48
                      A                      A                      A
 Frequencies --   1141.4323              1149.1369              1153.2581
 Red. masses --      2.0797                 2.2830                 1.3393
 Frc consts  --      1.5965                 1.7762                 1.0495
 IR Inten    --      4.8118                14.2144                 9.9618

                     49                     50                     51
                      A                      A                      A
 Frequencies --   1155.2982              1179.2186              1201.8933
 Red. masses --      1.3058                 1.8511                 1.9599
 Frc consts  --      1.0269                 1.5166                 1.6681
 IR Inten    --     19.1614                18.2632                20.8648

                     52                     53                     54
                      A                      A                      A
 Frequencies --   1222.7385              1231.1386              1245.8268
 Red. masses --      1.5652                 1.6589                 1.1434
 Frc consts  --      1.3788                 1.4814                 1.0456
 IR Inten    --      2.7769                 4.6322                 8.0896

                     55                     56                     57
                      A                      A                      A
 Frequencies --   1265.1309              1276.1384              1287.3190
 Red. masses --      2.1478                 1.4911                 1.1769
 Frc consts  --      2.0254                 1.4307                 1.1491
 IR Inten    --     41.2964                 1.8812                21.9970

                     58                     59                     60
                      A                      A                      A
 Frequencies --   1294.1292              1319.2615              1339.8835
 Red. masses --      3.0034                 1.2364                 1.4375
 Frc consts  --      2.9635                 1.2679                 1.5205
 IR Inten    --      3.6701                 2.9309                20.3160

                     61                     62                     63
                      A                      A                      A
 Frequencies --   1353.8379              1369.8367              1376.9869
 Red. masses --      1.4109                 1.7328                 2.2273
 Frc consts  --      1.5236                 1.9158                 2.4882
 IR Inten    --      7.4195                87.1045                50.1620

                     64                     65                     66
                      A                      A                      A
 Frequencies --   1380.0329              1388.1395              1393.6554
 Red. masses --      1.6833                 1.5580                 1.6221
 Frc consts  --      1.8889                 1.7688                 1.8562
 IR Inten    --      9.7673                18.8973                52.5122

                     67                     68                     69
                      A                      A                      A
 Frequencies --   1441.6018              1453.3775              1473.2872
 Red. masses --      1.4555                 2.5149                 1.1800
 Frc consts  --      1.7821                 3.1299                 1.5091
 IR Inten    --      3.3019               110.1015                11.1637

                     70                     71                     72
                      A                      A                      A
 Frequencies --   1488.5910              1500.4692              1511.0266
 Red. masses --      1.3102                 1.4383                 1.0445
 Frc consts  --      1.7106                 1.9078                 1.4050
 IR Inten    --      6.0603                17.2975                 2.3639

                     73                     74                     75
                      A                      A                      A
 Frequencies --   1516.7517              1519.6658              1531.3277
 Red. masses --      1.1650                 1.0787                 1.2622
 Frc consts  --      1.5790                 1.4677                 1.7439
 IR Inten    --      7.5937                 3.1878                 5.5829

                     76                     77                     78
                      A                      A                      A
 Frequencies --   1535.3372              1543.7062              1546.2335
 Red. masses --      1.0894                 1.0674                 1.1163
 Frc consts  --      1.5130                 1.4986                 1.5725
 IR Inten    --      1.2183                 3.5785                 3.1776

                     79                     80                     81
                      A                      A                      A
 Frequencies --   1553.9970              1562.2099              1583.1000
 Red. masses --      1.2954                 1.4260                 4.6958
 Frc consts  --      1.8431                 2.0505                 6.9339
 IR Inten    --      6.3846                99.3058               116.1755

                     82                     83                     84
                      A                      A                      A
 Frequencies --   1668.1237              1753.6269              2939.0315
 Red. masses --      6.4815                 9.9568                 1.0741
 Frc consts  --     10.6264                18.0402                 5.4666
 IR Inten    --    265.2668               635.2016                56.8442

                     85                     86                     87
                      A                      A                      A
 Frequencies --   2967.5304              3009.2336              3017.2943
 Red. masses --      1.0721                 1.0479                 1.0518
 Frc consts  --      5.5626                 5.5908                 5.6415
 IR Inten    --     62.5832                66.9950                66.6138

                     88                     89                     90
                      A                      A                      A
 Frequencies --   3056.0140              3061.9357              3067.7871
 Red. masses --      1.0731                 1.0713                 1.0893
 Frc consts  --      5.9046                 5.9176                 6.0402
 IR Inten    --     10.9714                 9.9561                25.7251

                     91                     92                     93
                      A                      A                      A
 Frequencies --   3073.4538              3080.5204              3084.9736
 Red. masses --      1.0828                 1.0912                 1.0910
 Frc consts  --      6.0265                 6.1009                 6.1174
 IR Inten    --     57.2682                26.6834                37.1232

                     94                     95                     96
                      A                      A                      A
 Frequencies --   3089.6039              3097.0536              3132.9925
 Red. masses --      1.0864                 1.0889                 1.0934
 Frc consts  --      6.1098                 6.1539                 6.3234
 IR Inten    --     51.6850                57.4736                 6.2939

                     97                     98                     99
                      A                      A                      A
 Frequencies --   3133.2516              3144.8226              3156.7542
 Red. masses --      1.0977                 1.0994                 1.0967
 Frc consts  --      6.3493                 6.4059                 6.4388
 IR Inten    --     23.1868                 2.6760                44.6711

                    100                    101                    102
                      A                      A                      A
 Frequencies --   3247.6312              3261.8661              3516.0630
 Red. masses --      1.0893                 1.0895                 1.0749
 Frc consts  --      6.7694                 6.8301                 7.8293
 IR Inten    --      4.7995                 4.2589                 0.7659

 - Thermochemistry -
 -------------------
 Temperature   298.150 Kelvin.  Pressure   1.00000 Atm.
 Atom     1 has atomic number  6 and mass  12.00000

 Molecular mass:   233.15281 amu.
 Principal axes and moments of inertia in atomic units:
                           1         2         3
     Eigenvalues --  2100.611215463.719276847.95455
           X            0.99992  -0.01263  -0.00264
           Y            0.01263   0.99992   0.00125
           Z            0.00263  -0.00129   1.00000
 This molecule is an asymmetric top.
 Rotational symmetry number  1.
 Warning -- assumption of classical behavior for rotation
           may cause significant error
 Rotational temperatures (Kelvin)      0.04123     0.01585     0.01265
 Rotational constants (GHZ):           0.85915     0.33031     0.26354
 Zero-point vibrational energy     829455.0 (Joules/Mol)
                                  198.24450 (Kcal/Mol)
 Warning -- explicit consideration of  23 degrees of freedom as
           vibrations may cause significant error
 Vibrational temperatures:     59.45    78.44   106.72   128.51   173.66
          (Kelvin)            226.02   252.93   275.81   332.89   392.87
                              411.35   431.46   446.52   469.55   525.82
                              574.34   606.79   669.87   698.58   749.72
                              808.18   863.30   878.45   911.31   950.20
                              991.29  1026.49  1056.90  1091.57  1124.17
                             1173.02  1191.75  1226.01  1247.70  1315.53
                             1325.62  1380.42  1422.42  1454.26  1465.15
                             1503.91  1533.93  1572.25  1580.69  1608.11
                             1642.27  1653.35  1659.28  1662.22  1696.63
                             1729.26  1759.25  1771.33  1792.47  1820.24
                             1836.08  1852.16  1861.96  1898.12  1927.79
                             1947.87  1970.89  1981.18  1985.56  1997.22
                             2005.16  2074.14  2091.09  2119.73  2141.75
                             2158.84  2174.03  2182.27  2186.46  2203.24
                             2209.01  2221.05  2224.69  2235.86  2247.67
                             2277.73  2400.06  2523.08  4228.61  4269.61
                             4329.62  4341.21  4396.92  4405.44  4413.86
                             4422.01  4432.18  4438.59  4445.25  4455.97
                             4507.68  4508.05  4524.70  4541.87  4672.62
                             4693.10  5058.83

 Zero-point correction=                           0.315923 (Hartree/Particle)
 Thermal correction to Energy=                    0.331011
 Thermal correction to Enthalpy=                  0.331955
 Thermal correction to Gibbs Free Energy=         0.273593
 Sum of electronic and zero-point Energies=           -746.055481
 Sum of electronic and thermal Energies=              -746.040393
 Sum of electronic and thermal Enthalpies=            -746.039448
 Sum of electronic and thermal Free Energies=         -746.097810

                     E (Thermal)             CV                S
                      KCal/Mol        Cal/Mol-Kelvin    Cal/Mol-Kelvin
 Total                  207.712             59.625            122.832
 Electronic               0.000              0.000              0.000
 Translational            0.889              2.981             42.241
 Rotational               0.889              2.981             32.730
 Vibrational            205.935             53.663             47.861
 Vibration     1          0.594              1.981              5.195
 Vibration     2          0.596              1.976              4.646
 Vibration     3          0.599              1.966              4.039
 Vibration     4          0.602              1.957              3.675
 Vibration     5          0.609              1.932              3.089
 Vibration     6          0.621              1.895              2.585
 Vibration     7          0.628              1.872              2.373
 Vibration     8          0.634              1.851              2.211
 Vibration     9          0.653              1.793              1.868
 Vibration    10          0.676              1.723              1.577
 Vibration    11          0.684              1.700              1.498
 Vibration    12          0.692              1.674              1.418
 Vibration    13          0.699              1.654              1.360
 Vibration    14          0.710              1.623              1.278
 Vibration    15          0.739              1.543              1.099
 Vibration    16          0.765              1.472              0.966
 Vibration    17          0.784              1.423              0.886
 Vibration    18          0.823              1.326              0.750
 Vibration    19          0.842              1.282              0.695
 Vibration    20          0.876              1.203              0.607
 Vibration    21          0.917              1.114              0.520
 Vibration    22          0.958              1.032              0.450
 Vibration    23          0.970              1.009              0.432

 Optimization completed.
    -- Stationary point found.
 Normal termination of Gaussian 16 at Fri Dec 11 13:27:37 2020.

 ----------------------------------------------------------------------
 # B3LYP/6-311++G(d,p) empiricaldispersion=gd3bj scf=xqc pop=npa geom=c
 heck
 ----------------------------------------------------------------------

 ---------------------------------------
 CID_146646235_JID_7733_Energie_neutraal
 ---------------------------------------
 Structure from the checkpoint file:  "JID_7733.chk"
 Charge =  0 Multiplicity = 1

 SCF Done:  E(RB3LYP) =  -746.575073450     A.U. after   16 cycles
 Normal termination of Gaussian 16 at Fri Dec 11 13:35:43 2020.

 ----------------------------------------------------------------------
 # B3LYP/6-311++G(d,p) empiricaldispersion=gd3bj scf=xqc pop=npa geom=c
 heck
 ----------------------------------------------------------------------

 -------------------------------------
 CID_146646235_JID_7733_Energie_kation
 -------------------------------------
 Structure from the checkpoint file:  "JID_7733.chk"
 Charge =  1 Multiplicity = 2

 SCF Done:  E(UB3LYP) =  -746.311631906     A.U. after   33 cycles
 SCF Done:  E(UB3LYP) =  -746.311631917     a.u. after    2 cycles
 Normal termination of Gaussian 16 at Fri Dec 11 14:13:50 2020.
 Gaussian 16:  ES64L-G16RevA.03 25-Dec-2016

 ----------------------------------------------------------------------
 # B3LYP/6-311++G(d,p) empiricaldispersion=gd3bj scf=xqc pop=npa geom=c
 heck
 ----------------------------------------------------------------------

 ------------------------------------
 CID_146646235_JID_7733_Energie_anion
 ------------------------------------
 Structure from the checkpoint file:  "JID_7733.chk"
 Charge = -1 Multiplicity = 2

                         Standard orientation:
 ---------------------------------------------------------------------
 Center     Atomic      Atomic             Coordinates (Angstroms)
 Number     Number       Type             X           Y           Z
 ---------------------------------------------------------------------
      1          6           0        4.497425    0.216730   -0.418882
      2          7           0        3.391402   -0.603587    0.042549
      3          6           0        3.566607   -2.045131    0.093027
      4          6           0        2.127506   -0.054657    0.081336
      5          6           0        1.897379    1.286848   -0.178836
      6          6           0        0.598807    1.879073   -0.092046
      7          8           0        0.340506    3.073639   -0.265231
      8          7           0       -0.473719    0.984147    0.223425
      9          6           0       -1.786728    1.638449    0.364321
     10          6           0       -2.933242    0.638091    0.335994
     11          6           0       -2.619589   -0.486934    1.331090
     12          6           0       -1.444110   -1.262398    0.733632
     13          6           0       -0.262005   -0.346997    0.464293
     14          6           0        0.998838   -0.875581    0.407145
     15          6           0       -1.920548   -1.976891   -0.577014
     16          7           0       -3.190948   -1.406949   -1.020175
     17          6           0       -3.128882    0.050246   -1.094605
     18          1           0        5.424728   -0.353307   -0.340464
     19          1           0        4.596829    1.113135    0.203210
     20          1           0        4.371142    0.540740   -1.463010
     21          1           0        3.161546   -2.460880    1.022451
     22          1           0        3.087256   -2.561738   -0.752321
     23          1           0        4.633673   -2.272535    0.069963
     24          1           0        2.688930    1.974484   -0.439635
     25          1           0       -1.858445    2.373879   -0.439278
     26          1           0       -1.786877    2.205304    1.303486
     27          1           0       -3.840710    1.167680    0.644969
     28          1           0       -3.477582   -1.148883    1.464031
     29          1           0       -2.353115   -0.065346    2.307547
     30          1           0       -1.091512   -2.028450    1.430247
     31          1           0        1.110193   -1.933324    0.599678
     32          1           0       -2.079044   -3.042388   -0.375105
     33          1           0       -1.119259   -1.897833   -1.332277
     34          1           0       -3.451283   -1.798905   -1.921343
     35          1           0       -2.310663    0.405846   -1.749322
     36          1           0       -4.065743    0.413051   -1.528294
 ---------------------------------------------------------------------

 SCF Done:  E(UB3LYP) =  -746.567683293     A.U. after   31 cycles

 The electronic state is 2-A.
 Alpha  occ. eigenvalues --  -18.97053 -14.26630 -14.24740 -14.20814 -10.16069
 Alpha  occ. eigenvalues --  -10.13282 -10.12986 -10.11324 -10.11111 -10.10611
 Alpha  occ. eigenvalues --  -10.10480 -10.10282 -10.09647 -10.09219 -10.07980
 Alpha  occ. eigenvalues --  -10.06917 -10.05752  -0.92975  -0.86714  -0.85911
 Alpha  occ. eigenvalues --   -0.82397  -0.72959  -0.71563  -0.68542  -0.64762
 Alpha  occ. eigenvalues --   -0.62664  -0.61240  -0.57953  -0.55886  -0.53403
 Alpha  occ. eigenvalues --   -0.52467  -0.49109  -0.43708  -0.43367  -0.42452
 Alpha  occ. eigenvalues --   -0.41870  -0.39447  -0.39144  -0.38513  -0.37748
 Alpha  occ. eigenvalues --   -0.36385  -0.34797  -0.33381  -0.32696  -0.32331
 Alpha  occ. eigenvalues --   -0.31810  -0.31388  -0.31144  -0.30996  -0.30275
 Alpha  occ. eigenvalues --   -0.29515  -0.27881  -0.27499  -0.26801  -0.25112
 Alpha  occ. eigenvalues --   -0.23542  -0.23012  -0.22618  -0.21111  -0.15298
 Alpha  occ. eigenvalues --   -0.13804  -0.12645  -0.10883   0.03662
 Alpha virt. eigenvalues --    0.05382   0.06461   0.06952   0.07227   0.07893
 Alpha virt. eigenvalues --    0.08521   0.09062   0.09252   0.09883   0.10244
 Alpha virt. eigenvalues --    0.10605   0.11008   0.11461   0.11779   0.12551

  Beta  occ. eigenvalues --  -18.97050 -14.26627 -14.24738 -14.20795 -10.16066
  Beta  occ. eigenvalues --  -10.13283 -10.12981 -10.11322 -10.11080 -10.10560
  Beta  occ. eigenvalues --  -10.10466 -10.10260 -10.09636 -10.09215 -10.07966
  Beta  occ. eigenvalues --  -10.06906 -10.05750  -0.92969  -0.86703  -0.85899
  Beta  occ. eigenvalues --   -0.82366  -0.72944  -0.71537  -0.68520  -0.64721
  Beta  occ. eigenvalues --   -0.62629  -0.61208  -0.57913  -0.55845  -0.53377
  Beta  occ. eigenvalues --   -0.52439  -0.49068  -0.43669  -0.43323  -0.42409
  Beta  occ. eigenvalues --   -0.41840  -0.39426  -0.39121  -0.38497  -0.37716
  Beta  occ. eigenvalues --   -0.36358  -0.34769  -0.33355  -0.32661  -0.32295
  Beta  occ. eigenvalues --   -0.31768  -0.31363  -0.31123  -0.30960  -0.30245
  Beta  occ. eigenvalues --   -0.29491  -0.27851  -0.27477  -0.26780  -0.25090
  Beta  occ. eigenvalues --   -0.23524  -0.22986  -0.22583  -0.21097  -0.15292
  Beta  occ. eigenvalues --   -0.13775  -0.12625  -0.10871
  Beta virt. eigenvalues --    0.05765   0.06337   0.06868   0.07488   0.07641
  Beta virt. eigenvalues --    0.08434   0.08842   0.09553   0.09663   0.10065
  Beta virt. eigenvalues --    0.10560   0.10761   0.11300   0.11629   0.12103

 Mulliken charges and spin densities:
               1          2
     1  C    0.208590  -0.569017
     2  N   -0.190467   0.246753
     3  C    0.902917  -1.281867
     4  C   -1.044003   0.496599
     5  C    0.206352  -0.398422
     6  C    0.178026  -0.118745
     7  O   -0.371690  -0.003770
     8  N    0.056192   0.045778
     9  C   -0.468367   0.105144
    10  C    0.519198  -0.204703
    11  C   -0.330702  -0.314146
    12  C    0.010640   0.380553
    13  C    0.096031  -0.164390
    14  C   -0.107775  -0.105195
    15  C    0.898144  -1.491577
    16  N   -0.338705   0.160005
    17  C    0.067737  -0.573342
    18  H   -0.301505   0.448661
    19  H   -0.021122   0.166549
    20  H    0.022968   0.137350
    21  H   -0.511502   0.671264
    22  H   -0.222037   0.398232
    23  H   -0.483653   0.628299
    24  H    0.182148   0.004721
    25  H    0.215926  -0.002846
    26  H    0.155877   0.039544
    27  H    0.050527   0.180589
    28  H    0.015609   0.198616
    29  H   -0.007458   0.151665
    30  H   -0.378763   0.643253
    31  H    0.480041  -0.282195
    32  H   -0.424523   0.600511
    33  H    0.049270   0.115697
    34  H   -0.037744   0.294302
    35  H    0.080500   0.071795
    36  H   -0.156679   0.324334
 Sum of Mulliken charges =  -1.00000   1.00000

 Dipole moment (field-independent basis, Debye):
    X=             -2.9698    Y=              3.5671    Z=              0.3285  Tot=              4.6532
 Quadrupole moment (field-independent basis, Debye-Ang):
   XX=           -181.8929   YY=           -168.5838   ZZ=           -133.5210
   XY=              3.6186   XZ=             -3.8588   YZ=              3.3598

 Summary of Natural Population Analysis:

                                       Natural Population
                Natural  -----------------------------------------------
    Atom  No    Charge         Core      Valence    Rydberg      Total
 -----------------------------------------------------------------------
      C    1   -0.17461      0.99964     2.16675    0.00822     3.17461
      N    2   -0.24257      0.99965     2.73195    0.01096     3.74257
      C    3   -0.17494      0.99964     2.16696    0.00834     3.17494
      C    4    0.12347      0.99950     1.86525    0.01178     2.87653
      C    5   -0.19799      0.99950     2.19012    0.00836     3.19799
      C    6    0.31408      0.99960     1.66489    0.02142     2.68592
      O    7   -0.34602      0.99988     3.34069    0.00545     4.34602
      N    8   -0.23207      0.99959     2.72397    0.00850     3.73207
      C    9   -0.08099      0.99958     2.07112    0.01029     3.08099
      C   10   -0.12217      0.99959     2.11083    0.01175     3.12217
      C   11   -0.18941      0.99961     2.17958    0.01022     3.18941
      C   12   -0.13103      0.99956     2.11901    0.01246     3.13103
      C   13    0.13869      0.99949     1.84882    0.01300     2.86131
      C   14   -0.16397      0.99947     2.15586    0.00864     3.16397
      C   15   -0.07883      0.99961     2.06737    0.01186     3.07883
      N   16   -0.34328      0.99974     2.83211    0.01143     3.84328
      C   17   -0.08776      0.99962     2.07608    0.01207     3.08776
      H   18    0.10089      0.00000     0.39817    0.00094     0.39911
      H   19    0.09674      0.00000     0.40199    0.00127     0.40326
      H   20    0.09216      0.00000     0.40659    0.00125     0.40784
      H   21    0.09915      0.00000     0.39903    0.00182     0.40085
      H   22    0.09417      0.00000     0.40413    0.00170     0.40583
      H   23    0.10144      0.00000     0.39684    0.00171     0.39856
      H   24    0.10895      0.00000     0.38984    0.00121     0.39105
      H   25    0.11303      0.00000     0.38567    0.00130     0.38697
      H   26    0.09916      0.00000     0.39975    0.00108     0.40084
      H   27    0.10414      0.00000     0.39508    0.00078     0.39586
      H   28    0.11167      0.00000     0.38692    0.00141     0.38833
      H   29    0.10102      0.00000     0.39789    0.00109     0.39898
      H   30    0.11442      0.00000     0.38360    0.00198     0.38558
      H   31    0.11150      0.00000     0.38683    0.00167     0.38850
      H   32    0.09879      0.00000     0.39943    0.00178     0.40121
      H   33    0.08524      0.00000     0.41308    0.00168     0.41476
      H   34    0.17921      0.00000     0.31790    0.00289     0.32079
      H   35    0.07964      0.00000     0.41873    0.00163     0.42036
      H   36    0.09806      0.00000     0.40092    0.00102     0.40194
 =======================================================================
   * Total *   -0.00000     16.99327    45.79378    0.21296    63.00000

 Normal termination of Gaussian 16 at Fri Dec 11 14:34:03 2020.
