 Gaussian 16, Revision A.03,

 -----------------------------------------------------------
 # opt freq B3LYP/6-31G(d) empiricaldispersion=gd3bj scf=xqc
 -----------------------------------------------------------

 -----------------------------
 CID_23590741_JID_948_neutraal
 -----------------------------
 Symbolic Z-matrix:
 Charge =  0 Multiplicity = 1

 SCF Done:  E(RB3LYP) =  -479.806946776     A.U. after   14 cycles
 SCF Done:  E(RB3LYP) =  -479.809573440     A.U. after   12 cycles
 SCF Done:  E(RB3LYP) =  -479.809819658     A.U. after   11 cycles
 SCF Done:  E(RB3LYP) =  -479.809808662     A.U. after   10 cycles
 SCF Done:  E(RB3LYP) =  -479.809784053     A.U. after   10 cycles
 SCF Done:  E(RB3LYP) =  -479.809849498     A.U. after   10 cycles
 SCF Done:  E(RB3LYP) =  -479.809855348     A.U. after    8 cycles
 SCF Done:  E(RB3LYP) =  -479.809855680     A.U. after    7 cycles
 SCF Done:  E(RB3LYP) =  -479.809855760     A.U. after    7 cycles
 SCF Done:  E(RB3LYP) =  -479.809855863     A.U. after    7 cycles
 SCF Done:  E(RB3LYP) =  -479.809856004     A.U. after    8 cycles
 SCF Done:  E(RB3LYP) =  -479.809856152     A.U. after    7 cycles
 SCF Done:  E(RB3LYP) =  -479.809856271     A.U. after    7 cycles
 SCF Done:  E(RB3LYP) =  -479.809856325     A.U. after    6 cycles
 Optimization completed.
    -- Stationary point found.
 Normal termination of Gaussian 16 at Tue Dec  8 13:31:26 2020.

 --------------------------------------------------------------------
 #N Geom=AllCheck Guess=TCheck SCRF=Check GenChk RB3LYP/6-31G(d) Freq
 --------------------------------------------------------------------

 Structure from the checkpoint file:  "JID_948.chk"
 -----------------------------
 CID_23590741_JID_948_neutraal
 -----------------------------
 Charge =  0 Multiplicity = 1

 SCF Done:  E(RB3LYP) =  -479.809856325     A.U. after    1 cycles

  Exact polarizability:  97.756  -2.004  80.566   1.079   2.658  72.656
 Approx polarizability: 114.781  -6.082 116.555   1.667  10.882 111.527

                      1                      2                      3
                      A                      A                      A
 Frequencies --     32.1632                52.0020                70.3138
 Red. masses --      2.6129                 1.2593                 4.0794
 Frc consts  --      0.0016                 0.0020                 0.0119
 IR Inten    --      0.2355                 1.9604                 0.5475

                      4                      5                      6
                      A                      A                      A
 Frequencies --    108.1448               163.9807               209.5130
 Red. masses --      2.4698                 3.2993                 2.8057
 Frc consts  --      0.0170                 0.0523                 0.0726
 IR Inten    --      1.3803                 5.6008                 3.0589

                      7                      8                      9
                      A                      A                      A
 Frequencies --    262.2098               314.6472               323.6744
 Red. masses --      1.0630                 2.8409                 3.1382
 Frc consts  --      0.0431                 0.1657                 0.1937
 IR Inten    --      0.7111                 1.5852                 3.8384

                     10                     11                     12
                      A                      A                      A
 Frequencies --    350.8212               415.0469               479.6653
 Red. masses --      2.0424                 2.7783                 3.0486
 Frc consts  --      0.1481                 0.2820                 0.4133
 IR Inten    --      4.6326                 3.5320                 7.1467

                     13                     14                     15
                      A                      A                      A
 Frequencies --    567.0933               605.9836               635.7674
 Red. masses --      3.2512                 2.9530                 3.8004
 Frc consts  --      0.6160                 0.6389                 0.9051
 IR Inten    --      1.0274                 4.5401                 6.9682

                     16                     17                     18
                      A                      A                      A
 Frequencies --    685.1841               816.1144               879.6985
 Red. masses --      2.7188                 2.2341                 3.3431
 Frc consts  --      0.7520                 0.8767                 1.5243
 IR Inten    --      0.5497                13.5373                 0.9429

                     19                     20                     21
                      A                      A                      A
 Frequencies --    918.0948               919.1279               963.3850
 Red. masses --      2.8168                 3.3129                 1.9726
 Frc consts  --      1.3989                 1.6489                 1.0787
 IR Inten    --      5.0403                10.5583                 1.8730

                     22                     23                     24
                      A                      A                      A
 Frequencies --   1005.6136              1023.3997              1052.2160
 Red. masses --      2.6134                 1.4867                 1.9321
 Frc consts  --      1.5571                 0.9174                 1.2603
 IR Inten    --      8.0050                 5.3240                79.4080

                     25                     26                     27
                      A                      A                      A
 Frequencies --   1073.4260              1077.5439              1099.0729
 Red. masses --      1.8580                 1.8092                 2.2721
 Frc consts  --      1.2614                 1.2376                 1.6171
 IR Inten    --     11.7785                13.3725                12.9176

                     28                     29                     30
                      A                      A                      A
 Frequencies --   1126.4838              1159.9419              1191.6534
 Red. masses --      1.8808                 1.4288                 1.9087
 Frc consts  --      1.4062                 1.1327                 1.5969
 IR Inten    --     18.3615                32.3122                19.7234

                     31                     32                     33
                      A                      A                      A
 Frequencies --   1220.9264              1239.5834              1283.6625
 Red. masses --      1.3467                 1.5617                 1.7516
 Frc consts  --      1.1828                 1.4138                 1.7005
 IR Inten    --      6.6573                23.3257                26.6029

                     34                     35                     36
                      A                      A                      A
 Frequencies --   1284.3891              1293.8124              1324.1916
 Red. masses --      2.5589                 2.4721                 1.4285
 Frc consts  --      2.4871                 2.4382                 1.4758
 IR Inten    --    235.7497               166.0800                15.9650

                     37                     38                     39
                      A                      A                      A
 Frequencies --   1345.1214              1374.3431              1395.7269
 Red. masses --      1.3675                 1.3925                 1.4736
 Frc consts  --      1.4578                 1.5497                 1.6914
 IR Inten    --      0.5215                 3.2307                17.9362

                     40                     41                     42
                      A                      A                      A
 Frequencies --   1417.3160              1429.4985              1481.9872
 Red. masses --      1.3817                 1.4583                 1.1901
 Frc consts  --      1.6353                 1.7558                 1.5400
 IR Inten    --     20.8053                38.7850                 1.5193

                     43                     44                     45
                      A                      A                      A
 Frequencies --   1500.8868              1505.3707              1506.0171
 Red. masses --      1.0527                 1.0485                 1.0935
 Frc consts  --      1.3972                 1.4000                 1.4613
 IR Inten    --     12.6371                 9.8660                 2.9755

                     46                     47                     48
                      A                      A                      A
 Frequencies --   1517.2659              1527.6730              1533.6224
 Red. masses --      1.0509                 1.0800                 1.0549
 Frc consts  --      1.4254                 1.4850                 1.4618
 IR Inten    --     13.5467                 4.4591                 1.5569

                     49                     50                     51
                      A                      A                      A
 Frequencies --   1550.9353              1826.5297              2917.8877
 Red. masses --      1.1044                11.0152                 1.0727
 Frc consts  --      1.5652                21.6520                 5.3809
 IR Inten    --      6.7777               206.5882                43.9845

                     52                     53                     54
                      A                      A                      A
 Frequencies --   2930.9647              2943.8340              3071.8068
 Red. masses --      1.0645                 1.0721                 1.0370
 Frc consts  --      5.3877                 5.4741                 5.7655
 IR Inten    --     66.3111               115.8770                 2.6730

                     55                     56                     57
                      A                      A                      A
 Frequencies --   3076.8015              3083.6040              3094.5202
 Red. masses --      1.0698                 1.0725                 1.0782
 Frc consts  --      5.9670                 6.0087                 6.0832
 IR Inten    --     40.4800                16.9861                46.6424

                     58                     59                     60
                      A                      A                      A
 Frequencies --   3108.6128              3120.3914              3129.9621
 Red. masses --      1.0885                 1.1042                 1.0886
 Frc consts  --      6.1972                 6.3348                 6.2836
 IR Inten    --     15.8008                29.6103                19.6568

                     61                     62                     63
                      A                      A                      A
 Frequencies --   3134.0044              3143.4919              3184.0088
 Red. masses --      1.1006                 1.1039                 1.1033
 Frc consts  --      6.3689                 6.4270                 6.5898
 IR Inten    --      6.5325                21.7529                 8.1551

 - Thermochemistry -
 -------------------
 Temperature   298.150 Kelvin.  Pressure   1.00000 Atm.
 Atom     1 has atomic number  6 and mass  12.00000

 Molecular mass:   143.09463 amu.
 Principal axes and moments of inertia in atomic units:
                           1         2         3
     Eigenvalues --   649.211542415.702512675.57403
           X            0.99990   0.01344   0.00513
           Y           -0.01323   0.99913  -0.03954
           Z           -0.00566   0.03947   0.99920
 This molecule is an asymmetric top.
 Rotational symmetry number  1.
 Warning -- assumption of classical behavior for rotation
           may cause significant error
 Rotational temperatures (Kelvin)      0.13341     0.03585     0.03237
 Rotational constants (GHZ):           2.77990     0.74709     0.67452
 Zero-point vibrational energy     526839.8 (Joules/Mol)
                                  125.91773 (Kcal/Mol)
 Warning -- explicit consideration of  14 degrees of freedom as
           vibrations may cause significant error
 Vibrational temperatures:     46.28    74.82   101.17   155.60   235.93
          (Kelvin)            301.44   377.26   452.71   465.70   504.75
                              597.16   690.13   815.92   871.88   914.73
                              985.83  1174.21  1265.69  1320.93  1322.42
                             1386.10  1446.85  1472.44  1513.90  1544.42
                             1550.35  1581.32  1620.76  1668.90  1714.52
                             1756.64  1783.48  1846.90  1847.95  1861.51
                             1905.22  1935.33  1977.37  2008.14  2039.20
                             2056.73  2132.25  2159.44  2165.89  2166.82
                             2183.01  2197.98  2206.54  2231.45  2627.97
                             4198.19  4217.00  4235.52  4419.64  4426.83
                             4436.62  4452.32  4472.60  4489.55  4503.32
                             4509.13  4522.78  4581.08

 Zero-point correction=                           0.200663 (Hartree/Particle)
 Thermal correction to Energy=                    0.211297
 Thermal correction to Enthalpy=                  0.212241
 Thermal correction to Gibbs Free Energy=         0.163093
 Sum of electronic and zero-point Energies=           -479.609194
 Sum of electronic and thermal Energies=              -479.598560
 Sum of electronic and thermal Enthalpies=            -479.597616
 Sum of electronic and thermal Free Energies=         -479.646764

                     E (Thermal)             CV                S
                      KCal/Mol        Cal/Mol-Kelvin    Cal/Mol-Kelvin
 Total                  132.591             38.070            103.441
 Electronic               0.000              0.000              0.000
 Translational            0.889              2.981             40.786
 Rotational               0.889              2.981             29.819
 Vibrational            130.813             32.108             32.836
 Vibration     1          0.594              1.983              5.691
 Vibration     2          0.596              1.977              4.740
 Vibration     3          0.598              1.968              4.145
 Vibration     4          0.606              1.943              3.302
 Vibration     5          0.623              1.887              2.503
 Vibration     6          0.642              1.826              2.048
 Vibration     7          0.670              1.742              1.647
 Vibration     8          0.702              1.646              1.338
 Vibration     9          0.708              1.628              1.291
 Vibration    10          0.728              1.574              1.163
 Vibration    11          0.778              1.438              0.909
 Vibration    12          0.836              1.295              0.711
 Vibration    13          0.923              1.102              0.510
 Vibration    14          0.965              1.019              0.439

                           ! Non-Optimized Parameters !
 Normal termination of Gaussian 16 at Tue Dec  8 13:36:32 2020.

 ----------------------------------------------------------------------
 # B3LYP/6-311++G(d,p) empiricaldispersion=gd3bj scf=xqc pop=npa geom=c
 heck
 ----------------------------------------------------------------------

 -------------------------------------
 CID_23590741_JID_948_Energie_neutraal
 -------------------------------------
 Structure from the checkpoint file:  "JID_948.chk"
 Charge =  0 Multiplicity = 1

 SCF Done:  E(RB3LYP) =  -479.950590261     A.U. after   13 cycles
 Normal termination of Gaussian 16 at Tue Dec  8 13:38:52 2020.

 ----------------------------------------------------------------------
 # B3LYP/6-311++G(d,p) empiricaldispersion=gd3bj scf=xqc pop=npa geom=c
 heck
 ----------------------------------------------------------------------

 -----------------------------------
 CID_23590741_JID_948_Energie_kation
 -----------------------------------
 Structure from the checkpoint file:  "JID_948.chk"
 Charge =  1 Multiplicity = 2

 SCF Done:  E(UB3LYP) =  -479.644025100     A.U. after   21 cycles
 Normal termination of Gaussian 16 at Tue Dec  8 13:45:20 2020.
 Gaussian 16:  ES64L-G16RevA.03 25-Dec-2016

 ----------------------------------------------------------------------
 # B3LYP/6-311++G(d,p) empiricaldispersion=gd3bj scf=xqc pop=npa geom=c
 heck
 ----------------------------------------------------------------------

 ----------------------------------
 CID_23590741_JID_948_Energie_anion
 ----------------------------------
 Structure from the checkpoint file:  "JID_948.chk"
 Charge = -1 Multiplicity = 2

                         Standard orientation:
 ---------------------------------------------------------------------
 Center     Atomic      Atomic             Coordinates (Angstroms)
 Number     Number       Type             X           Y           Z
 ---------------------------------------------------------------------
      1          6           0        3.357999    0.050817    0.933605
      2          6           0        2.221040   -0.236561   -0.017456
      3          8           0        2.209819   -1.109866   -0.858184
      4          8           0        1.195749    0.620203    0.187937
      5          6           0        0.053312    0.454497   -0.688689
      6          6           0       -0.900795    1.636935   -0.442652
      7          6           0       -2.022175    1.022676    0.400272
      8          7           0       -2.137690   -0.314019   -0.174368
      9          6           0       -0.765849   -0.799201   -0.311334
     10          6           0       -3.008899   -1.215184    0.550036
     11          1           0        4.169910   -0.654162    0.753513
     12          1           0        3.011051   -0.035191    1.968447
     13          1           0        3.715326    1.076152    0.793608
     14          1           0        0.426746    0.407871   -1.712598
     15          1           0       -1.303329    1.986733   -1.397747
     16          1           0       -0.384578    2.467668    0.044047
     17          1           0       -2.973282    1.560328    0.323593
     18          1           0       -1.731765    0.994884    1.470289
     19          1           0       -0.369980   -1.197306    0.642668
     20          1           0       -0.699933   -1.595445   -1.057864
     21          1           0       -3.057449   -2.179559    0.032778
     22          1           0       -2.669563   -1.400623    1.589034
     23          1           0       -4.021649   -0.799793    0.590097
 ---------------------------------------------------------------------

 SCF Done:  E(UB3LYP) =  -479.933354831     A.U. after   30 cycles

 The electronic state is 2-A.
 Alpha  occ. eigenvalues --  -19.06379 -19.01114 -14.20293 -10.20206 -10.13190
 Alpha  occ. eigenvalues --  -10.09048 -10.08823 -10.08395 -10.07418 -10.07003
 Alpha  occ. eigenvalues --   -1.00609  -0.92023  -0.83557  -0.69544  -0.64962
 Alpha  occ. eigenvalues --   -0.62204  -0.58005  -0.51158  -0.48235  -0.45805
 Alpha  occ. eigenvalues --   -0.40965  -0.39145  -0.37704  -0.36899  -0.35890
 Alpha  occ. eigenvalues --   -0.34423  -0.32580  -0.30842  -0.30755  -0.28704
 Alpha  occ. eigenvalues --   -0.28151  -0.26597  -0.26323  -0.25511  -0.24642
 Alpha  occ. eigenvalues --   -0.23458  -0.20276  -0.17951  -0.11955   0.04765
 Alpha virt. eigenvalues --    0.06618   0.07777   0.08558   0.09106   0.09550
 Alpha virt. eigenvalues --    0.10572   0.10667   0.11249   0.11421   0.12279
 Alpha virt. eigenvalues --    0.12366   0.13725   0.13877   0.15600   0.16426

  Beta  occ. eigenvalues --  -19.06369 -19.01104 -14.20281 -10.20201 -10.13185
  Beta  occ. eigenvalues --  -10.09033 -10.08796 -10.08360 -10.07360 -10.06987
  Beta  occ. eigenvalues --   -1.00593  -0.92005  -0.83533  -0.69513  -0.64906
  Beta  occ. eigenvalues --   -0.62157  -0.57944  -0.51111  -0.48157  -0.45779
  Beta  occ. eigenvalues --   -0.40909  -0.39097  -0.37667  -0.36861  -0.35850
  Beta  occ. eigenvalues --   -0.34376  -0.32544  -0.30803  -0.30708  -0.28660
  Beta  occ. eigenvalues --   -0.28115  -0.26558  -0.26277  -0.25479  -0.24611
  Beta  occ. eigenvalues --   -0.23423  -0.20261  -0.17931  -0.11889
  Beta virt. eigenvalues --    0.07114   0.07814   0.08376   0.09106   0.09709
  Beta virt. eigenvalues --    0.10266   0.10974   0.11127   0.11534   0.11934
  Beta virt. eigenvalues --    0.12679   0.13081   0.14141   0.14194   0.15695

 Mulliken charges and spin densities:
               1          2
     1  C    1.989334  -2.560889
     2  C   -0.991337   1.173325
     3  O   -0.272814   0.007543
     4  O    0.014692   0.060663
     5  C   -0.160985  -0.203866
     6  C    0.163147  -0.498144
     7  C    0.337633  -0.647896
     8  N   -0.209792   0.286042
     9  C    0.039260  -0.339530
    10  C    0.567643  -0.850024
    11  H   -0.111149   0.271186
    12  H   -0.608798   0.788815
    13  H   -0.550518   0.724332
    14  H    0.060562   0.166371
    15  H    0.044749   0.098064
    16  H   -0.179117   0.345963
    17  H   -0.471447   0.654691
    18  H    0.046514   0.076644
    19  H    0.123093   0.045693
    20  H    0.090830   0.097805
    21  H   -0.231967   0.363456
    22  H   -0.233414   0.342488
    23  H   -0.456120   0.597267
 Sum of Mulliken charges =  -1.00000   1.00000

 Dipole moment (field-independent basis, Debye):
    X=              0.0707    Y=             -0.3329    Z=             -2.9940  Tot=              3.0133
 Quadrupole moment (field-independent basis, Debye-Ang):
   XX=           -137.9449   YY=            -96.1538   ZZ=            -95.0481
   XY=             -1.2351   XZ=             -3.8366   YZ=             -2.7469

 Summary of Natural Population Analysis:

                                       Natural Population
                Natural  -----------------------------------------------
    Atom  No    Charge         Core      Valence    Rydberg      Total
 -----------------------------------------------------------------------
      C    1   -0.33202      0.99962     2.32701    0.00539     3.33202
      C    2    0.40929      0.99971     1.56606    0.02494     2.59071
      O    3   -0.30967      0.99987     3.30367    0.00613     4.30967
      O    4   -0.28605      0.99986     3.27570    0.01049     4.28605
      C    5    0.05934      0.99953     1.92732    0.01381     2.94066
      C    6   -0.20079      0.99961     2.19170    0.00948     3.20079
      C    7   -0.08468      0.99963     2.07330    0.01175     3.08468
      N    8   -0.27991      0.99972     2.76669    0.01350     3.77991
      C    9   -0.09168      0.99960     2.08281    0.00926     3.09168
      C   10   -0.17585      0.99965     2.16679    0.00941     3.17585
      H   11    0.10865      0.00000     0.39031    0.00104     0.39135
      H   12    0.11728      0.00000     0.38015    0.00257     0.38272
      H   13    0.11508      0.00000     0.38285    0.00208     0.38492
      H   14    0.09712      0.00000     0.40173    0.00115     0.40288
      H   15    0.10207      0.00000     0.39657    0.00137     0.39793
      H   16    0.10931      0.00000     0.38941    0.00128     0.39069
      H   17    0.09920      0.00000     0.39882    0.00198     0.40080
      H   18    0.08124      0.00000     0.41688    0.00188     0.41876
      H   19    0.08684      0.00000     0.41143    0.00172     0.41316
      H   20    0.10202      0.00000     0.39657    0.00141     0.39798
      H   21    0.09470      0.00000     0.40406    0.00124     0.40530
      H   22    0.08094      0.00000     0.41736    0.00170     0.41906
      H   23    0.09755      0.00000     0.40077    0.00168     0.40245
 =======================================================================
   * Total *    0.00000      9.99679    28.86796    0.13525    39.00000

 Normal termination of Gaussian 16 at Tue Dec  8 13:51:18 2020.
