 Gaussian 16, Revision A.03,

 -----------------------------------------------------------
 # opt freq B3LYP/6-31G(d) empiricaldispersion=gd3bj scf=xqc
 -----------------------------------------------------------

 ------------------------------
 CID_75417642_JID_7296_neutraal
 ------------------------------
 Symbolic Z-matrix:
 Charge =  0 Multiplicity = 1

 SCF Done:  E(RB3LYP) =  -803.323175509     A.U. after   14 cycles
 SCF Done:  E(RB3LYP) =  -803.327736499     A.U. after   13 cycles
 SCF Done:  E(RB3LYP) =  -803.327277441     A.U. after   12 cycles
 SCF Done:  E(RB3LYP) =  -803.328713523     A.U. after   12 cycles
 SCF Done:  E(RB3LYP) =  -803.329089914     A.U. after   12 cycles
 SCF Done:  E(RB3LYP) =  -803.329226941     A.U. after   12 cycles
 SCF Done:  E(RB3LYP) =  -803.329358522     A.U. after   11 cycles
 SCF Done:  E(RB3LYP) =  -803.329435498     A.U. after   11 cycles
 SCF Done:  E(RB3LYP) =  -803.329491530     A.U. after   11 cycles
 SCF Done:  E(RB3LYP) =  -803.329556051     A.U. after   11 cycles
 SCF Done:  E(RB3LYP) =  -803.333282788     A.U. after    7 cycles
 SCF Done:  E(RB3LYP) =  -803.333282826     A.U. after    7 cycles
 SCF Done:  E(RB3LYP) =  -803.333282821     A.U. after    7 cycles
 SCF Done:  E(RB3LYP) =  -803.333282814     A.U. after    6 cycles
 Optimization completed.
    -- Stationary point found.
 Normal termination of Gaussian 16 at Fri Dec 11 12:35:51 2020.

 --------------------------------------------------------------------
 #N Geom=AllCheck Guess=TCheck SCRF=Check GenChk RB3LYP/6-31G(d) Freq
 --------------------------------------------------------------------

 Structure from the checkpoint file:  "JID_7296.chk"
 ------------------------------
 CID_75417642_JID_7296_neutraal
 ------------------------------
 Charge =  0 Multiplicity = 1

 SCF Done:  E(RB3LYP) =  -803.333282814     A.U. after    1 cycles

  Exact polarizability: 162.230   4.171 135.268 -10.846  10.728 120.557
 Approx polarizability: 213.529   9.254 202.681 -18.300  21.473 187.475

                      1                      2                      3
                      A                      A                      A
 Frequencies --     11.0513                32.4826                43.5513
 Red. masses --      3.8316                 7.3101                 4.9361
 Frc consts  --      0.0003                 0.0045                 0.0055
 IR Inten    --      0.9545                 1.3908                 1.0461

                      4                      5                      6
                      A                      A                      A
 Frequencies --     58.4072                66.8223                79.1757
 Red. masses --      1.1041                 3.6551                 5.2239
 Frc consts  --      0.0022                 0.0096                 0.0193
 IR Inten    --      0.1445                 2.0898                 0.8375

                      7                      8                      9
                      A                      A                      A
 Frequencies --     94.8115               104.4317               129.7336
 Red. masses --      3.0525                 2.7896                 5.5230
 Frc consts  --      0.0162                 0.0179                 0.0548
 IR Inten    --      0.9311                 3.2192                 4.0953

                     10                     11                     12
                      A                      A                      A
 Frequencies --    150.2062               190.0466               208.2418
 Red. masses --      3.1204                 3.2508                 3.9812
 Frc consts  --      0.0415                 0.0692                 0.1017
 IR Inten    --      2.0678                 1.6519                 8.2415

                     13                     14                     15
                      A                      A                      A
 Frequencies --    270.0234               282.6128               298.2654
 Red. masses --      2.8224                 2.2430                 3.5364
 Frc consts  --      0.1212                 0.1056                 0.1854
 IR Inten    --      1.9086                 1.5742                 8.7070

                     16                     17                     18
                      A                      A                      A
 Frequencies --    308.8646               377.8262               412.1945
 Red. masses --      2.4104                 3.6610                 2.5557
 Frc consts  --      0.1355                 0.3079                 0.2558
 IR Inten    --      3.5195                 1.9789                 1.9911

                     19                     20                     21
                      A                      A                      A
 Frequencies --    428.9968               505.4145               588.0015
 Red. masses --      4.3407                 3.0732                 3.1848
 Frc consts  --      0.4707                 0.4625                 0.6488
 IR Inten    --      4.5166                 1.9777                 3.9243

                     22                     23                     24
                      A                      A                      A
 Frequencies --    614.5204               643.5107               669.0247
 Red. masses --      3.7541                 4.7704                 5.7552
 Frc consts  --      0.8353                 1.1639                 1.5177
 IR Inten    --      1.9261                 1.5307                13.5625

                     25                     26                     27
                      A                      A                      A
 Frequencies --    693.0949               739.3108               751.5186
 Red. masses --      2.9421                 3.4547                 3.5943
 Frc consts  --      0.8327                 1.1125                 1.1960
 IR Inten    --     11.5235                 5.0647                 2.4858

                     28                     29                     30
                      A                      A                      A
 Frequencies --    776.5728               811.0678               819.8430
 Red. masses --      1.3913                 1.9178                 2.1493
 Frc consts  --      0.4944                 0.7433                 0.8512
 IR Inten    --     11.0581                 3.0046                 0.9080

                     31                     32                     33
                      A                      A                      A
 Frequencies --    838.1551               875.2659               897.8288
 Red. masses --      2.3041                 3.3508                 3.3981
 Frc consts  --      0.9537                 1.5125                 1.6139
 IR Inten    --      3.5968                 5.0079                 4.5957

                     34                     35                     36
                      A                      A                      A
 Frequencies --    925.0626               930.5533               934.3957
 Red. masses --      2.1417                 3.3011                 1.3793
 Frc consts  --      1.0798                 1.6842                 0.7095
 IR Inten    --      7.2387                29.6543                19.6536

                     37                     38                     39
                      A                      A                      A
 Frequencies --    946.5971               985.6743              1012.0796
 Red. masses --      2.3371                 2.7452                 3.7768
 Frc consts  --      1.2339                 1.5714                 2.2793
 IR Inten    --     11.2317                11.4399                27.6441

                     40                     41                     42
                      A                      A                      A
 Frequencies --   1015.5056              1032.8628              1050.3934
 Red. masses --      2.0657                 2.6681                 2.2315
 Frc consts  --      1.2551                 1.6770                 1.4506
 IR Inten    --      3.8367                 4.7858                 4.1941

                     43                     44                     45
                      A                      A                      A
 Frequencies --   1071.7239              1080.5791              1095.5643
 Red. masses --      2.2161                 1.5523                 2.3641
 Frc consts  --      1.4997                 1.0680                 1.6718
 IR Inten    --      4.3964                 7.2765                42.8234

                     46                     47                     48
                      A                      A                      A
 Frequencies --   1102.3425              1116.3664              1139.6060
 Red. masses --      1.9574                 2.4550                 3.2219
 Frc consts  --      1.4014                 1.8026                 2.4653
 IR Inten    --     24.2235                14.3456               145.8062

                     49                     50                     51
                      A                      A                      A
 Frequencies --   1157.9467              1189.3328              1205.8502
 Red. masses --      1.3317                 1.6051                 1.5773
 Frc consts  --      1.0520                 1.3377                 1.3513
 IR Inten    --     12.3067                13.8719                 5.7202

                     52                     53                     54
                      A                      A                      A
 Frequencies --   1220.7877              1227.8187              1247.8693
 Red. masses --      1.5055                 1.2971                 1.2263
 Frc consts  --      1.3220                 1.1521                 1.1251
 IR Inten    --     22.0703                55.0548                32.8106

                     55                     56                     57
                      A                      A                      A
 Frequencies --   1258.0700              1262.5999              1275.5270
 Red. masses --      1.2183                 1.3734                 1.3022
 Frc consts  --      1.1361                 1.2900                 1.2482
 IR Inten    --      5.2705                 1.5838                 8.1750

                     58                     59                     60
                      A                      A                      A
 Frequencies --   1307.5797              1318.3590              1337.5139
 Red. masses --      1.9818                 1.1909                 1.3905
 Frc consts  --      1.9964                 1.2196                 1.4656
 IR Inten    --    209.7980                18.6028                 5.6295

                     61                     62                     63
                      A                      A                      A
 Frequencies --   1347.0391              1359.2265              1364.0778
 Red. masses --      3.3238                 1.4180                 1.6337
 Frc consts  --      3.5534                 1.5435                 1.7910
 IR Inten    --     12.2833                 2.0694                 9.4583

                     64                     65                     66
                      A                      A                      A
 Frequencies --   1386.0489              1398.4828              1418.2246
 Red. masses --      1.3970                 1.5832                 2.2364
 Frc consts  --      1.5813                 1.8243                 2.6502
 IR Inten    --     25.4689                 8.1633                 1.7541

                     67                     68                     69
                      A                      A                      A
 Frequencies --   1421.2842              1438.6932              1440.5313
 Red. masses --      1.5592                 2.8674                 1.6882
 Frc consts  --      1.8558                 3.4968                 2.0640
 IR Inten    --     22.4199                20.2035                10.5333

                     70                     71                     72
                      A                      A                      A
 Frequencies --   1469.7725              1492.9925              1505.6791
 Red. masses --      1.6308                 2.0220                 1.0910
 Frc consts  --      2.0756                 2.6555                 1.4573
 IR Inten    --     16.4358                18.1175                 2.9490

                     73                     74                     75
                      A                      A                      A
 Frequencies --   1510.1855              1518.5750              1519.4397
 Red. masses --      1.0648                 1.1035                 1.1085
 Frc consts  --      1.4308                 1.4993                 1.5078
 IR Inten    --      8.7240                 6.0987                 7.0639

                     76                     77                     78
                      A                      A                      A
 Frequencies --   1532.9341              1544.3808              1546.2993
 Red. masses --      1.0876                 1.0843                 1.1847
 Frc consts  --      1.5057                 1.5237                 1.6690
 IR Inten    --      8.9763                 0.8089                 5.4932

                     79                     80                     81
                      A                      A                      A
 Frequencies --   1560.3355              1619.3282              1820.3518
 Red. masses --      1.0977                 4.7973                11.6625
 Frc consts  --      1.5746                 7.4117                22.7694
 IR Inten    --      3.5972                 9.2790               221.5969

                     82                     83                     84
                      A                      A                      A
 Frequencies --   3003.0842              3042.4385              3043.1140
 Red. masses --      1.0716                 1.0614                 1.0679
 Frc consts  --      5.6942                 5.7888                 5.8266
 IR Inten    --     84.1651                16.6981                68.9735

                     85                     86                     87
                      A                      A                      A
 Frequencies --   3054.1464              3061.9805              3079.9981
 Red. masses --      1.0643                 1.0382                 1.0936
 Frc consts  --      5.8491                 5.7349                 6.1124
 IR Inten    --     50.5390                54.4217                20.4250

                     88                     89                     90
                      A                      A                      A
 Frequencies --   3081.7775              3085.3924              3105.0729
 Red. masses --      1.0680                 1.0703                 1.0983
 Frc consts  --      5.9763                 6.0033                 6.2388
 IR Inten    --     32.5978                25.9490                68.3997

                     91                     92                     93
                      A                      A                      A
 Frequencies --   3106.2752              3119.5229              3127.3377
 Red. masses --      1.0975                 1.0858                 1.0942
 Frc consts  --      6.2391                 6.2255                 6.3054
 IR Inten    --      4.3458                14.8087                14.5861

                     94                     95                     96
                      A                      A                      A
 Frequencies --   3133.7310              3140.7763              3147.0254
 Red. masses --      1.0986                 1.1050                 1.1010
 Frc consts  --      6.3566                 6.4220                 6.4243
 IR Inten    --     18.1113                24.3333                21.2418

                     97                     98                     99
                      A                      A                      A
 Frequencies --   3168.3577              3242.8668              3261.8915
 Red. masses --      1.1052                 1.0983                 1.0971
 Frc consts  --      6.5367                 6.8050                 6.8777
 IR Inten    --      8.1128                18.5147                 2.4005

 - Thermochemistry -
 -------------------
 Temperature   298.150 Kelvin.  Pressure   1.00000 Atm.
 Atom     1 has atomic number  6 and mass  12.00000

 Molecular mass:   238.13174 amu.
 Principal axes and moments of inertia in atomic units:
                           1         2         3
     Eigenvalues --  2427.753286082.877446621.47412
           X            0.99986   0.00961  -0.01394
           Y           -0.00873   0.99804   0.06196
           Z            0.01451  -0.06183   0.99798
 This molecule is an asymmetric top.
 Rotational symmetry number  1.
 Warning -- assumption of classical behavior for rotation
           may cause significant error
 Rotational temperatures (Kelvin)      0.03568     0.01424     0.01308
 Rotational constants (GHZ):           0.74338     0.29669     0.27256
 Zero-point vibrational energy     786174.5 (Joules/Mol)
                                  187.90021 (Kcal/Mol)
 Warning -- explicit consideration of  22 degrees of freedom as
           vibrations may cause significant error
 Vibrational temperatures:     15.90    46.74    62.66    84.03    96.14
          (Kelvin)            113.92   136.41   150.25   186.66   216.11
                              273.43   299.61   388.50   406.62   429.14
                              444.39   543.61   593.06   617.23   727.18
                              846.00   884.16   925.87   962.58   997.21
                             1063.70  1081.27  1117.31  1166.95  1179.57
                             1205.92  1259.31  1291.78  1330.96  1338.86
                             1344.39  1361.94  1418.17  1456.16  1461.09
                             1486.06  1511.28  1541.97  1554.71  1576.27
                             1586.03  1606.20  1639.64  1666.03  1711.18
                             1734.95  1756.44  1766.56  1795.41  1810.08
                             1816.60  1835.20  1881.32  1896.82  1924.38
                             1938.09  1955.62  1962.60  1994.22  2012.10
                             2040.51  2044.91  2069.96  2072.60  2114.67
                             2148.08  2166.34  2172.82  2184.89  2186.13
                             2205.55  2222.02  2224.78  2244.97  2329.85
                             2619.08  4320.77  4377.39  4378.36  4394.24
                             4405.51  4431.43  4433.99  4439.19  4467.51
                             4469.24  4488.30  4499.54  4508.74  4518.88
                             4527.87  4558.56  4665.76  4693.13

 Zero-point correction=                           0.299438 (Hartree/Particle)
 Thermal correction to Energy=                    0.316186
 Thermal correction to Enthalpy=                  0.317130
 Thermal correction to Gibbs Free Energy=         0.251447
 Sum of electronic and zero-point Energies=           -803.033845
 Sum of electronic and thermal Energies=              -803.017097
 Sum of electronic and thermal Enthalpies=            -803.016153
 Sum of electronic and thermal Free Energies=         -803.081835

                     E (Thermal)             CV                S
                      KCal/Mol        Cal/Mol-Kelvin    Cal/Mol-Kelvin
 Total                  198.410             60.531            138.240
 Electronic               0.000              0.000              0.000
 Translational            0.889              2.981             42.304
 Rotational               0.889              2.981             32.947
 Vibrational            196.632             54.570             62.989
 Vibration     1          0.593              1.987              7.812
 Vibration     2          0.594              1.983              5.672
 Vibration     3          0.595              1.980              5.091
 Vibration     4          0.596              1.974              4.510
 Vibration     5          0.598              1.970              4.245
 Vibration     6          0.600              1.963              3.911
 Vibration     7          0.603              1.953              3.558
 Vibration     8          0.605              1.946              3.370
 Vibration     9          0.612              1.924              2.950
 Vibration    10          0.618              1.902              2.670
 Vibration    11          0.633              1.854              2.227
 Vibration    12          0.642              1.828              2.059
 Vibration    13          0.674              1.728              1.596
 Vibration    14          0.682              1.706              1.518
 Vibration    15          0.691              1.677              1.427
 Vibration    16          0.698              1.657              1.368
 Vibration    17          0.748              1.517              1.048
 Vibration    18          0.776              1.444              0.919
 Vibration    19          0.790              1.407              0.862
 Vibration    20          0.861              1.238              0.645
 Vibration    21          0.945              1.057              0.471
 Vibration    22          0.974              1.001              0.425

 Optimization completed.
    -- Stationary point found.
 Normal termination of Gaussian 16 at Fri Dec 11 12:49:48 2020.

 ----------------------------------------------------------------------
 # B3LYP/6-311++G(d,p) empiricaldispersion=gd3bj scf=xqc pop=npa geom=c
 heck
 ----------------------------------------------------------------------

 --------------------------------------
 CID_75417642_JID_7296_Energie_neutraal
 --------------------------------------
 Structure from the checkpoint file:  "JID_7296.chk"
 Charge =  0 Multiplicity = 1

 SCF Done:  E(RB3LYP) =  -803.557958699     A.U. after   15 cycles
 Normal termination of Gaussian 16 at Fri Dec 11 12:56:29 2020.

 ----------------------------------------------------------------------
 # B3LYP/6-311++G(d,p) empiricaldispersion=gd3bj scf=xqc pop=npa geom=c
 heck
 ----------------------------------------------------------------------

 ------------------------------------
 CID_75417642_JID_7296_Energie_kation
 ------------------------------------
 Structure from the checkpoint file:  "JID_7296.chk"
 Charge =  1 Multiplicity = 2

 SCF Done:  E(UB3LYP) =  -803.253382519     A.U. after   33 cycles
 SCF Done:  E(UB3LYP) =  -803.253382520     a.u. after    1 cycles
 Normal termination of Gaussian 16 at Fri Dec 11 13:19:07 2020.
 Gaussian 16:  ES64L-G16RevA.03 25-Dec-2016

 ----------------------------------------------------------------------
 # B3LYP/6-311++G(d,p) empiricaldispersion=gd3bj scf=xqc pop=npa geom=c
 heck
 ----------------------------------------------------------------------

 -----------------------------------
 CID_75417642_JID_7296_Energie_anion
 -----------------------------------
 Structure from the checkpoint file:  "JID_7296.chk"
 Charge = -1 Multiplicity = 2

                         Standard orientation:
 ---------------------------------------------------------------------
 Center     Atomic      Atomic             Coordinates (Angstroms)
 Number     Number       Type             X           Y           Z
 ---------------------------------------------------------------------
      1          6           0        4.682833   -1.133985   -0.826890
      2          7           0        3.454466   -0.743770   -0.167982
      3          6           0        3.161381    0.448724    0.418847
      4          6           0        1.840874    0.382917    0.836173
      5          6           0        1.421774   -0.910102    0.434326
      6          7           0        2.398111   -1.587873   -0.172642
      7          6           0        1.014730    1.438251    1.511385
      8          6           0        0.528300    2.548482    0.555808
      9          6           0       -0.156955    2.019626   -0.690926
     10          8           0       -1.273330    1.200230   -0.271348
     11          6           0       -1.886536    0.504163   -1.249756
     12          8           0       -1.592378    0.589220   -2.422907
     13          6           0       -2.950175   -0.438354   -0.718186
     14          6           0       -3.512284   -0.093148    0.672797
     15          6           0       -2.574982   -0.841738    1.646532
     16          8           0       -1.784660   -1.744696    0.861666
     17          6           0       -2.332242   -1.826494   -0.445456
     18          1           0        4.877353   -2.186367   -0.611896
     19          1           0        4.608319   -0.999774   -1.911865
     20          1           0        5.505069   -0.525000   -0.443783
     21          1           0        3.902416    1.231721    0.503708
     22          1           0        0.449709   -1.363375    0.589748
     23          1           0        0.141483    0.960117    1.966635
     24          1           0        1.575338    1.906805    2.329734
     25          1           0       -0.148297    3.223445    1.094920
     26          1           0        1.383257    3.151100    0.221943
     27          1           0       -0.532961    2.827663   -1.326201
     28          1           0        0.517337    1.400679   -1.286886
     29          1           0       -3.721967   -0.501777   -1.489043
     30          1           0       -4.535694   -0.473330    0.751432
     31          1           0       -3.533365    0.981568    0.862538
     32          1           0       -1.886881   -0.164748    2.160615
     33          1           0       -3.139917   -1.404849    2.400562
     34          1           0       -3.117935   -2.596739   -0.498592
     35          1           0       -1.528664   -2.093718   -1.136415
 ---------------------------------------------------------------------

 SCF Done:  E(UB3LYP) =  -803.546914148     A.U. after   33 cycles
 SCF Done:  E(UB3LYP) =  -803.546914148     a.u. after    1 cycles

 The electronic state is 2-A.
 Alpha  occ. eigenvalues --  -19.08008 -19.03914 -19.02282 -14.29345 -14.22854
 Alpha  occ. eigenvalues --  -10.21219 -10.13710 -10.13552 -10.12868 -10.11996
 Alpha  occ. eigenvalues --  -10.10598 -10.10541 -10.08889 -10.08605 -10.08447
 Alpha  occ. eigenvalues --  -10.08291 -10.07334  -1.02068  -0.95669  -0.95218
 Alpha  occ. eigenvalues --   -0.93299  -0.74752  -0.72900  -0.71416  -0.68154
 Alpha  occ. eigenvalues --   -0.66036  -0.62975  -0.59406  -0.55472  -0.52058
 Alpha  occ. eigenvalues --   -0.51330  -0.48997  -0.47624  -0.46773  -0.43497
 Alpha  occ. eigenvalues --   -0.42385  -0.42250  -0.40366  -0.38864  -0.38318
 Alpha  occ. eigenvalues --   -0.37795  -0.36044  -0.35828  -0.34698  -0.33669
 Alpha  occ. eigenvalues --   -0.33406  -0.32183  -0.31422  -0.30001  -0.29903
 Alpha  occ. eigenvalues --   -0.29654  -0.28356  -0.27552  -0.26809  -0.26298
 Alpha  occ. eigenvalues --   -0.25830  -0.25293  -0.23992  -0.22014  -0.19464
 Alpha  occ. eigenvalues --   -0.18983  -0.17386  -0.15742  -0.14350   0.03812
 Alpha virt. eigenvalues --    0.04991   0.06209   0.07446   0.07535   0.08174
 Alpha virt. eigenvalues --    0.08251   0.09016   0.09128   0.09623   0.09949
 Alpha virt. eigenvalues --    0.10547   0.11151   0.11292   0.12127   0.12284

  Beta  occ. eigenvalues --  -19.08000 -19.03914 -19.02278 -14.29343 -14.22850
  Beta  occ. eigenvalues --  -10.21211 -10.13693 -10.13546 -10.12855 -10.11960
  Beta  occ. eigenvalues --  -10.10590 -10.10514 -10.08861 -10.08587 -10.08437
  Beta  occ. eigenvalues --  -10.08289 -10.07335  -1.02057  -0.95663  -0.95210
  Beta  occ. eigenvalues --   -0.93291  -0.74737  -0.72876  -0.71391  -0.68129
  Beta  occ. eigenvalues --   -0.66002  -0.62946  -0.59369  -0.55435  -0.52017
  Beta  occ. eigenvalues --   -0.51284  -0.48979  -0.47590  -0.46735  -0.43475
  Beta  occ. eigenvalues --   -0.42340  -0.42203  -0.40338  -0.38846  -0.38294
  Beta  occ. eigenvalues --   -0.37775  -0.36013  -0.35798  -0.34669  -0.33637
  Beta  occ. eigenvalues --   -0.33389  -0.32149  -0.31394  -0.29974  -0.29882
  Beta  occ. eigenvalues --   -0.29629  -0.28325  -0.27523  -0.26784  -0.26263
  Beta  occ. eigenvalues --   -0.25806  -0.25273  -0.23975  -0.22000  -0.19456
  Beta  occ. eigenvalues --   -0.18971  -0.17368  -0.15727  -0.14337
  Beta virt. eigenvalues --    0.05990   0.06355   0.06802   0.07776   0.08021
  Beta virt. eigenvalues --    0.08453   0.08847   0.09262   0.09376   0.09991
  Beta virt. eigenvalues --    0.10348   0.10896   0.11258   0.11456   0.12205

 Mulliken charges and spin densities:
               1          2
     1  C    0.734520  -1.045945
     2  N    0.170523  -0.013643
     3  C    0.233502  -0.245128
     4  C    0.537904  -0.384221
     5  C   -0.143495  -0.375955
     6  N   -0.339228   0.234281
     7  C   -0.953613   0.411677
     8  C    1.005007  -1.524018
     9  C   -0.636807   0.377885
    10  O    0.069676   0.006375
    11  C    0.748859  -1.053164
    12  O   -0.232687   0.012249
    13  C   -0.900017   1.350818
    14  C    0.485731  -1.086379
    15  C    0.333843  -0.504805
    16  O   -0.105715  -0.003091
    17  C   -0.205938  -0.284468
    18  H   -0.021534   0.183088
    19  H   -0.021288   0.199099
    20  H   -0.533765   0.690625
    21  H   -0.926053   1.126176
    22  H    0.294061   0.017849
    23  H    0.086830   0.042543
    24  H   -0.086299   0.280539
    25  H   -0.105443   0.273346
    26  H   -0.005251   0.144857
    27  H    0.050714   0.142301
    28  H    0.235737  -0.026527
    29  H   -0.242408   0.504102
    30  H   -0.479741   0.677828
    31  H   -0.111408   0.270961
    32  H    0.142263   0.005251
    33  H   -0.051550   0.209076
    34  H   -0.198006   0.356656
    35  H    0.171077   0.029762
 Sum of Mulliken charges =  -1.00000   1.00000

 Dipole moment (field-independent basis, Debye):
    X=             -2.0163    Y=              0.2114    Z=              0.0434  Tot=              2.0278
 Quadrupole moment (field-independent basis, Debye-Ang):
   XX=           -208.6768   YY=           -143.7059   ZZ=           -137.7582
   XY=            -10.7816   XZ=             -2.4640   YZ=             -1.0375

 Summary of Natural Population Analysis:

                                       Natural Population
                Natural  -----------------------------------------------
    Atom  No    Charge         Core      Valence    Rydberg      Total
 -----------------------------------------------------------------------
      C    1   -0.17162      0.99964     2.16383    0.00816     3.17162
      N    2   -0.10644      0.99967     2.59430    0.01247     3.60644
      C    3   -0.00639      0.99949     1.99512    0.01179     3.00639
      C    4   -0.07807      0.99952     2.06753    0.01101     3.07807
      C    5   -0.01673      0.99956     2.00350    0.01366     3.01673
      N    6   -0.15517      0.99973     2.64442    0.01102     3.65517
      C    7   -0.19904      0.99959     2.19004    0.00941     3.19904
      C    8   -0.19311      0.99962     2.18516    0.00833     3.19311
      C    9   -0.01777      0.99955     2.00674    0.01149     3.01777
      O   10   -0.28549      0.99985     3.27570    0.00993     4.28549
      C   11    0.41481      0.99965     1.55958    0.02595     2.58519
      O   12   -0.30677      0.99987     3.30175    0.00515     4.30677
      C   13   -0.16682      0.99955     2.15566    0.01161     3.16682
      C   14   -0.20546      0.99963     2.19729    0.00854     3.20546
      C   15   -0.00941      0.99960     1.99805    0.01177     3.00941
      O   16   -0.30215      0.99989     3.29354    0.00872     4.30215
      C   17   -0.00315      0.99958     1.99059    0.01298     3.00315
      H   18    0.10379      0.00000     0.39492    0.00129     0.39621
      H   19    0.09672      0.00000     0.40224    0.00104     0.40328
      H   20    0.10330      0.00000     0.39465    0.00205     0.39670
      H   21    0.10678      0.00000     0.39094    0.00228     0.39322
      H   22    0.11123      0.00000     0.38673    0.00204     0.38877
      H   23    0.10408      0.00000     0.39412    0.00180     0.39592
      H   24    0.10412      0.00000     0.39491    0.00097     0.39588
      H   25    0.09907      0.00000     0.39972    0.00121     0.40093
      H   26    0.10168      0.00000     0.39704    0.00129     0.39832
      H   27    0.09226      0.00000     0.40688    0.00086     0.40774
      H   28    0.09908      0.00000     0.39959    0.00133     0.40092
      H   29    0.11828      0.00000     0.38043    0.00129     0.38172
      H   30    0.10514      0.00000     0.39229    0.00256     0.39486
      H   31    0.11066      0.00000     0.38791    0.00142     0.38934
      H   32    0.08811      0.00000     0.41029    0.00160     0.41189
      H   33    0.08347      0.00000     0.41519    0.00134     0.41653
      H   34    0.08333      0.00000     0.41533    0.00134     0.41667
      H   35    0.09765      0.00000     0.40120    0.00114     0.40235
 =======================================================================
   * Total *    0.00000     16.99401    46.78717    0.21882    64.00000

 Normal termination of Gaussian 16 at Fri Dec 11 13:40:17 2020.
