 Gaussian 16, Revision A.03,

 -----------------------------------------------------------
 # opt freq B3LYP/6-31G(d) empiricaldispersion=gd3bj scf=xqc
 -----------------------------------------------------------

 ------------------------------
 CID_89390860_JID_3347_neutraal
 ------------------------------
 Symbolic Z-matrix:
 Charge =  0 Multiplicity = 1

 SCF Done:  E(RB3LYP) =  -571.626721629     A.U. after   15 cycles
 SCF Done:  E(RB3LYP) =  -571.630018056     A.U. after   12 cycles
 SCF Done:  E(RB3LYP) =  -571.630522389     A.U. after   11 cycles
 SCF Done:  E(RB3LYP) =  -571.630575082     A.U. after   11 cycles
 SCF Done:  E(RB3LYP) =  -571.630645427     A.U. after   10 cycles
 SCF Done:  E(RB3LYP) =  -571.630654334     A.U. after   10 cycles
 SCF Done:  E(RB3LYP) =  -571.630664247     A.U. after   10 cycles
 SCF Done:  E(RB3LYP) =  -571.630692232     A.U. after   11 cycles
 SCF Done:  E(RB3LYP) =  -571.630716941     A.U. after   12 cycles
 SCF Done:  E(RB3LYP) =  -571.630748375     A.U. after    9 cycles
 SCF Done:  E(RB3LYP) =  -571.631361677     A.U. after   11 cycles
 SCF Done:  E(RB3LYP) =  -571.631360902     A.U. after    9 cycles
 SCF Done:  E(RB3LYP) =  -571.631364992     A.U. after   11 cycles
 SCF Done:  E(RB3LYP) =  -571.631364708     A.U. after    9 cycles
 SCF Done:  E(RB3LYP) =  -571.631365012     A.U. after    9 cycles
 Optimization completed.
    -- Stationary point found.

 1\1\GINC-NODE312\FOpt\RB3LYP\6-31G(d)\C9H16N4\VSC10255\09-Dec-2020\0\\
 # opt freq B3LYP/6-31G(d) empiricaldispersion=gd3bj scf=xqc\\CID_89390
 860_JID_3347_neutraal\\0,1\C,0.7033198936,-0.309544841,-0.0354787181\C
 ,0.1907129392,-1.4513858517,0.856628453\C,1.1655455057,-1.808383687,1.
 9311055481\N,0.9808983985,-1.559425415,3.227319913\N,2.1092199388,-2.0
 287588924,3.7627075691\N,2.9523864197,-2.5297063415,2.8647835309\N,2.3
 662890497,-2.4005089633,1.6966502448\C,2.4028524074,-1.9282092783,5.20
 69329525\C,1.1519133391,-2.3053432856,6.0148660686\C,0.8299915132,-3.8

 Normal termination of Gaussian 16 at Wed Dec  9 23:09:00 2020.

 --------------------------------------------------------------------
 #N Geom=AllCheck Guess=TCheck SCRF=Check GenChk RB3LYP/6-31G(d) Freq
 --------------------------------------------------------------------

 Structure from the checkpoint file:  "JID_3347.chk"
 ------------------------------
 CID_89390860_JID_3347_neutraal
 ------------------------------
 Charge =  0 Multiplicity = 1

 SCF Done:  E(RB3LYP) =  -571.631365012     A.U. after    1 cycles

  Exact polarizability: 144.049   2.779 104.128  -7.831   2.854  94.378
 Approx polarizability: 181.909   2.885 168.272 -20.260  13.503 145.087

                      1                      2                      3
                      A                      A                      A
 Frequencies --     18.0954                22.3548                75.6349
 Red. masses --      3.0009                 3.5985                 4.6192
 Frc consts  --      0.0006                 0.0011                 0.0156
 IR Inten    --      0.2938                 1.0238                 0.2030

                      4                      5                      6
                      A                      A                      A
 Frequencies --    122.4797               151.5133               205.3279
 Red. masses --      3.3679                 2.7930                 1.9405
 Frc consts  --      0.0298                 0.0378                 0.0482
 IR Inten    --      0.7384                 0.3190                 1.2311

                      7                      8                      9
                      A                      A                      A
 Frequencies --    214.3710               258.9681               290.9376
 Red. masses --      2.1749                 1.6401                 2.7102
 Frc consts  --      0.0589                 0.0648                 0.1352
 IR Inten    --      0.3813                 0.7340                 1.8157

                     10                     11                     12
                      A                      A                      A
 Frequencies --    356.7263               378.3419               397.8498
 Red. masses --      2.0730                 2.3724                 2.7995
 Frc consts  --      0.1554                 0.2001                 0.2611
 IR Inten    --      0.7919                 1.1177                 0.7052

                     13                     14                     15
                      A                      A                      A
 Frequencies --    430.6707               484.1662               528.4881
 Red. masses --      3.5798                 2.1547                 3.5887
 Frc consts  --      0.3912                 0.2976                 0.5906
 IR Inten    --      0.7131                 3.7215                 1.1574

                     16                     17                     18
                      A                      A                      A
 Frequencies --    563.2998               686.3558               697.3056
 Red. masses --      2.3936                 3.8625                 7.2378
 Frc consts  --      0.4475                 1.0721                 2.0735
 IR Inten    --      1.7776                 1.6215                 6.3119

                     19                     20                     21
                      A                      A                      A
 Frequencies --    752.4270               773.7793               797.3296
 Red. masses --      3.0972                 2.9811                 1.4788
 Frc consts  --      1.0331                 1.0516                 0.5539
 IR Inten    --      4.4999                 1.0920                 0.1325

                     22                     23                     24
                      A                      A                      A
 Frequencies --    807.1394               819.9385               879.4837
 Red. masses --      1.4976                 3.1985                 2.3837
 Frc consts  --      0.5748                 1.2670                 1.0863
 IR Inten    --      1.9677                 0.5666                 1.8558

                     25                     26                     27
                      A                      A                      A
 Frequencies --    883.3450               899.1370               950.4269
 Red. masses --      1.9317                 1.8591                 1.3743
 Frc consts  --      0.8881                 0.8855                 0.7314
 IR Inten    --      1.9766                 9.1503                 3.4112

                     28                     29                     30
                      A                      A                      A
 Frequencies --    986.3973              1038.8663              1045.4519
 Red. masses --      2.3249                 3.4747                 3.0065
 Frc consts  --      1.3328                 2.2094                 1.9361
 IR Inten    --      7.2610                31.9834                 1.5295

                     31                     32                     33
                      A                      A                      A
 Frequencies --   1053.0406              1055.7901              1089.3140
 Red. masses --      2.2728                 1.6146                 1.9197
 Frc consts  --      1.4849                 1.0604                 1.3421
 IR Inten    --      1.0706                 0.2677                 6.9928

                     34                     35                     36
                      A                      A                      A
 Frequencies --   1097.0498              1104.2124              1115.7227
 Red. masses --      2.8872                 1.7066                 2.4244
 Frc consts  --      2.0473                 1.2260                 1.7781
 IR Inten    --     15.2810                 0.8322                 0.3680

                     37                     38                     39
                      A                      A                      A
 Frequencies --   1143.5300              1154.0296              1169.7294
 Red. masses --      1.8926                 1.1390                 1.8854
 Frc consts  --      1.4581                 0.8938                 1.5199
 IR Inten    --      4.1576                 0.6643                 6.3331

                     40                     41                     42
                      A                      A                      A
 Frequencies --   1231.1139              1266.5591              1279.3303
 Red. masses --      3.4580                 3.0148                 1.5179
 Frc consts  --      3.0879                 2.8495                 1.4637
 IR Inten    --     19.2771                 0.9922                 0.3322

                     43                     44                     45
                      A                      A                      A
 Frequencies --   1301.6213              1308.9032              1312.3253
 Red. masses --      1.5316                 1.2663                 1.2936
 Frc consts  --      1.5289                 1.2782                 1.3126
 IR Inten    --      7.6111                 0.2792                 0.8943

                     46                     47                     48
                      A                      A                      A
 Frequencies --   1362.6306              1365.4504              1372.8126
 Red. masses --      1.6294                 1.6064                 1.8679
 Frc consts  --      1.7825                 1.7646                 2.0741
 IR Inten    --     24.4225                12.8664                 8.4041

                     49                     50                     51
                      A                      A                      A
 Frequencies --   1375.2054              1389.8359              1401.6365
 Red. masses --      1.6014                 1.9790                 1.4336
 Frc consts  --      1.7844                 2.2523                 1.6594
 IR Inten    --      2.4556                 4.9001                 0.3088

                     52                     53                     54
                      A                      A                      A
 Frequencies --   1411.1613              1414.2178              1420.0867
 Red. masses --      1.4517                 1.4504                 1.4526
 Frc consts  --      1.7032                 1.7092                 1.7260
 IR Inten    --      0.6291                 2.2592                15.8507

                     55                     56                     57
                      A                      A                      A
 Frequencies --   1431.7833              1444.7427              1504.7057
 Red. masses --      1.5899                 2.3472                 1.0863
 Frc consts  --      1.9203                 2.8865                 1.4492
 IR Inten    --      4.5990                 4.8072                 5.0503

                     58                     59                     60
                      A                      A                      A
 Frequencies --   1506.9550              1512.6667              1520.1284
 Red. masses --      1.1125                 1.0976                 1.0902
 Frc consts  --      1.4885                 1.4797                 1.4843
 IR Inten    --      5.5788                 4.6069                 5.8512

                     61                     62                     63
                      A                      A                      A
 Frequencies --   1523.3017              1526.4083              1531.1060
 Red. masses --      1.0911                 1.0801                 1.2653
 Frc consts  --      1.4917                 1.4827                 1.7477
 IR Inten    --     14.4378                 8.0368                 3.9052

                     64                     65                     66
                      A                      A                      A
 Frequencies --   1537.3014              1557.0174              3022.3471
 Red. masses --      1.0975                 2.9400                 1.0681
 Frc consts  --      1.5282                 4.1993                 5.7487
 IR Inten    --      4.7084                42.5632                28.2156

                     67                     68                     69
                      A                      A                      A
 Frequencies --   3043.7219              3049.0996              3050.5983
 Red. masses --      1.0654                 1.0691                 1.0706
 Frc consts  --      5.8152                 5.8563                 5.8701
 IR Inten    --     15.5215                 0.5597                18.3785

                     70                     71                     72
                      A                      A                      A
 Frequencies --   3057.8189              3057.8616              3065.7967
 Red. masses --      1.0563                 1.0421                 1.0622
 Frc consts  --      5.8192                 5.7410                 5.8820
 IR Inten    --     33.3271                18.6483                16.9752

                     73                     74                     75
                      A                      A                      A
 Frequencies --   3067.3589              3079.4012              3087.8534
 Red. masses --      1.0826                 1.0926                 1.1019
 Frc consts  --      6.0012                 6.1046                 6.1904
 IR Inten    --     54.7544                49.0300                50.5261

                     76                     77                     78
                      A                      A                      A
 Frequencies --   3101.5995              3110.3528              3122.5113
 Red. masses --      1.1014                 1.1010                 1.0957
 Frc consts  --      6.2429                 6.2757                 6.2941
 IR Inten    --     53.8267                 2.7313                17.7018

                     79                     80                     81
                      A                      A                      A
 Frequencies --   3124.6213              3128.1512              3140.3532
 Red. masses --      1.0957                 1.1035                 1.1033
 Frc consts  --      6.3031                 6.3620                 6.4107
 IR Inten    --     17.4452                35.8397                26.7647

 - Thermochemistry -
 -------------------
 Temperature   298.150 Kelvin.  Pressure   1.00000 Atm.
 Atom     1 has atomic number  6 and mass  12.00000

 Molecular mass:   180.13750 amu.
 Principal axes and moments of inertia in atomic units:
                           1         2         3
     Eigenvalues --   934.153724019.171384284.99674
           X            0.99998   0.00539   0.00295
           Y           -0.00529   0.99949  -0.03145
           Z           -0.00311   0.03143   0.99950
 This molecule is an asymmetric top.
 Rotational symmetry number  1.
 Warning -- assumption of classical behavior for rotation
           may cause significant error
 Rotational temperatures (Kelvin)      0.09272     0.02155     0.02021
 Rotational constants (GHZ):           1.93195     0.44903     0.42118
 Zero-point vibrational energy     673602.1 (Joules/Mol)
                                  160.99477 (Kcal/Mol)
 Warning -- explicit consideration of  16 degrees of freedom as
           vibrations may cause significant error
 Vibrational temperatures:     26.04    32.16   108.82   176.22   217.99
          (Kelvin)            295.42   308.43   372.60   418.59   513.25
                              544.35   572.42   619.64   696.61   760.38
                              810.46   987.51  1003.27  1082.57  1113.30
                             1147.18  1161.29  1179.71  1265.38  1270.94
                             1293.66  1367.45  1419.21  1494.70  1504.17
                             1515.09  1519.05  1567.28  1578.41  1588.72
                             1605.28  1645.28  1660.39  1682.98  1771.30
                             1822.30  1840.67  1872.74  1883.22  1888.14
                             1960.52  1964.58  1975.17  1978.61  1999.66
                             2016.64  2030.35  2034.74  2043.19  2060.02
                             2078.66  2164.94  2168.17  2176.39  2187.13
                             2191.69  2196.16  2202.92  2211.83  2240.20
                             4348.48  4379.24  4386.97  4389.13  4399.52
                             4399.58  4411.00  4413.25  4430.57  4442.73
                             4462.51  4475.10  4492.60  4495.63  4500.71
                             4518.27

 Zero-point correction=                           0.256562 (Hartree/Particle)
 Thermal correction to Energy=                    0.268572
 Thermal correction to Enthalpy=                  0.269516
 Thermal correction to Gibbs Free Energy=         0.216218
 Sum of electronic and zero-point Energies=           -571.374804
 Sum of electronic and thermal Energies=              -571.362793
 Sum of electronic and thermal Enthalpies=            -571.361849
 Sum of electronic and thermal Free Energies=         -571.415147

                     E (Thermal)             CV                S
                      KCal/Mol        Cal/Mol-Kelvin    Cal/Mol-Kelvin
 Total                  168.532             45.636            112.177
 Electronic               0.000              0.000              0.000
 Translational            0.889              2.981             41.472
 Rotational               0.889              2.981             31.154
 Vibrational            166.754             39.674             39.550
 Vibration     1          0.593              1.986              6.833
 Vibration     2          0.593              1.985              6.413
 Vibration     3          0.599              1.965              4.001
 Vibration     4          0.610              1.930              3.061
 Vibration     5          0.619              1.901              2.653
 Vibration     6          0.640              1.832              2.085
 Vibration     7          0.644              1.819              2.006
 Vibration     8          0.668              1.748              1.669
 Vibration     9          0.687              1.691              1.469
 Vibration    10          0.732              1.561              1.136
 Vibration    11          0.749              1.516              1.046
 Vibration    12          0.764              1.475              0.971
 Vibration    13          0.792              1.403              0.856
 Vibration    14          0.840              1.285              0.699
 Vibration    15          0.883              1.187              0.591
 Vibration    16          0.919              1.111              0.517

                           ! Non-Optimized Parameters !

 1\1\GINC-NODE312\Freq\RB3LYP\6-31G(d)\C9H16N4\VSC10255\09-Dec-2020\0\\
 #N Geom=AllCheck Guess=TCheck SCRF=Check GenChk RB3LYP/6-31G(d) Freq\\
 CID_89390860_JID_3347_neutraal\\0,1\C,0.7033198936,-0.309544841,-0.035
 4787181\C,0.1907129392,-1.4513858517,0.856628453\C,1.1655455057,-1.808
 383687,1.9311055481\N,0.9808983985,-1.559425415,3.227319913\N,2.109219
 9388,-2.0287588924,3.7627075691\N,2.9523864197,-2.5297063415,2.8647835
 309\N,2.3662890497,-2.4005089633,1.6966502448\C,2.4028524074,-1.928209
 2783,5.2069329525\C,1.1519133391,-2.3053432856,6.0148660686\C,0.829991

 Normal termination of Gaussian 16 at Wed Dec  9 23:16:17 2020.

 ----------------------------------------------------------------------
 # B3LYP/6-311++G(d,p) empiricaldispersion=gd3bj scf=xqc pop=npa geom=c
 heck
 ----------------------------------------------------------------------

 --------------------------------------
 CID_89390860_JID_3347_Energie_neutraal
 --------------------------------------
 Structure from the checkpoint file:  "JID_3347.chk"
 Charge =  0 Multiplicity = 1

 SCF Done:  E(RB3LYP) =  -571.781147695     A.U. after   14 cycles
 Normal termination of Gaussian 16 at Wed Dec  9 23:19:00 2020.

 ----------------------------------------------------------------------
 # B3LYP/6-311++G(d,p) empiricaldispersion=gd3bj scf=xqc pop=npa geom=c
 heck
 ----------------------------------------------------------------------

 ------------------------------------
 CID_89390860_JID_3347_Energie_kation
 ------------------------------------
 Structure from the checkpoint file:  "JID_3347.chk"
 Charge =  1 Multiplicity = 2

 SCF Done:  E(UB3LYP) =  -571.431723392     A.U. after   28 cycles
 Normal termination of Gaussian 16 at Wed Dec  9 23:26:08 2020.
 Gaussian 16:  ES64L-G16RevA.03 25-Dec-2016

 -----------------------------------
 CID_89390860_JID_3347_Energie_anion
 -----------------------------------
 Structure from the checkpoint file:  "JID_3347.chk"
 Charge = -1 Multiplicity = 2

                         Standard orientation:
 ---------------------------------------------------------------------
 Center     Atomic      Atomic             Coordinates (Angstroms)
 Number     Number       Type             X           Y           Z
 ---------------------------------------------------------------------
      1          6           0        4.511273    0.065988    0.220241
      2          6           0        3.368285    0.698514   -0.589643
      3          6           0        2.043865    0.085984   -0.268760
      4          7           0        1.069722    0.706070    0.396660
      5          7           0        0.128019   -0.237440    0.451507
      6          7           0        0.487436   -1.377964   -0.130017
      7          7           0        1.700578   -1.187838   -0.595716
      8          6           0       -1.154922   -0.036669    1.155688
      9          6           0       -1.715678    1.353372    0.819275
     10          6           0       -2.188262    1.442952   -0.636594
     11          6           0       -3.217668    0.350860   -0.956176
     12          6           0       -2.660420   -1.045698   -0.649311
     13          6           0       -2.149876   -1.148401    0.795025
     14          1           0        4.357426    0.216564    1.294098
     15          1           0        5.472280    0.513220   -0.054649
     16          1           0        4.563866   -1.010745    0.032268
     17          1           0        3.306583    1.773271   -0.393217
     18          1           0        3.563502    0.570093   -1.660685
     19          1           0       -0.919712   -0.085973    2.225233
     20          1           0       -2.562752    1.527333    1.495861
     21          1           0       -0.961450    2.114204    1.036212
     22          1           0       -1.321960    1.340658   -1.303715
     23          1           0       -2.611145    2.437009   -0.823293
     24          1           0       -3.522962    0.412376   -2.007566
     25          1           0       -4.122717    0.523190   -0.354956
     26          1           0       -1.838168   -1.275148   -1.336571
     27          1           0       -3.430370   -1.808692   -0.813860
     28          1           0       -1.700509   -2.127972    0.977947
     29          1           0       -2.991780   -1.040595    1.491378
 ---------------------------------------------------------------------

 SCF Done:  E(UB3LYP) =  -571.769092782     A.U. after   33 cycles
 SCF Done:  E(UB3LYP) =  -571.769092782     a.u. after    1 cycles

 The electronic state is 2-A.
 Alpha  occ. eigenvalues --  -14.30498 -14.25437 -14.23211 -14.21817 -10.11650
 Alpha  occ. eigenvalues --  -10.10895 -10.08884 -10.07744 -10.05811 -10.05702
 Alpha  occ. eigenvalues --  -10.05659 -10.05604 -10.05473  -1.02258  -0.82878
 Alpha  occ. eigenvalues --   -0.78203  -0.72155  -0.68063  -0.64318  -0.63593
 Alpha  occ. eigenvalues --   -0.56452  -0.55491  -0.50940  -0.49327  -0.48727
 Alpha  occ. eigenvalues --   -0.45170  -0.40300  -0.38593  -0.36857  -0.35791
 Alpha  occ. eigenvalues --   -0.35002  -0.33675  -0.32790  -0.30346  -0.28526
 Alpha  occ. eigenvalues --   -0.28106  -0.27815  -0.27353  -0.27082  -0.26322
 Alpha  occ. eigenvalues --   -0.25451  -0.23694  -0.21632  -0.21017  -0.20415
 Alpha  occ. eigenvalues --   -0.19307  -0.18987  -0.17228  -0.16435   0.04858
 Alpha virt. eigenvalues --    0.06562   0.07405   0.08552   0.08819   0.09177
 Alpha virt. eigenvalues --    0.09495   0.10108   0.10929   0.11149   0.11494
 Alpha virt. eigenvalues --    0.12267   0.12760   0.12900   0.13447   0.14035

  Beta  occ. eigenvalues --  -14.30376 -14.25218 -14.23129 -14.21767 -10.11666
  Beta  occ. eigenvalues --  -10.10888 -10.08880 -10.07740 -10.05786 -10.05691
  Beta  occ. eigenvalues --  -10.05630 -10.05584 -10.05470  -1.02045  -0.82656
  Beta  occ. eigenvalues --   -0.78044  -0.72103  -0.68029  -0.64242  -0.63552
  Beta  occ. eigenvalues --   -0.56421  -0.55320  -0.50883  -0.49219  -0.48668
  Beta  occ. eigenvalues --   -0.45085  -0.39954  -0.38519  -0.36718  -0.35754
  Beta  occ. eigenvalues --   -0.34917  -0.33596  -0.32718  -0.30286  -0.28474
  Beta  occ. eigenvalues --   -0.28001  -0.27774  -0.27318  -0.27014  -0.26290
  Beta  occ. eigenvalues --   -0.25319  -0.23648  -0.21580  -0.20741  -0.20328
  Beta  occ. eigenvalues --   -0.18964  -0.18714  -0.17050  -0.15964
  Beta virt. eigenvalues --    0.06490   0.07571   0.08406   0.08922   0.09277
  Beta virt. eigenvalues --    0.09850   0.09977   0.10434   0.11406   0.11508
  Beta virt. eigenvalues --    0.11951   0.12673   0.12843   0.13230   0.13749

 Mulliken charges and spin densities:
               1          2
     1  C   -0.287074  -0.195444
     2  C    0.254522  -0.295945
     3  C   -0.477232   0.025268
     4  N   -0.119819   0.233754
     5  N    0.271664  -0.203493
     6  N    0.020520   0.097034
     7  N   -0.070412   0.015573
     8  C   -0.426494   0.563697
     9  C    1.025328  -1.574232
    10  C   -0.521507   0.330488
    11  C    0.810793  -1.319661
    12  C   -0.536208   0.304773
    13  C    0.733755  -1.279857
    14  H   -0.005831   0.153267
    15  H    0.090742   0.038180
    16  H    0.137386   0.013446
    17  H    0.128933   0.014839
    18  H    0.110151   0.044073
    19  H   -1.072758   1.378084
    20  H   -0.501297   0.669286
    21  H    0.052329   0.132690
    22  H    0.094489   0.037579
    23  H   -0.128044   0.302073
    24  H   -0.105888   0.249230
    25  H   -0.263268   0.401677
    26  H    0.131752   0.005380
    27  H    0.032827   0.128254
    28  H    0.046099   0.130054
    29  H   -0.425459   0.599933
 Sum of Mulliken charges =  -1.00000   1.00000

 Dipole moment (field-independent basis, Debye):
    X=              6.1992    Y=              0.3155    Z=             -5.0348  Tot=              7.9924
 Quadrupole moment (field-independent basis, Debye-Ang):
   XX=           -138.8718   YY=           -111.9332   ZZ=           -118.6020
   XY=              8.4560   XZ=              8.2351   YZ=             -3.7620

 Summary of Natural Population Analysis:

                                       Natural Population
                Natural  -----------------------------------------------
    Atom  No    Charge         Core      Valence    Rydberg      Total
 -----------------------------------------------------------------------
      C    1   -0.28061      0.99966     2.27697    0.00398     3.28061
      C    2   -0.20809      0.99960     2.20076    0.00773     3.20809
      C    3    0.14897      0.99966     1.83267    0.01870     2.85103
      N    4   -0.14348      0.99969     2.63308    0.01072     3.64348
      N    5   -0.00183      0.99968     2.48416    0.01798     3.50183
      N    6   -0.00650      0.99977     2.49162    0.01511     3.50650
      N    7   -0.16306      0.99971     2.64947    0.01388     3.66306
      C    8   -0.00409      0.99956     1.98926    0.01527     3.00409
      C    9   -0.19465      0.99961     2.18524    0.00980     3.19465
      C   10   -0.19139      0.99962     2.18328    0.00849     3.19139
      C   11   -0.18974      0.99963     2.18187    0.00824     3.18974
      C   12   -0.19236      0.99962     2.18449    0.00825     3.19236
      C   13   -0.19600      0.99961     2.18635    0.01004     3.19600
      H   14    0.09955      0.00000     0.39924    0.00121     0.40045
      H   15    0.09224      0.00000     0.40675    0.00101     0.40776
      H   16    0.10201      0.00000     0.39661    0.00138     0.39799
      H   17    0.10493      0.00000     0.39381    0.00126     0.39507
      H   18    0.10204      0.00000     0.39667    0.00129     0.39796
      H   19    0.11355      0.00000     0.38042    0.00603     0.38645
      H   20    0.10460      0.00000     0.39213    0.00327     0.39540
      H   21    0.10948      0.00000     0.38883    0.00169     0.39052
      H   22    0.09413      0.00000     0.40440    0.00147     0.40587
      H   23    0.09925      0.00000     0.39984    0.00091     0.40075
      H   24    0.09495      0.00000     0.40420    0.00085     0.40505
      H   25    0.09510      0.00000     0.40317    0.00173     0.40490
      H   26    0.09998      0.00000     0.39840    0.00162     0.40002
      H   27    0.09715      0.00000     0.40204    0.00081     0.40285
      H   28    0.10945      0.00000     0.38880    0.00175     0.39055
      H   29    0.10440      0.00000     0.39335    0.00225     0.39560
 =======================================================================
   * Total *   -0.00000     12.99543    35.82786    0.17671    49.00000

 Normal termination of Gaussian 16 at Wed Dec  9 23:34:37 2020.
