 Gaussian 16, Revision A.03,

 -----------------------------------------------------------
 # opt freq B3LYP/6-31G(d) empiricaldispersion=gd3bj scf=xqc
 -----------------------------------------------------------

 -----------------------------
 CID_69229918_JID_473_neutraal
 -----------------------------
 Symbolic Z-matrix:
 Charge =  0 Multiplicity = 1

 SCF Done:  E(RB3LYP) =  -477.372064526     A.U. after   15 cycles
 SCF Done:  E(RB3LYP) =  -477.374572463     A.U. after   12 cycles
 SCF Done:  E(RB3LYP) =  -477.375053076     A.U. after   12 cycles
 SCF Done:  E(RB3LYP) =  -477.375019064     A.U. after   11 cycles
 SCF Done:  E(RB3LYP) =  -477.375126625     A.U. after   11 cycles
 SCF Done:  E(RB3LYP) =  -477.375153774     A.U. after   11 cycles
 SCF Done:  E(RB3LYP) =  -477.375178263     A.U. after   11 cycles
 SCF Done:  E(RB3LYP) =  -477.375272482     A.U. after   13 cycles
 SCF Done:  E(RB3LYP) =  -477.375638475     A.U. after   16 cycles
 SCF Done:  E(RB3LYP) =  -477.375867293     A.U. after   13 cycles
 SCF Done:  E(RB3LYP) =  -477.376441060     A.U. after    8 cycles
 SCF Done:  E(RB3LYP) =  -477.376441127     A.U. after    8 cycles
 SCF Done:  E(RB3LYP) =  -477.376441264     A.U. after    8 cycles
 SCF Done:  E(RB3LYP) =  -477.376441343     A.U. after    8 cycles
 SCF Done:  E(RB3LYP) =  -477.376441373     A.U. after    7 cycles
 Optimization completed.
    -- Stationary point found.
 Normal termination of Gaussian 16 at Tue Dec  8 10:45:32 2020.

 --------------------------------------------------------------------
 #N Geom=AllCheck Guess=TCheck SCRF=Check GenChk RB3LYP/6-31G(d) Freq
 --------------------------------------------------------------------

 Structure from the checkpoint file:  "JID_473.chk"
 -----------------------------
 CID_69229918_JID_473_neutraal
 -----------------------------
 Charge =  0 Multiplicity = 1

 SCF Done:  E(RB3LYP) =  -477.376441373     A.U. after    1 cycles

  Exact polarizability:  87.182  -5.558  76.196  -6.987  -5.343  67.995
 Approx polarizability: 110.977 -12.234 129.525 -14.589 -19.601 108.597

                      1                      2                      3
                      A                      A                      A
 Frequencies --     31.7556                44.5493                76.0028
 Red. masses --      4.2503                 3.8451                 5.6407
 Frc consts  --      0.0025                 0.0045                 0.0192
 IR Inten    --      0.2898                 2.3876                 2.3854

                      4                      5                      6
                      A                      A                      A
 Frequencies --    124.8676               156.0727               219.2022
 Red. masses --      1.1083                 2.9884                 5.8881
 Frc consts  --      0.0102                 0.0429                 0.1667
 IR Inten    --      0.1083                 0.6011                 3.7980

                      7                      8                      9
                      A                      A                      A
 Frequencies --    317.5867               350.3671               446.1578
 Red. masses --      2.7684                 2.2192                 3.2938
 Frc consts  --      0.1645                 0.1605                 0.3863
 IR Inten    --      2.2588                 1.0956                11.6438

                     10                     11                     12
                      A                      A                      A
 Frequencies --    473.3240               595.5577               645.2588
 Red. masses --      2.0403                 3.7291                 4.0044
 Frc consts  --      0.2693                 0.7793                 0.9823
 IR Inten    --      0.8077                 5.9252                 1.2574

                     13                     14                     15
                      A                      A                      A
 Frequencies --    665.1238               694.7229               756.9660
 Red. masses --      3.0731                 3.2022                 2.8872
 Frc consts  --      0.8010                 0.9106                 0.9747
 IR Inten    --     22.1234                 1.2401                 2.0189

                     16                     17                     18
                      A                      A                      A
 Frequencies --    808.0030               852.9981               874.4226
 Red. masses --      1.4924                 1.3482                 1.7533
 Frc consts  --      0.5741                 0.5779                 0.7899
 IR Inten    --      9.3884                11.7634                 7.7791

                     19                     20                     21
                      A                      A                      A
 Frequencies --    928.9824               943.6000               973.1187
 Red. masses --      1.8651                 6.0369                 2.5190
 Frc consts  --      0.9484                 3.1669                 1.4054
 IR Inten    --      8.0452                 2.8796                 6.4937

                     22                     23                     24
                      A                      A                      A
 Frequencies --    977.9971              1042.5702              1075.1364
 Red. masses --      3.4323                 1.9522                 2.1214
 Frc consts  --      1.9343                 1.2502                 1.4448
 IR Inten    --     24.0450                11.4851                 6.7821

                     25                     26                     27
                      A                      A                      A
 Frequencies --   1128.8169              1133.1583              1179.0262
 Red. masses --      2.5058                 7.3465                 1.6371
 Frc consts  --      1.8812                 5.5579                 1.3408
 IR Inten    --     20.4293                32.9673                 5.2261

                     28                     29                     30
                      A                      A                      A
 Frequencies --   1201.3294              1238.7395              1256.9253
 Red. masses --      2.3442                 1.3842                 1.7235
 Frc consts  --      1.9933                 1.2515                 1.6042
 IR Inten    --     78.6923                 4.3558                 4.0938

                     31                     32                     33
                      A                      A                      A
 Frequencies --   1286.5673              1364.4948              1386.1136
 Red. masses --      1.2638                 2.1680                 1.5104
 Frc consts  --      1.2325                 2.3783                 1.7097
 IR Inten    --      4.1906                 7.3717                 3.1951

                     34                     35                     36
                      A                      A                      A
 Frequencies --   1401.9805              1416.0453              1483.4073
 Red. masses --      1.4984                 1.4789                 1.0816
 Frc consts  --      1.7352                 1.7472                 1.4023
 IR Inten    --      6.3147                40.1315                 9.7717

                     37                     38                     39
                      A                      A                      A
 Frequencies --   1494.0534              1495.0721              1504.9608
 Red. masses --      1.0554                 1.1012                 1.0543
 Frc consts  --      1.3881                 1.4502                 1.4069
 IR Inten    --     13.8289                12.9482                11.2220

                     40                     41                     42
                      A                      A                      A
 Frequencies --   1558.2259              1653.3470              1816.6059
 Red. masses --      5.4746                 6.9922                10.1906
 Frc consts  --      7.8319                11.2614                19.8139
 IR Inten    --     36.0160                 3.9872               110.4843

                     43                     44                     45
                      A                      A                      A
 Frequencies --   3032.3230              3049.4961              3076.4728
 Red. masses --      1.0652                 1.0397                 1.0668
 Frc consts  --      5.7706                 5.6967                 5.9488
 IR Inten    --     18.8579                 4.3251                13.7354

                     46                     47                     48
                      A                      A                      A
 Frequencies --   3082.7132              3108.2577              3134.0877
 Red. masses --      1.0920                 1.0986                 1.1000
 Frc consts  --      6.1140                 6.2535                 6.3658
 IR Inten    --     16.7297                10.9776                 4.7134

                     49                     50                     51
                      A                      A                      A
 Frequencies --   3168.1556              3292.0117              3295.8433
 Red. masses --      1.1021                 1.0962                 1.1008
 Frc consts  --      6.5173                 6.9993                 7.0449
 IR Inten    --      9.1489                 2.6757                 0.6546

 - Thermochemistry -
 -------------------
 Temperature   298.150 Kelvin.  Pressure   1.00000 Atm.
 Atom     1 has atomic number  6 and mass  12.00000

 Molecular mass:   139.06333 amu.
 Principal axes and moments of inertia in atomic units:
                           1         2         3
     Eigenvalues --   669.916722268.042912406.93869
           X            0.99982  -0.00413   0.01867
           Y            0.00291   0.99789   0.06490
           Z           -0.01889  -0.06484   0.99772
 This molecule is an asymmetric top.
 Rotational symmetry number  1.
 Warning -- assumption of classical behavior for rotation
           may cause significant error
 Rotational temperatures (Kelvin)      0.12929     0.03819     0.03599
 Rotational constants (GHZ):           2.69398     0.79573     0.74981
 Zero-point vibrational energy     402618.6 (Joules/Mol)
                                   96.22816 (Kcal/Mol)
 Warning -- explicit consideration of  11 degrees of freedom as
           vibrations may cause significant error
 Vibrational temperatures:     45.69    64.10   109.35   179.66   224.55
          (Kelvin)            315.38   456.94   504.10   641.92   681.01
                              856.87   928.38   956.96   999.55  1089.11
                             1162.54  1227.27  1258.10  1336.60  1357.63
                             1400.10  1407.12  1500.03  1546.88  1624.12
                             1630.36  1696.36  1728.45  1782.27  1808.44
                             1851.08  1963.20  1994.31  2017.14  2037.37
                             2134.29  2149.61  2151.08  2165.30  2241.94
                             2378.80  2613.69  4362.84  4387.54  4426.36
                             4435.34  4472.09  4509.25  4558.27  4736.47
                             4741.98

 Zero-point correction=                           0.153349 (Hartree/Particle)
 Thermal correction to Energy=                    0.163051
 Thermal correction to Enthalpy=                  0.163995
 Thermal correction to Gibbs Free Energy=         0.116462
 Sum of electronic and zero-point Energies=           -477.223092
 Sum of electronic and thermal Energies=              -477.213390
 Sum of electronic and thermal Enthalpies=            -477.212446
 Sum of electronic and thermal Free Energies=         -477.259980

                     E (Thermal)             CV                S
                      KCal/Mol        Cal/Mol-Kelvin    Cal/Mol-Kelvin
 Total                  102.316             34.257            100.043
 Electronic               0.000              0.000              0.000
 Translational            0.889              2.981             40.701
 Rotational               0.889              2.981             29.682
 Vibrational            100.539             28.296             29.660
 Vibration     1          0.594              1.983              5.717
 Vibration     2          0.595              1.980              5.046
 Vibration     3          0.599              1.965              3.992
 Vibration     4          0.610              1.928              3.024
 Vibration     5          0.620              1.896              2.597
 Vibration     6          0.647              1.812              1.966
 Vibration     7          0.704              1.640              1.322
 Vibration     8          0.727              1.574              1.165
 Vibration     9          0.805              1.369              0.807
 Vibration    10          0.830              1.309              0.728
 Vibration    11          0.953              1.041              0.457

 Optimization completed.
    -- Stationary point found.
 Normal termination of Gaussian 16 at Tue Dec  8 10:49:30 2020.

 ----------------------------------------------------------------------
 # B3LYP/6-311++G(d,p) empiricaldispersion=gd3bj scf=xqc pop=npa geom=c
 heck
 ----------------------------------------------------------------------

 -------------------------------------
 CID_69229918_JID_473_Energie_neutraal
 -------------------------------------
 Structure from the checkpoint file:  "JID_473.chk"
 Charge =  0 Multiplicity = 1

 SCF Done:  E(RB3LYP) =  -477.513229168     A.U. after   14 cycles
 Normal termination of Gaussian 16 at Tue Dec  8 10:52:47 2020.

 ----------------------------------------------------------------------
 # B3LYP/6-311++G(d,p) empiricaldispersion=gd3bj scf=xqc pop=npa geom=c
 heck
 ----------------------------------------------------------------------

 -----------------------------------
 CID_69229918_JID_473_Energie_kation
 -----------------------------------
 Structure from the checkpoint file:  "JID_473.chk"
 Charge =  1 Multiplicity = 2

 SCF Done:  E(UB3LYP) =  -477.192122563     A.U. after   21 cycles
 Normal termination of Gaussian 16 at Tue Dec  8 10:57:56 2020.
 Gaussian 16:  ES64L-G16RevA.03 25-Dec-2016

 ----------------------------------------------------------------------
 # B3LYP/6-311++G(d,p) empiricaldispersion=gd3bj scf=xqc pop=npa geom=c
 heck
 ----------------------------------------------------------------------

 ----------------------------------
 CID_69229918_JID_473_Energie_anion
 ----------------------------------
 Structure from the checkpoint file:  "JID_473.chk"
 Charge = -1 Multiplicity = 2

                         Standard orientation:
 ---------------------------------------------------------------------
 Center     Atomic      Atomic             Coordinates (Angstroms)
 Number     Number       Type             X           Y           Z
 ---------------------------------------------------------------------
      1          6           0       -3.024808   -0.505445   -1.123346
      2          6           0       -2.069131   -0.201644    0.012428
      3          8           0       -1.887850   -0.980993    0.928696
      4          6           0       -1.349330    1.142572   -0.048331
      5          6           0       -0.137404    1.205472    0.894184
      6          6           0        0.992790    0.358045    0.424920
      7          6           0        1.412518   -0.913698    0.654852
      8          7           0        2.529346   -1.192477   -0.131392
      9          6           0        2.728085   -0.099402   -0.794611
     10          8           0        1.841702    0.896184   -0.524157
     11          1           0       -3.630431   -1.380454   -0.880261
     12          1           0       -2.447352   -0.710492   -2.034321
     13          1           0       -3.670371    0.353683   -1.340428
     14          1           0       -1.057200    1.359887   -1.083274
     15          1           0       -2.084354    1.914260    0.225492
     16          1           0        0.201148    2.242624    0.990494
     17          1           0       -0.444706    0.857513    1.883693
     18          1           0        0.981559   -1.646951    1.319955
     19          1           0        3.499150    0.120347   -1.518487
 ---------------------------------------------------------------------

 SCF Done:  E(UB3LYP) =  -477.501944460     A.U. after   33 cycles
 SCF Done:  E(UB3LYP) =  -477.501944460     a.u. after    1 cycles

 The electronic state is 2-A.
 Alpha  occ. eigenvalues --  -19.09406 -18.99403 -14.21114 -10.15161 -10.14058
 Alpha  occ. eigenvalues --  -10.12530 -10.08707 -10.07459 -10.06404 -10.05572
 Alpha  occ. eigenvalues --   -1.02744  -0.92806  -0.81846  -0.70445  -0.65249
 Alpha  occ. eigenvalues --   -0.61964  -0.54938  -0.52091  -0.47528  -0.42942
 Alpha  occ. eigenvalues --   -0.41145  -0.37785  -0.36158  -0.35275  -0.33199
 Alpha  occ. eigenvalues --   -0.32518  -0.32032  -0.30326  -0.29269  -0.27105
 Alpha  occ. eigenvalues --   -0.25836  -0.25670  -0.23680  -0.22058  -0.19294
 Alpha  occ. eigenvalues --   -0.14364  -0.13397   0.04950
 Alpha virt. eigenvalues --    0.07453   0.08131   0.08912   0.09066   0.09946
 Alpha virt. eigenvalues --    0.10934   0.11264   0.12092   0.12269   0.13146
 Alpha virt. eigenvalues --    0.14008   0.14470   0.15143   0.16613   0.16958

  Beta  occ. eigenvalues --  -19.09359 -18.99338 -14.21118 -10.15117 -10.13966
  Beta  occ. eigenvalues --  -10.12508 -10.08692 -10.07441 -10.06358 -10.05528
  Beta  occ. eigenvalues --   -1.02674  -0.92663  -0.81814  -0.70364  -0.65125
  Beta  occ. eigenvalues --   -0.61874  -0.54832  -0.52051  -0.47451  -0.42874
  Beta  occ. eigenvalues --   -0.40954  -0.37604  -0.36063  -0.35113  -0.33099
  Beta  occ. eigenvalues --   -0.32479  -0.31911  -0.30261  -0.29193  -0.27006
  Beta  occ. eigenvalues --   -0.25751  -0.25591  -0.23380  -0.21920  -0.19284
  Beta  occ. eigenvalues --   -0.14241  -0.13272
  Beta virt. eigenvalues --    0.07521   0.08290   0.08897   0.09286   0.09794
  Beta virt. eigenvalues --    0.10409   0.11704   0.12039   0.12393   0.12953
  Beta virt. eigenvalues --    0.13455   0.14325   0.14611   0.15227   0.16861

 Mulliken charges and spin densities:
               1          2
     1  C    2.009134  -2.660667
     2  C   -1.771812   2.049543
     3  O   -0.283534   0.007247
     4  C    1.871847  -2.129856
     5  C   -0.105190  -0.233437
     6  C    0.133693   0.091784
     7  C   -0.205343  -0.239534
     8  N   -0.152718   0.026596
     9  C    0.020536   0.027013
    10  O   -0.076545   0.048905
    11  H   -0.166948   0.314085
    12  H   -0.135705   0.296889
    13  H   -0.710675   0.889856
    14  H   -0.069931   0.225506
    15  H   -0.976212   1.202623
    16  H   -0.491603   0.683533
    17  H    0.095143   0.089200
    18  H    0.113840   0.051478
    19  H   -0.097979   0.259238
 Sum of Mulliken charges =  -1.00000   1.00000

 Dipole moment (field-independent basis, Debye):
    X=              6.7593    Y=             -3.1872    Z=              0.6090  Tot=              7.4978
 Quadrupole moment (field-independent basis, Debye-Ang):
   XX=           -118.5774   YY=            -99.5263   ZZ=            -83.2902
   XY=             14.0255   XZ=             -4.1355   YZ=             -0.1294

 Summary of Natural Population Analysis:

                                       Natural Population
                Natural  -----------------------------------------------
    Atom  No    Charge         Core      Valence    Rydberg      Total
 -----------------------------------------------------------------------
      C    1   -0.33375      0.99962     2.32840    0.00573     3.33375
      C    2    0.30711      0.99969     1.67228    0.02092     2.69289
      O    3   -0.29285      0.99987     3.28622    0.00675     4.29285
      C    4   -0.23420      0.99957     2.22531    0.00932     3.23420
      C    5   -0.21827      0.99959     2.20660    0.01208     3.21827
      C    6    0.14596      0.99947     1.83914    0.01543     2.85404
      C    7   -0.04626      0.99948     2.03459    0.01219     3.04626
      N    8   -0.25517      0.99972     2.74476    0.01069     3.75517
      C    9    0.17637      0.99965     1.80413    0.01985     2.82363
      O   10   -0.23611      0.99986     3.22870    0.00754     4.23611
      H   11    0.10687      0.00000     0.39204    0.00109     0.39313
      H   12    0.10909      0.00000     0.38980    0.00111     0.39091
      H   13    0.11566      0.00000     0.37900    0.00535     0.38434
      H   14    0.10684      0.00000     0.39165    0.00151     0.39316
      H   15    0.12616      0.00000     0.35937    0.01447     0.37384
      H   16    0.11256      0.00000     0.38549    0.00195     0.38744
      H   17    0.11672      0.00000     0.38205    0.00123     0.38328
      H   18    0.10674      0.00000     0.39221    0.00105     0.39326
      H   19    0.08652      0.00000     0.41242    0.00105     0.41348
 =======================================================================
   * Total *   -0.00000      9.99653    26.85416    0.14931    37.00000

 Normal termination of Gaussian 16 at Tue Dec  8 11:01:43 2020.
