 Gaussian 16, Revision A.03,

 -----------------------------------------------------------
 # opt freq B3LYP/6-31G(d) empiricaldispersion=gd3bj scf=xqc
 -----------------------------------------------------------

 ------------------------------
 CID_61642434_JID_7201_neutraal
 ------------------------------
 Symbolic Z-matrix:
 Charge =  0 Multiplicity = 1

 SCF Done:  E(RB3LYP) =  -1050.87208540     A.U. after   14 cycles
 SCF Done:  E(RB3LYP) =  -1050.87737332     A.U. after   14 cycles
 SCF Done:  E(RB3LYP) =  -1050.85305828     A.U. after   14 cycles
 SCF Done:  E(RB3LYP) =  -1050.87494875     A.U. after   13 cycles
 SCF Done:  E(RB3LYP) =  -1050.87837228     A.U. after   11 cycles
 SCF Done:  E(RB3LYP) =  -1050.88011125     A.U. after   13 cycles
 SCF Done:  E(RB3LYP) =  -1050.88071110     A.U. after   15 cycles
 SCF Done:  E(RB3LYP) =  -1050.88301861     A.U. after   13 cycles
 SCF Done:  E(RB3LYP) =  -1050.88352427     A.U. after   13 cycles
 SCF Done:  E(RB3LYP) =  -1050.88466144     A.U. after   13 cycles
 SCF Done:  E(RB3LYP) =  -1050.88564347     A.U. after    9 cycles
 SCF Done:  E(RB3LYP) =  -1050.88564458     A.U. after    9 cycles
 SCF Done:  E(RB3LYP) =  -1050.88564463     A.U. after    7 cycles
 SCF Done:  E(RB3LYP) =  -1050.88564464     A.U. after    6 cycles
 Optimization completed.
    -- Stationary point found.
 Normal termination of Gaussian 16 at Fri Dec 11 12:18:11 2020.

 --------------------------------------------------------------------
 #N Geom=AllCheck Guess=TCheck SCRF=Check GenChk RB3LYP/6-31G(d) Freq
 --------------------------------------------------------------------

 Structure from the checkpoint file:  "JID_7201.chk"
 ------------------------------
 CID_61642434_JID_7201_neutraal
 ------------------------------
 Charge =  0 Multiplicity = 1

 SCF Done:  E(RB3LYP) =  -1050.88564464     A.U. after    1 cycles

  Exact polarizability: 180.360  -7.316 185.501 -28.349 -12.749 132.814
 Approx polarizability: 273.234 -15.549 305.328 -61.610 -34.460 233.934

                      1                      2                      3
                      A                      A                      A
 Frequencies --     33.2870                59.0361                61.7344
 Red. masses --      5.1805                 4.9718                 3.6116
 Frc consts  --      0.0034                 0.0102                 0.0081
 IR Inten    --      0.5220                 0.4145                 0.7696

                      4                      5                      6
                      A                      A                      A
 Frequencies --     82.0402                97.7538                98.2984
 Red. masses --      4.7382                 1.6239                 1.9036
 Frc consts  --      0.0188                 0.0091                 0.0108
 IR Inten    --      0.4342                 0.1135                 0.1575

                      7                      8                      9
                      A                      A                      A
 Frequencies --    138.8488               160.4885               193.2397
 Red. masses --      3.0894                 4.6276                 3.1861
 Frc consts  --      0.0351                 0.0702                 0.0701
 IR Inten    --      0.4505                 0.8356                 1.1210

                     10                     11                     12
                      A                      A                      A
 Frequencies --    223.1264               260.7477               280.1647
 Red. masses --      2.2742                 3.5331                 4.0661
 Frc consts  --      0.0667                 0.1415                 0.1880
 IR Inten    --      4.3888                 1.2718                 7.2491

                     13                     14                     15
                      A                      A                      A
 Frequencies --    305.7029               323.7913               342.8238
 Red. masses --      3.5568                 1.4409                 4.2263
 Frc consts  --      0.1958                 0.0890                 0.2927
 IR Inten    --      8.6278                33.5038                 3.0934

                     16                     17                     18
                      A                      A                      A
 Frequencies --    377.3788               415.1410               445.5221
 Red. masses --      4.8408                 3.2170                 4.0239
 Frc consts  --      0.4062                 0.3267                 0.4706
 IR Inten    --      0.0922                 3.0025                 0.6649

                     19                     20                     21
                      A                      A                      A
 Frequencies --    450.7448               484.5077               514.9326
 Red. masses --      3.5045                 3.1987                 4.5862
 Frc consts  --      0.4195                 0.4424                 0.7165
 IR Inten    --      8.5141                 0.3407                 2.4867

                     22                     23                     24
                      A                      A                      A
 Frequencies --    536.9735               563.6027               626.7881
 Red. masses --      4.1359                 5.6717                 5.5607
 Frc consts  --      0.7026                 1.0615                 1.2871
 IR Inten    --      0.5457                 0.2491                 7.8452

                     25                     26                     27
                      A                      A                      A
 Frequencies --    637.8839               664.0696               695.4537
 Red. masses --      4.0264                 5.8957                 6.0799
 Frc consts  --      0.9653                 1.5318                 1.7325
 IR Inten    --      4.0120                 1.0650                 1.9488

                     28                     29                     30
                      A                      A                      A
 Frequencies --    729.8110               732.3271               771.2939
 Red. masses --      2.5464                 2.4708                 1.2543
 Frc consts  --      0.7991                 0.7807                 0.4396
 IR Inten    --      6.9097                23.9343                33.1339

                     31                     32                     33
                      A                      A                      A
 Frequencies --    818.7074               824.5486               863.4672
 Red. masses --      4.6491                 1.7141                 3.9145
 Frc consts  --      1.8360                 0.6866                 1.7195
 IR Inten    --      0.3295                16.1519                18.2792

                     34                     35                     36
                      A                      A                      A
 Frequencies --    883.9115               904.2902               928.3191
 Red. masses --      1.2853                 1.6780                 1.5405
 Frc consts  --      0.5917                 0.8085                 0.7822
 IR Inten    --      0.3402               122.1272               122.9135

                     37                     38                     39
                      A                      A                      A
 Frequencies --    948.1022               957.1157               968.8282
 Red. masses --      1.3278                 1.3403                 1.4308
 Frc consts  --      0.7032                 0.7234                 0.7913
 IR Inten    --      0.4044                 3.0733                 4.5859

                     40                     41                     42
                      A                      A                      A
 Frequencies --    991.7868               992.1418              1024.2782
 Red. masses --      1.2737                 1.3769                 1.5622
 Frc consts  --      0.7382                 0.7986                 0.9657
 IR Inten    --      0.0645                 0.0637                 1.4632

                     43                     44                     45
                      A                      A                      A
 Frequencies --   1034.4465              1045.5319              1070.1937
 Red. masses --      3.2747                 4.1233                 3.9321
 Frc consts  --      2.0646                 2.6556                 2.6534
 IR Inten    --     48.8306                 6.4475                 8.1366

                     46                     47                     48
                      A                      A                      A
 Frequencies --   1077.6522              1078.4387              1085.5117
 Red. masses --      1.5923                 2.5578                 2.4503
 Frc consts  --      1.0895                 1.7527                 1.7012
 IR Inten    --      3.4494                 0.2937                 1.1986

                     49                     50                     51
                      A                      A                      A
 Frequencies --   1120.2536              1153.8350              1162.8460
 Red. masses --      2.1826                 1.5027                 1.4985
 Frc consts  --      1.6138                 1.1787                 1.1939
 IR Inten    --      1.8218                 7.5892                 0.5990

                     52                     53                     54
                      A                      A                      A
 Frequencies --   1169.1145              1198.8661              1230.4587
 Red. masses --      1.3936                 1.0955                 1.7608
 Frc consts  --      1.1223                 0.9277                 1.5707
 IR Inten    --      3.6878                 0.4773                 2.1272

                     55                     56                     57
                      A                      A                      A
 Frequencies --   1234.2362              1238.8677              1278.7406
 Red. masses --      1.5259                 2.4676                 1.8308
 Frc consts  --      1.3695                 2.2314                 1.7639
 IR Inten    --      2.3897                 1.2422                 5.8904

                     58                     59                     60
                      A                      A                      A
 Frequencies --   1305.4952              1312.5604              1330.9683
 Red. masses --      2.0141                 1.5254                 2.0219
 Frc consts  --      2.0224                 1.5483                 2.1103
 IR Inten    --     12.0055                 2.3229                 6.8696

                     61                     62                     63
                      A                      A                      A
 Frequencies --   1339.3282              1386.0701              1405.7250
 Red. masses --      6.4379                 1.2524                 1.2937
 Frc consts  --      6.8041                 1.4176                 1.5062
 IR Inten    --      2.6486                 4.5630                 8.1514

                     64                     65                     66
                      A                      A                      A
 Frequencies --   1422.3098              1448.3491              1473.8378
 Red. masses --      1.1856                 1.2363                 2.1989
 Frc consts  --      1.4132                 1.5280                 2.8142
 IR Inten    --      1.4223                 1.4704                24.7687

                     67                     68                     69
                      A                      A                      A
 Frequencies --   1478.9571              1510.7475              1514.7892
 Red. masses --      1.8624                 1.0509                 1.5956
 Frc consts  --      2.4002                 1.4132                 2.1571
 IR Inten    --      0.9569                 4.0187                 7.8252

                     70                     71                     72
                      A                      A                      A
 Frequencies --   1516.4220              1528.1572              1531.4314
 Red. masses --      1.2080                 1.4998                 1.8842
 Frc consts  --      1.6366                 2.0636                 2.6036
 IR Inten    --      9.5246                13.3069                 7.6053

                     73                     74                     75
                      A                      A                      A
 Frequencies --   1626.8290              1627.7462              1649.6277
 Red. masses --      5.3487                 4.9991                 5.5550
 Frc consts  --      8.3404                 7.8039                 8.9066
 IR Inten    --      0.2014                10.6411                 4.6350

                     76                     77                     78
                      A                      A                      A
 Frequencies --   1651.8425              1708.0258              3053.2970
 Red. masses --      5.5707                 1.0860                 1.0849
 Frc consts  --      8.9557                 1.8667                 5.9591
 IR Inten    --      2.1274                25.0088                12.6051

                     79                     80                     81
                      A                      A                      A
 Frequencies --   3058.9537              3066.0701              3112.9074
 Red. masses --      1.0649                 1.0362                 1.0992
 Frc consts  --      5.8709                 5.7395                 6.2756
 IR Inten    --     26.8007                18.5471                19.6122

                     82                     83                     84
                      A                      A                      A
 Frequencies --   3129.9945              3139.7929              3173.2730
 Red. masses --      1.1010                 1.1015                 1.0884
 Frc consts  --      6.3552                 6.3979                 6.4574
 IR Inten    --      8.5174                11.9035                18.8789

                     85                     86                     87
                      A                      A                      A
 Frequencies --   3183.3119              3184.6403              3195.0966
 Red. masses --      1.0899                 1.0860                 1.0889
 Frc consts  --      6.5069                 6.4893                 6.5497
 IR Inten    --     14.4834                 3.4276                 9.5799

                     88                     89                     90
                      A                      A                      A
 Frequencies --   3201.8675              3205.9648              3211.6153
 Red. masses --      1.0904                 1.0929                 1.0963
 Frc consts  --      6.5860                 6.6186                 6.6622
 IR Inten    --     19.1214                23.1664                19.0777

                     91                     92                     93
                      A                      A                      A
 Frequencies --   3216.2091              3453.8560              3537.3147
 Red. masses --      1.0971                 1.0491                 1.0917
 Frc consts  --      6.6862                 7.3738                 8.0483
 IR Inten    --     16.4657                 2.3264                 0.5125

 - Thermochemistry -
 -------------------
 Temperature   298.150 Kelvin.  Pressure   1.00000 Atm.
 Atom     1 has atomic number  6 and mass  12.00000

 Molecular mass:   244.10342 amu.
 Principal axes and moments of inertia in atomic units:
                           1         2         3
     Eigenvalues --  3437.822844223.866925843.94441
           X            0.99970   0.00918  -0.02285
           Y           -0.00861   0.99965   0.02505
           Z            0.02307  -0.02485   0.99943
 This molecule is an asymmetric top.
 Rotational symmetry number  1.
 Warning -- assumption of classical behavior for rotation
           may cause significant error
 Rotational temperatures (Kelvin)      0.02519     0.02051     0.01482
 Rotational constants (GHZ):           0.52497     0.42727     0.30882
 Zero-point vibrational energy     720662.7 (Joules/Mol)
                                  172.24251 (Kcal/Mol)
 Warning -- explicit consideration of  23 degrees of freedom as
           vibrations may cause significant error
 Vibrational temperatures:     47.89    84.94    88.82   118.04   140.65
          (Kelvin)            141.43   199.77   230.91   278.03   321.03
                              375.16   403.09   439.84   465.86   493.25
                              542.96   597.30   641.01   648.52   697.10
                              740.87   772.59   810.90   901.81   917.77
                              955.45  1000.60  1050.04  1053.66  1109.72
                             1177.94  1186.34  1242.34  1271.75  1301.07
                             1335.64  1364.11  1377.08  1393.93  1426.96
                             1427.47  1473.71  1488.34  1504.29  1539.77
                             1550.50  1551.63  1561.81  1611.80  1660.11
                             1673.08  1682.10  1724.90  1770.36  1775.79
                             1782.45  1839.82  1878.32  1888.48  1914.97
                             1926.99  1994.25  2022.52  2046.39  2083.85
                             2120.52  2127.89  2173.63  2179.44  2181.79
                             2198.68  2203.39  2340.64  2341.96  2373.45
                             2376.63  2457.47  4393.01  4401.15  4411.39
                             4478.78  4503.36  4517.46  4565.63  4580.08
                             4581.99  4597.03  4606.77  4612.67  4620.80
                             4627.41  4969.33  5089.41

 Zero-point correction=                           0.274486 (Hartree/Particle)
 Thermal correction to Energy=                    0.290388
 Thermal correction to Enthalpy=                  0.291332
 Thermal correction to Gibbs Free Energy=         0.230543
 Sum of electronic and zero-point Energies=          -1050.611159
 Sum of electronic and thermal Energies=             -1050.595257
 Sum of electronic and thermal Enthalpies=           -1050.594313
 Sum of electronic and thermal Free Energies=        -1050.655102

                     E (Thermal)             CV                S
                      KCal/Mol        Cal/Mol-Kelvin    Cal/Mol-Kelvin
 Total                  182.221             61.009            127.942
 Electronic               0.000              0.000              0.000
 Translational            0.889              2.981             42.378
 Rotational               0.889              2.981             32.806
 Vibrational            180.444             55.047             52.757
 Vibration     1          0.594              1.983              5.623
 Vibration     2          0.596              1.974              4.489
 Vibration     3          0.597              1.973              4.401
 Vibration     4          0.600              1.961              3.841
 Vibration     5          0.603              1.951              3.499
 Vibration     6          0.604              1.950              3.488
 Vibration     7          0.614              1.914              2.820
 Vibration     8          0.622              1.891              2.544
 Vibration     9          0.635              1.849              2.197
 Vibration    10          0.649              1.806              1.934
 Vibration    11          0.669              1.745              1.657
 Vibration    12          0.680              1.710              1.533
 Vibration    13          0.696              1.663              1.385
 Vibration    14          0.708              1.628              1.291
 Vibration    15          0.722              1.590              1.199
 Vibration    16          0.748              1.518              1.050
 Vibration    17          0.779              1.437              0.909
 Vibration    18          0.805              1.371              0.809
 Vibration    19          0.810              1.359              0.794
 Vibration    20          0.841              1.284              0.698
 Vibration    21          0.870              1.217              0.622
 Vibration    22          0.892              1.168              0.572
 Vibration    23          0.919              1.110              0.517

 Optimization completed.
    -- Stationary point found.
 Normal termination of Gaussian 16 at Fri Dec 11 12:31:56 2020.

 ----------------------------------------------------------------------
 # B3LYP/6-311++G(d,p) empiricaldispersion=gd3bj scf=xqc pop=npa geom=c
 heck
 ----------------------------------------------------------------------

 --------------------------------------
 CID_61642434_JID_7201_Energie_neutraal
 --------------------------------------
 Structure from the checkpoint file:  "JID_7201.chk"
 Charge =  0 Multiplicity = 1

 SCF Done:  E(RB3LYP) =  -1051.08823796     A.U. after   16 cycles
 Normal termination of Gaussian 16 at Fri Dec 11 12:39:57 2020.

 ----------------------------------------------------------------------
 # B3LYP/6-311++G(d,p) empiricaldispersion=gd3bj scf=xqc pop=npa geom=c
 heck
 ----------------------------------------------------------------------

 ------------------------------------
 CID_61642434_JID_7201_Energie_kation
 ------------------------------------
 Structure from the checkpoint file:  "JID_7201.chk"
 Charge =  1 Multiplicity = 2

 SCF Done:  E(UB3LYP) =  -1050.78430294     A.U. after   33 cycles
 SCF Done:  E(UB3LYP) =  -1050.78693633     a.u. after    9 cycles
 Normal termination of Gaussian 16 at Fri Dec 11 15:17:45 2020.
 Gaussian 16:  ES64L-G16RevA.03 25-Dec-2016

 ----------------------------------------------------------------------
 # B3LYP/6-311++G(d,p) empiricaldispersion=gd3bj scf=xqc pop=npa geom=c
 heck
 ----------------------------------------------------------------------

 -----------------------------------
 CID_61642434_JID_7201_Energie_anion
 -----------------------------------
 Structure from the checkpoint file:  "JID_7201.chk"
 Charge = -1 Multiplicity = 2

                         Standard orientation:
 ---------------------------------------------------------------------
 Center     Atomic      Atomic             Coordinates (Angstroms)
 Number     Number       Type             X           Y           Z
 ---------------------------------------------------------------------
      1          6           0       -0.186548   -1.852477   -1.824221
      2          6           0       -1.202066   -1.387292   -0.811452
      3          6           0       -1.912681   -2.329048   -0.057121
      4          6           0       -2.860035   -1.946970    0.890953
      5          6           0       -3.136517   -0.595714    1.093013
      6          6           0       -2.448513    0.360335    0.348527
      7          6           0       -1.473024   -0.021606   -0.582506
      8         16           0       -0.576529    1.254880   -1.465149
      9          6           0        0.759470    1.689503   -0.217828
     10          6           0        0.189745    2.466347    0.988465
     11          7           0       -0.499491    3.711226    0.678574
     12          6           0        1.585544    0.488431    0.152525
     13          6           0        1.185600   -0.416117    1.148450
     14          7           0        1.869717   -1.516998    1.481227
     15          6           0        3.008101   -1.761032    0.823114
     16          6           0        3.510904   -0.926459   -0.176644
     17          6           0        2.785128    0.211662   -0.512360
     18          1           0       -0.201579   -2.943122   -1.906826
     19          1           0       -0.384870   -1.427004   -2.813031
     20          1           0        0.825787   -1.546833   -1.544631
     21          1           0       -1.708659   -3.384590   -0.215165
     22          1           0       -3.386028   -2.705060    1.464217
     23          1           0       -3.883021   -0.285973    1.818394
     24          1           0       -2.664967    1.414907    0.484895
     25          1           0        1.379553    2.378108   -0.805324
     26          1           0       -0.500079    1.823962    1.543854
     27          1           0        1.022923    2.687249    1.667373
     28          1           0       -1.227561    3.519789   -0.009786
     29          1           0        0.145500    4.359174    0.227009
     30          1           0        0.262031   -0.256502    1.697164
     31          1           0        3.543740   -2.664228    1.109898
     32          1           0        4.444104   -1.166021   -0.677227
     33          1           0        3.135358    0.881097   -1.294522
 ---------------------------------------------------------------------

 SCF Done:  E(UB3LYP) =  -1051.08258728     A.U. after   33 cycles
 SCF Done:  E(UB3LYP) =  -1051.08258728     a.u. after    1 cycles

 The electronic state is 2-A.
 Alpha  occ. eigenvalues --  -88.72548 -14.18576 -14.18480 -10.09328 -10.09054
 Alpha  occ. eigenvalues --  -10.08714 -10.07947 -10.07803 -10.07379 -10.07238
 Alpha  occ. eigenvalues --  -10.06588 -10.06398 -10.06242 -10.06025 -10.05784
 Alpha  occ. eigenvalues --  -10.05728 -10.05437  -7.81119  -5.77500  -5.77153
 Alpha  occ. eigenvalues --   -5.76507  -0.82335  -0.78211  -0.75173  -0.70844
 Alpha  occ. eigenvalues --   -0.67399  -0.66220  -0.64975  -0.61449  -0.58161
 Alpha  occ. eigenvalues --   -0.56202  -0.52605  -0.50990  -0.49107  -0.47975
 Alpha  occ. eigenvalues --   -0.45331  -0.40662  -0.39379  -0.38862  -0.37326
 Alpha  occ. eigenvalues --   -0.35712  -0.34905  -0.33695  -0.32902  -0.32537
 Alpha  occ. eigenvalues --   -0.30915  -0.30383  -0.29475  -0.29093  -0.28466
 Alpha  occ. eigenvalues --   -0.28013  -0.27328  -0.25895  -0.25607  -0.24906
 Alpha  occ. eigenvalues --   -0.23751  -0.22565  -0.20609  -0.17500  -0.15221
 Alpha  occ. eigenvalues --   -0.14663  -0.13977  -0.13550  -0.13276  -0.11722
 Alpha  occ. eigenvalues --    0.04690
 Alpha virt. eigenvalues --    0.06996   0.07456   0.07692   0.07783   0.09033
 Alpha virt. eigenvalues --    0.09258   0.09463   0.09617   0.10087   0.10726
 Alpha virt. eigenvalues --    0.10984   0.11699   0.11853   0.12885   0.13522

  Beta  occ. eigenvalues --  -88.72552 -14.18553 -14.18327 -10.09253 -10.09080
  Beta  occ. eigenvalues --  -10.08713 -10.07844 -10.07678 -10.07352 -10.07279
  Beta  occ. eigenvalues --  -10.06465 -10.06444 -10.06168 -10.05912 -10.05735
  Beta  occ. eigenvalues --  -10.05562 -10.05438  -7.81122  -5.77503  -5.77161
  Beta  occ. eigenvalues --   -5.76510  -0.82095  -0.78160  -0.74987  -0.70696
  Beta  occ. eigenvalues --   -0.67179  -0.66086  -0.64767  -0.61263  -0.58086
  Beta  occ. eigenvalues --   -0.56110  -0.52455  -0.50749  -0.48907  -0.47869
  Beta  occ. eigenvalues --   -0.45211  -0.40554  -0.39326  -0.38788  -0.37233
  Beta  occ. eigenvalues --   -0.35621  -0.34781  -0.33581  -0.32820  -0.32356
  Beta  occ. eigenvalues --   -0.30839  -0.30342  -0.29400  -0.29024  -0.28354
  Beta  occ. eigenvalues --   -0.27861  -0.26977  -0.25778  -0.25500  -0.24542
  Beta  occ. eigenvalues --   -0.23683  -0.22417  -0.20438  -0.16780  -0.14940
  Beta  occ. eigenvalues --   -0.14074  -0.13780  -0.13165  -0.12948  -0.11601
  Beta virt. eigenvalues --    0.07305   0.07748   0.07956   0.08111   0.08713
  Beta virt. eigenvalues --    0.09103   0.09613   0.09758   0.09958   0.10211
  Beta virt. eigenvalues --    0.10800   0.11165   0.11864   0.11877   0.12945

 Mulliken charges and spin densities:
               1          2
     1  C   -0.731418  -0.068373
     2  C    0.660166   0.064099
     3  C   -0.234420   0.031643
     4  C   -0.364986   0.102984
     5  C   -0.471702  -0.036405
     6  C   -0.269620   0.064975
     7  C    0.420594   0.172199
     8  S   -0.240241  -0.011495
     9  C    1.108689  -1.025782
    10  C   -0.310678  -0.589593
    11  N   -0.231974   0.009985
    12  C   -0.155876   0.520564
    13  C   -1.226150   0.503700
    14  N    0.023127   0.067058
    15  C   -0.064646  -0.130326
    16  C    0.461649  -0.711119
    17  C   -0.053413  -0.042676
    18  H    0.080488   0.039538
    19  H    0.145561  -0.003833
    20  H    0.223391  -0.047537
    21  H    0.127510  -0.000884
    22  H    0.128819  -0.006443
    23  H    0.123485   0.012787
    24  H    0.117480   0.037728
    25  H   -0.524555   0.829637
    26  H    0.187825  -0.013834
    27  H    0.128189   0.024917
    28  H    0.175587   0.039053
    29  H   -0.006666   0.247258
    30  H    0.239019  -0.001592
    31  H    0.128364   0.021565
    32  H   -0.102429   0.252751
    33  H   -0.491170   0.647450
 Sum of Mulliken charges =  -1.00000   1.00000

 Dipole moment (field-independent basis, Debye):
    X=             -2.7032    Y=             -3.9505    Z=              0.2495  Tot=              4.7933
 Quadrupole moment (field-independent basis, Debye-Ang):
   XX=           -148.6607   YY=           -154.3882   ZZ=           -134.0928
   XY=             -5.5396   XZ=              0.7113   YZ=              5.4651

 Summary of Natural Population Analysis:

                                       Natural Population
                Natural  -----------------------------------------------
    Atom  No    Charge         Core      Valence    Rydberg      Total
 -----------------------------------------------------------------------
      C    1   -0.29427      0.99963     2.28920    0.00544     3.29427
      C    2   -0.00445      0.99944     1.99407    0.01094     3.00445
      C    3   -0.09803      0.99951     2.09070    0.00782     3.09803
      C    4   -0.06527      0.99957     2.05708    0.00862     3.06527
      C    5   -0.12086      0.99956     2.11281    0.00849     3.12086
      C    6   -0.08170      0.99949     2.07234    0.00987     3.08170
      C    7   -0.08317      0.99934     2.07061    0.01322     3.08317
      S    8    0.09355      4.99956     2.88953    0.01736     7.90645
      C    9   -0.16279      0.99950     2.14528    0.01800     3.16279
      C   10   -0.09586      0.99959     2.08309    0.01318     3.09586
      N   11   -0.42290      0.99978     2.91302    0.01010     3.92290
      C   12   -0.05209      0.99947     2.04020    0.01243     3.05209
      C   13    0.04699      0.99953     1.93837    0.01511     2.95301
      N   14   -0.21580      0.99971     2.70546    0.01062     3.71580
      C   15    0.01246      0.99959     1.97281    0.01514     2.98754
      C   16   -0.11843      0.99956     2.10947    0.00941     3.11843
      C   17   -0.06051      0.99950     2.05062    0.01038     3.06051
      H   18    0.09509      0.00000     0.40402    0.00089     0.40491
      H   19    0.10450      0.00000     0.39456    0.00094     0.39550
      H   20    0.11416      0.00000     0.38458    0.00125     0.38584
      H   21    0.09362      0.00000     0.40511    0.00127     0.40638
      H   22    0.09202      0.00000     0.40702    0.00095     0.40798
      H   23    0.09516      0.00000     0.40356    0.00129     0.40484
      H   24    0.09957      0.00000     0.39903    0.00139     0.40043
      H   25    0.10917      0.00000     0.38581    0.00503     0.39083
      H   26    0.09599      0.00000     0.40254    0.00147     0.40401
      H   27    0.09543      0.00000     0.40359    0.00098     0.40457
      H   28    0.17679      0.00000     0.32104    0.00216     0.32321
      H   29    0.17288      0.00000     0.32500    0.00213     0.32712
      H   30    0.09359      0.00000     0.40486    0.00155     0.40641
      H   31    0.08425      0.00000     0.41468    0.00106     0.41575
      H   32    0.09887      0.00000     0.40031    0.00082     0.40113
      H   33    0.10204      0.00000     0.39670    0.00126     0.39796
 =======================================================================
   * Total *    0.00000     20.99233    43.78706    0.22061    65.00000

 Normal termination of Gaussian 16 at Fri Dec 11 15:37:59 2020.
