 Gaussian 16, Revision A.03,

 -----------------------------------------------------------
 # opt freq B3LYP/6-31G(d) empiricaldispersion=gd3bj scf=xqc
 -----------------------------------------------------------

 ------------------------------
 CID_64850913_JID_8961_neutraal
 ------------------------------
 Symbolic Z-matrix:
 Charge =  0 Multiplicity = 1

 SCF Done:  E(RB3LYP) =  -1113.64737711     A.U. after   14 cycles
 SCF Done:  E(RB3LYP) =  -1113.65903647     A.U. after   12 cycles
 SCF Done:  E(RB3LYP) =  -1113.66038179     A.U. after   12 cycles
 SCF Done:  E(RB3LYP) =  -1113.66089635     A.U. after   11 cycles
 SCF Done:  E(RB3LYP) =  -1113.66114222     A.U. after   11 cycles
 SCF Done:  E(RB3LYP) =  -1113.66122697     A.U. after   10 cycles
 SCF Done:  E(RB3LYP) =  -1113.66123999     A.U. after   10 cycles
 SCF Done:  E(RB3LYP) =  -1113.66124302     A.U. after    9 cycles
 SCF Done:  E(RB3LYP) =  -1113.66124433     A.U. after    9 cycles
 SCF Done:  E(RB3LYP) =  -1113.66124462     A.U. after    9 cycles
 SCF Done:  E(RB3LYP) =  -1113.66124473     A.U. after    7 cycles
 SCF Done:  E(RB3LYP) =  -1113.66124476     A.U. after    6 cycles
 Optimization completed.
    -- Stationary point found.
 Normal termination of Gaussian 16 at Fri Dec 11 23:07:09 2020.

 --------------------------------------------------------------------
 #N Geom=AllCheck Guess=TCheck SCRF=Check GenChk RB3LYP/6-31G(d) Freq
 --------------------------------------------------------------------

 Structure from the checkpoint file:  "JID_8961.chk"
 ------------------------------
 CID_64850913_JID_8961_neutraal
 ------------------------------
 Charge =  0 Multiplicity = 1

 SCF Done:  E(RB3LYP) =  -1113.66124476     A.U. after    1 cycles

  Exact polarizability: 280.766 -10.483 155.574  -2.238 -13.806 136.447
 Approx polarizability: 337.861 -22.200 247.324  -9.301 -32.866 216.584

                      1                      2                      3
                      A                      A                      A
 Frequencies --     20.1337                24.2305                40.9789
 Red. masses --      4.5838                 3.2608                 3.0089
 Frc consts  --      0.0011                 0.0011                 0.0030
 IR Inten    --      0.1454                 0.9059                 0.1347

                      4                      5                      6
                      A                      A                      A
 Frequencies --     45.2923                60.4074                74.1924
 Red. masses --      3.6109                 3.3622                 3.9266
 Frc consts  --      0.0044                 0.0072                 0.0127
 IR Inten    --      0.7034                 0.9907                 0.5517

                      7                      8                      9
                      A                      A                      A
 Frequencies --     96.0411               114.6841               160.4814
 Red. masses --      3.9562                 2.3797                 1.0660
 Frc consts  --      0.0215                 0.0184                 0.0162
 IR Inten    --      1.3966                 1.1929                 0.1667

                     10                     11                     12
                      A                      A                      A
 Frequencies --    168.6056               181.6039               204.3094
 Red. masses --      3.2112                 2.6966                 2.3297
 Frc consts  --      0.0538                 0.0524                 0.0573
 IR Inten    --      0.5958                 0.3402                 0.2501

                     13                     14                     15
                      A                      A                      A
 Frequencies --    222.9044               228.2643               236.5740
 Red. masses --      2.0216                 1.5757                 1.9777
 Frc consts  --      0.0592                 0.0484                 0.0652
 IR Inten    --      0.8996                 0.5390                 0.4162

                     16                     17                     18
                      A                      A                      A
 Frequencies --    256.1260               270.8522               312.6502
 Red. masses --      2.0020                 1.1018                 2.7722
 Frc consts  --      0.0774                 0.0476                 0.1597
 IR Inten    --      1.0050                 1.6177                 0.3937

                     19                     20                     21
                      A                      A                      A
 Frequencies --    317.4591               351.1149               374.0479
 Red. masses --      3.0011                 3.4583                 2.9997
 Frc consts  --      0.1782                 0.2512                 0.2473
 IR Inten    --      3.2215                 1.0660                 1.5575

                     22                     23                     24
                      A                      A                      A
 Frequencies --    391.0354               405.3408               424.0818
 Red. masses --      3.4434                 2.5466                 3.1598
 Frc consts  --      0.3102                 0.2465                 0.3348
 IR Inten    --      1.6799                21.4419                 0.0630

                     25                     26                     27
                      A                      A                      A
 Frequencies --    450.3242               469.7991               504.2415
 Red. masses --      3.6180                 2.7696                 2.7472
 Frc consts  --      0.4323                 0.3602                 0.4115
 IR Inten    --     43.0792                57.7258                28.3928

                     28                     29                     30
                      A                      A                      A
 Frequencies --    526.3919               545.1860               574.6921
 Red. masses --      1.8378                 2.5640                 2.6224
 Frc consts  --      0.3000                 0.4490                 0.5103
 IR Inten    --     24.0150                20.6519                 5.1207

                     31                     32                     33
                      A                      A                      A
 Frequencies --    620.0753               654.4187               685.5094
 Red. masses --      2.9949                 6.6328                 5.1304
 Frc consts  --      0.6785                 1.6736                 1.4205
 IR Inten    --      6.3634                 0.8233                 0.5308

                     34                     35                     36
                      A                      A                      A
 Frequencies --    704.2846               724.5535               753.3408
 Red. masses --      6.1998                 3.6389                 2.6470
 Frc consts  --      1.8119                 1.1255                 0.8851
 IR Inten    --      1.4515                 1.5180                 1.1596

                     37                     38                     39
                      A                      A                      A
 Frequencies --    811.8532               818.1875               829.9531
 Red. masses --      1.1729                 1.2624                 1.8154
 Frc consts  --      0.4555                 0.4979                 0.7368
 IR Inten    --      1.0486                 0.6581                32.6699

                     40                     41                     42
                      A                      A                      A
 Frequencies --    832.9596               861.0453               896.3322
 Red. masses --      1.9404                 4.2073                 2.3844
 Frc consts  --      0.7932                 1.8378                 1.1287
 IR Inten    --     17.3598                 0.9780                 3.0749

                     43                     44                     45
                      A                      A                      A
 Frequencies --    924.4910               936.0638               952.4324
 Red. masses --      2.6379                 1.9172                 1.3008
 Frc consts  --      1.3284                 0.9898                 0.6952
 IR Inten    --      3.9171                 2.4839                 0.2967

                     46                     47                     48
                      A                      A                      A
 Frequencies --    952.8446               969.8345               985.4456
 Red. masses --      1.2962                 1.3709                 1.1796
 Frc consts  --      0.6934                 0.7597                 0.6749
 IR Inten    --      0.1467                 0.4437                 2.4493

                     49                     50                     51
                      A                      A                      A
 Frequencies --   1005.3562              1013.0275              1018.8142
 Red. masses --      1.3130                 1.7132                 1.3483
 Frc consts  --      0.7819                 1.0359                 0.8246
 IR Inten    --     35.3663                 1.3800                 2.5916

                     52                     53                     54
                      A                      A                      A
 Frequencies --   1028.4526              1042.3887              1081.1071
 Red. masses --      3.4246                 2.8609                 3.3015
 Frc consts  --      2.1342                 1.8315                 2.2735
 IR Inten    --      0.3752                12.8809                32.1244

                     55                     56                     57
                      A                      A                      A
 Frequencies --   1114.7446              1123.4168              1131.5131
 Red. masses --      2.5464                 2.9290                 1.9892
 Frc consts  --      1.8644                 2.1780                 1.5006
 IR Inten    --     47.1576                 1.5820                54.8599

                     58                     59                     60
                      A                      A                      A
 Frequencies --   1145.9522              1152.7571              1191.9341
 Red. masses --      1.3822                 2.2141                 2.5834
 Frc consts  --      1.0694                 1.7335                 2.1625
 IR Inten    --      6.3738               168.4892                10.3510

                     61                     62                     63
                      A                      A                      A
 Frequencies --   1202.4538              1217.8275              1219.7705
 Red. masses --      1.9160                 1.3029                 1.7922
 Frc consts  --      1.6322                 1.1385                 1.5711
 IR Inten    --      4.2895                10.5848                45.9690

                     64                     65                     66
                      A                      A                      A
 Frequencies --   1232.7808              1260.1750              1276.8991
 Red. masses --      2.1043                 1.5186                 1.3449
 Frc consts  --      1.8842                 1.4209                 1.2920
 IR Inten    --     13.6901                31.1168                 5.6658

                     67                     68                     69
                      A                      A                      A
 Frequencies --   1286.0618              1308.7499              1331.7704
 Red. masses --      2.9582                 2.7970                 1.5226
 Frc consts  --      2.8827                 2.8226                 1.5911
 IR Inten    --      8.1259                79.6681                 8.5561

                     70                     71                     72
                      A                      A                      A
 Frequencies --   1340.0742              1348.4472              1364.0204
 Red. masses --      1.2694                 1.5028                 3.1752
 Frc consts  --      1.3431                 1.6100                 3.4807
 IR Inten    --     10.5928                15.6804               133.4493

                     73                     74                     75
                      A                      A                      A
 Frequencies --   1381.7800              1389.1621              1405.5504
 Red. masses --      1.1573                 1.3681                 1.2663
 Frc consts  --      1.3019                 1.5556                 1.4739
 IR Inten    --      7.7737                16.3121                32.5686

                     76                     77                     78
                      A                      A                      A
 Frequencies --   1427.5883              1436.0539              1442.1150
 Red. masses --      1.2592                 1.2856                 1.3390
 Frc consts  --      1.5120                 1.5620                 1.6408
 IR Inten    --      9.1330                18.6447                12.4333

                     79                     80                     81
                      A                      A                      A
 Frequencies --   1450.4291              1457.6294              1496.0949
 Red. masses --      1.3323                 2.2149                 1.0564
 Frc consts  --      1.6514                 2.7726                 1.3932
 IR Inten    --     10.6067                 7.9681                 9.5476

                     82                     83                     84
                      A                      A                      A
 Frequencies --   1512.4613              1513.9846              1516.0369
 Red. masses --      1.0709                 1.0542                 1.1071
 Frc consts  --      1.4433                 1.4237                 1.4992
 IR Inten    --      9.4699                 7.4929                 0.3135

                     85                     86                     87
                      A                      A                      A
 Frequencies --   1519.6631              1520.1228              1524.5837
 Red. masses --      1.0477                 1.0726                 1.0550
 Frc consts  --      1.4255                 1.4603                 1.4447
 IR Inten    --      4.9243                 6.6974                 0.1386

                     88                     89                     90
                      A                      A                      A
 Frequencies --   1532.4072              1535.5832              1540.0090
 Red. masses --      1.4080                 1.1046                 1.1110
 Frc consts  --      1.9481                 1.5346                 1.5524
 IR Inten    --     24.4292                 8.4213                 3.0141

                     91                     92                     93
                      A                      A                      A
 Frequencies --   1543.2548              1555.7299              1625.9498
 Red. masses --      1.1182                 2.3741                 4.1758
 Frc consts  --      1.5691                 3.3854                 6.5043
 IR Inten    --     17.4221               230.5199                11.2568

                     94                     95                     96
                      A                      A                      A
 Frequencies --   1662.9706              3013.7968              3024.2375
 Red. masses --      5.7723                 1.0797                 1.0696
 Frc consts  --      9.4053                 5.7781                 5.7640
 IR Inten    --    224.7671                37.0674                21.2106

                     97                     98                     99
                      A                      A                      A
 Frequencies --   3036.9069              3050.4472              3055.5617
 Red. masses --      1.0367                 1.0384                 1.0364
 Frc consts  --      5.6332                 5.6930                 5.7010
 IR Inten    --     33.9149                21.2266                19.5781

                    100                    101                    102
                      A                      A                      A
 Frequencies --   3060.9948              3062.4138              3086.4513
 Red. masses --      1.0292                 1.0840                 1.0590
 Frc consts  --      5.6819                 5.9900                 5.9435
 IR Inten    --     33.9833                23.4636                13.9269

                    103                    104                    105
                      A                      A                      A
 Frequencies --   3092.5269              3103.3949              3105.0980
 Red. masses --      1.0971                 1.1021                 1.1021
 Frc consts  --      6.1821                 6.2537                 6.2604
 IR Inten    --     24.8424                22.1610                26.9568

                    106                    107                    108
                      A                      A                      A
 Frequencies --   3116.0823              3121.9963              3128.1414
 Red. masses --      1.0994                 1.1010                 1.1015
 Frc consts  --      6.2897                 6.3226                 6.3506
 IR Inten    --     37.4889                48.2345                39.8404

                    109                    110                    111
                      A                      A                      A
 Frequencies --   3135.5736              3141.7133              3149.0897
 Red. masses --      1.1038                 1.1086                 1.1081
 Frc consts  --      6.3940                 6.4473                 6.4745
 IR Inten    --     35.6681                21.6842                12.0570

                    112                    113                    114
                      A                      A                      A
 Frequencies --   3152.3019              3171.3243              3198.5653
 Red. masses --      1.1051                 1.0883                 1.0884
 Frc consts  --      6.4700                 6.4489                 6.5610
 IR Inten    --     14.7870                18.6861                 8.1417

                    115                    116                    117
                      A                      A                      A
 Frequencies --   3205.4085              3221.6192              3595.1716
 Red. masses --      1.0930                 1.0923                 1.0747
 Frc consts  --      6.6167                 6.6793                 8.1843
 IR Inten    --     11.4654                17.3192                24.3686

 - Thermochemistry -
 -------------------
 Temperature   298.150 Kelvin.  Pressure   1.00000 Atm.
 Atom     1 has atomic number  6 and mass  12.00000

 Molecular mass:   265.15004 amu.
 Principal axes and moments of inertia in atomic units:
                           1         2         3
     Eigenvalues --  1562.47385********************
           X            0.99999   0.00462   0.00179
           Y           -0.00453   0.99898  -0.04485
           Z           -0.00200   0.04484   0.99899
 This molecule is an asymmetric top.
 Rotational symmetry number  1.
 Warning -- assumption of classical behavior for rotation
           may cause significant error
 Rotational temperatures (Kelvin)      0.05543     0.00590     0.00571
 Rotational constants (GHZ):           1.15505     0.12294     0.11903
 Zero-point vibrational energy     935612.2 (Joules/Mol)
                                  223.61668 (Kcal/Mol)
 Warning -- explicit consideration of  31 degrees of freedom as
           vibrations may cause significant error
 Vibrational temperatures:     28.97    34.86    58.96    65.17    86.91
          (Kelvin)            106.75   138.18   165.00   230.90   242.59
                              261.29   293.96   320.71   328.42   340.38
                              368.51   389.70   449.83   456.75   505.18
                              538.17   562.61   583.20   610.16   647.92
                              675.94   725.49   757.36   784.40   826.85
                              892.15   941.56   986.30  1013.31  1042.47
                             1083.89  1168.08  1177.19  1194.12  1198.44
                             1238.85  1289.62  1330.14  1346.79  1370.34
                             1370.93  1395.38  1417.84  1446.48  1457.52
                             1465.85  1479.71  1499.76  1555.47  1603.87
                             1616.35  1627.99  1648.77  1658.56  1714.93
                             1730.06  1752.18  1754.98  1773.70  1813.11
                             1837.17  1850.36  1883.00  1916.12  1928.07
                             1940.11  1962.52  1988.07  1998.69  2022.27
                             2053.98  2066.16  2074.88  2086.84  2097.20
                             2152.55  2176.09  2178.29  2181.24  2186.46
                             2187.12  2193.54  2204.79  2209.36  2215.73
                             2220.40  2238.35  2339.38  2392.64  4336.18
                             4351.20  4369.43  4388.91  4396.27  4404.09
                             4406.13  4440.72  4449.46  4465.09  4467.54
                             4483.35  4491.86  4500.70  4511.39  4520.22
                             4530.84  4535.46  4562.83  4602.02  4611.87
                             4635.19  5172.65

 Zero-point correction=                           0.356356 (Hartree/Particle)
 Thermal correction to Energy=                    0.376263
 Thermal correction to Enthalpy=                  0.377207
 Thermal correction to Gibbs Free Energy=         0.305877
 Sum of electronic and zero-point Energies=          -1113.304889
 Sum of electronic and thermal Energies=             -1113.284982
 Sum of electronic and thermal Enthalpies=           -1113.284037
 Sum of electronic and thermal Free Energies=        -1113.355367

                     E (Thermal)             CV                S
                      KCal/Mol        Cal/Mol-Kelvin    Cal/Mol-Kelvin
 Total                  236.109             74.511            150.127
 Electronic               0.000              0.000              0.000
 Translational            0.889              2.981             42.625
 Rotational               0.889              2.981             34.208
 Vibrational            234.331             68.549             73.294
 Vibration     1          0.593              1.986              6.621
 Vibration     2          0.593              1.985              6.253
 Vibration     3          0.594              1.981              5.211
 Vibration     4          0.595              1.979              5.013
 Vibration     5          0.597              1.973              4.444
 Vibration     6          0.599              1.966              4.039
 Vibration     7          0.603              1.952              3.533
 Vibration     8          0.608              1.937              3.188
 Vibration     9          0.622              1.891              2.544
 Vibration    10          0.625              1.881              2.451
 Vibration    11          0.630              1.865              2.312
 Vibration    12          0.640              1.834              2.094
 Vibration    13          0.649              1.806              1.935
 Vibration    14          0.651              1.798              1.893
 Vibration    15          0.655              1.785              1.828
 Vibration    16          0.666              1.752              1.688
 Vibration    17          0.675              1.727              1.591
 Vibration    18          0.701              1.650              1.348
 Vibration    19          0.704              1.640              1.323
 Vibration    20          0.728              1.573              1.161
 Vibration    21          0.745              1.525              1.063
 Vibration    22          0.759              1.489              0.996
 Vibration    23          0.770              1.459              0.943
 Vibration    24          0.786              1.418              0.878
 Vibration    25          0.809              1.360              0.795
 Vibration    26          0.827              1.317              0.738
 Vibration    27          0.860              1.241              0.648
 Vibration    28          0.881              1.192              0.595
 Vibration    29          0.900              1.150              0.554
 Vibration    30          0.931              1.086              0.495
 Vibration    31          0.980              0.990              0.416

                           ! Non-Optimized Parameters !
 Normal termination of Gaussian 16 at Fri Dec 11 23:23:44 2020.

 ----------------------------------------------------------------------
 # B3LYP/6-311++G(d,p) empiricaldispersion=gd3bj scf=xqc pop=npa geom=c
 heck
 ----------------------------------------------------------------------

 --------------------------------------
 CID_64850913_JID_8961_Energie_neutraal
 --------------------------------------
 Structure from the checkpoint file:  "JID_8961.chk"
 Charge =  0 Multiplicity = 1

 SCF Done:  E(RB3LYP) =  -1113.88402071     A.U. after   15 cycles
 Normal termination of Gaussian 16 at Fri Dec 11 23:31:09 2020.

 ----------------------------------------------------------------------
 # B3LYP/6-311++G(d,p) empiricaldispersion=gd3bj scf=xqc pop=npa geom=c
 heck
 ----------------------------------------------------------------------

 ------------------------------------
 CID_64850913_JID_8961_Energie_kation
 ------------------------------------
 Structure from the checkpoint file:  "JID_8961.chk"
 Charge =  1 Multiplicity = 2

 SCF Done:  E(UB3LYP) =  -1113.61866718     A.U. after   28 cycles
 Normal termination of Gaussian 16 at Fri Dec 11 23:49:53 2020.
 Gaussian 16:  ES64L-G16RevA.03 25-Dec-2016

 ----------------------------------------------------------------------
 # B3LYP/6-311++G(d,p) empiricaldispersion=gd3bj scf=xqc pop=npa geom=c
 heck
 ----------------------------------------------------------------------

 -----------------------------------
 CID_64850913_JID_8961_Energie_anion
 -----------------------------------
 Structure from the checkpoint file:  "JID_8961.chk"
 Charge = -1 Multiplicity = 2

                         Standard orientation:
 ---------------------------------------------------------------------
 Center     Atomic      Atomic             Coordinates (Angstroms)
 Number     Number       Type             X           Y           Z
 ---------------------------------------------------------------------
      1          6           0       -6.074169   -1.735288    0.172972
      2          6           0       -5.469728   -0.496557   -0.481184
      3          8           0       -4.130245   -0.709510   -0.922248
      4          6           0       -3.156775   -0.581399    0.084867
      5          6           0       -1.744129   -0.983807   -0.363571
      6          6           0       -1.199404    0.223913    0.452537
      7          6           0       -2.629472    0.854690    0.449556
      8          6           0       -3.078025    1.449448    1.780551
      9          6           0       -2.853750    1.841017   -0.697859
     10          7           0       -0.118361    1.036640   -0.044568
     11          6           0        1.183379    0.560299   -0.128816
     12          6           0        2.137706    1.287938   -0.867821
     13          6           0        3.456406    0.863793   -0.941779
     14          6           0        3.876000   -0.297799   -0.276769
     15          6           0        2.928856   -1.027348    0.449170
     16          6           0        1.601349   -0.614219    0.523535
     17         16           0        5.573754   -0.850294   -0.383233
     18          6           0        6.289618    0.026223    1.060809
     19          1           0       -6.033627   -2.583956   -0.517038
     20          1           0       -7.121216   -1.553163    0.441469
     21          1           0       -5.538096   -2.012461    1.087015
     22          1           0       -6.034471   -0.231171   -1.380914
     23          1           0       -5.516124    0.364247    0.201865
     24          1           0       -3.458671   -1.116648    0.996898
     25          1           0       -1.626447   -0.820984   -1.438899
     26          1           0       -1.389877   -1.986849   -0.112701
     27          1           0       -0.949320   -0.090469    1.471692
     28          1           0       -4.117128    1.797689    1.735266
     29          1           0       -3.005285    0.710925    2.587757
     30          1           0       -2.449509    2.305848    2.053925
     31          1           0       -2.547236    1.433712   -1.666518
     32          1           0       -3.916343    2.089605   -0.780820
     33          1           0       -2.309953    2.776238   -0.517595
     34          1           0       -0.376359    1.656902   -0.800631
     35          1           0        1.830077    2.196152   -1.381766
     36          1           0        4.175543    1.434135   -1.522082
     37          1           0        3.234562   -1.939457    0.953133
     38          1           0        0.888992   -1.213286    1.079195
     39          1           0        6.190198    1.108675    0.945339
     40          1           0        5.802796   -0.291173    1.986638
     41          1           0        7.350737   -0.235626    1.103273
 ---------------------------------------------------------------------

 SCF Done:  E(UB3LYP) =  -1113.87375801     A.U. after   33 cycles
 SCF Done:  E(UB3LYP) =  -1113.87375801     a.u. after    1 cycles

 The electronic state is 2-A.
 Alpha  occ. eigenvalues --  -88.75724 -19.03590 -14.23973 -10.13420 -10.13086
 Alpha  occ. eigenvalues --  -10.12806 -10.12067 -10.11054 -10.10794 -10.09763
 Alpha  occ. eigenvalues --  -10.09583 -10.09371 -10.08820 -10.08616 -10.07817
 Alpha  occ. eigenvalues --  -10.07585 -10.07249 -10.07094  -7.84303  -5.80712
 Alpha  occ. eigenvalues --   -5.80346  -5.79658  -0.95008  -0.85964  -0.77833
 Alpha  occ. eigenvalues --   -0.75668  -0.70286  -0.67165  -0.66804  -0.65614
 Alpha  occ. eigenvalues --   -0.64188  -0.60482  -0.58069  -0.55687  -0.53874
 Alpha  occ. eigenvalues --   -0.52824  -0.51387  -0.49328  -0.46130  -0.44434
 Alpha  occ. eigenvalues --   -0.42390  -0.39746  -0.38980  -0.37972  -0.37819
 Alpha  occ. eigenvalues --   -0.36731  -0.35499  -0.35037  -0.34314  -0.33863
 Alpha  occ. eigenvalues --   -0.33837  -0.33312  -0.32199  -0.31489  -0.30814
 Alpha  occ. eigenvalues --   -0.30401  -0.30262  -0.29406  -0.28970  -0.27840
 Alpha  occ. eigenvalues --   -0.26630  -0.26369  -0.25517  -0.24695  -0.23940
 Alpha  occ. eigenvalues --   -0.22772  -0.21345  -0.20238  -0.17549  -0.16534
 Alpha  occ. eigenvalues --   -0.14658  -0.12027   0.03731
 Alpha virt. eigenvalues --    0.05013   0.05835   0.06431   0.06557   0.07030
 Alpha virt. eigenvalues --    0.07140   0.07696   0.08315   0.08705   0.08929
 Alpha virt. eigenvalues --    0.09527   0.09583   0.09791   0.10335   0.10595

  Beta  occ. eigenvalues --  -88.75721 -19.03585 -14.23960 -10.13406 -10.13074
  Beta  occ. eigenvalues --  -10.12786 -10.12058 -10.11019 -10.10793 -10.09763
  Beta  occ. eigenvalues --  -10.09580 -10.09339 -10.08805 -10.08615 -10.07810
  Beta  occ. eigenvalues --  -10.07555 -10.07216 -10.07063  -7.84301  -5.80708
  Beta  occ. eigenvalues --   -5.80340  -5.79656  -0.94996  -0.85938  -0.77809
  Beta  occ. eigenvalues --   -0.75646  -0.70251  -0.67130  -0.66768  -0.65579
  Beta  occ. eigenvalues --   -0.64149  -0.60427  -0.58034  -0.55636  -0.53827
  Beta  occ. eigenvalues --   -0.52783  -0.51338  -0.49300  -0.46093  -0.44404
  Beta  occ. eigenvalues --   -0.42352  -0.39704  -0.38949  -0.37936  -0.37790
  Beta  occ. eigenvalues --   -0.36705  -0.35470  -0.35000  -0.34286  -0.33833
  Beta  occ. eigenvalues --   -0.33804  -0.33284  -0.32150  -0.31444  -0.30785
  Beta  occ. eigenvalues --   -0.30363  -0.30228  -0.29368  -0.28925  -0.27811
  Beta  occ. eigenvalues --   -0.26603  -0.26335  -0.25486  -0.24666  -0.23908
  Beta  occ. eigenvalues --   -0.22747  -0.21311  -0.20187  -0.17480  -0.16514
  Beta  occ. eigenvalues --   -0.14641  -0.11980
  Beta virt. eigenvalues --    0.05371   0.05889   0.06445   0.06648   0.06963
  Beta virt. eigenvalues --    0.07175   0.07462   0.07976   0.08511   0.08830
  Beta virt. eigenvalues --    0.09244   0.09735   0.09858   0.09994   0.10601

 Mulliken charges and spin densities:
               1          2
     1  C    0.886397  -1.332414
     2  C   -0.591822   0.541300
     3  O   -0.009883   0.027438
     4  C   -0.164459   0.124769
     5  C   -0.026695  -0.674202
     6  C    0.147956  -0.554485
     7  C   -1.402703   1.607997
     8  C    0.988436  -1.581017
     9  C   -0.047589  -0.572211
    10  N    0.245583  -0.015757
    11  C    0.389662  -0.954031
    12  C   -0.582500   0.234457
    13  C   -1.068243   0.397272
    14  C    1.525436  -0.281482
    15  C   -0.988982   0.340874
    16  C    1.058774  -0.599131
    17  S   -0.226267   0.035053
    18  C   -0.141464  -0.587241
    19  H    0.102334   0.035493
    20  H   -0.431427   0.574026
    21  H   -0.406883   0.554694
    22  H   -0.302699   0.469750
    23  H    0.308318  -0.197126
    24  H    0.197303  -0.060173
    25  H    0.182309   0.017327
    26  H    0.051518   0.129405
    27  H   -0.077105   0.311150
    28  H   -0.267853   0.410821
    29  H   -0.283465   0.430051
    30  H    0.121155   0.045593
    31  H    0.049968   0.136311
    32  H   -0.189304   0.370251
    33  H   -0.168249   0.307314
    34  H    0.426514  -0.159446
    35  H   -0.312151   0.442405
    36  H    0.071486   0.119859
    37  H    0.020948   0.172290
    38  H   -0.033867   0.182081
    39  H   -0.015176   0.189675
    40  H    0.016955   0.157990
    41  H   -0.052269   0.203068
 Sum of Mulliken charges =  -1.00000   1.00000

 Dipole moment (field-independent basis, Debye):
    X=              4.6770    Y=              0.1931    Z=             -1.6393  Tot=              4.9597
 Quadrupole moment (field-independent basis, Debye-Ang):
   XX=           -269.2877   YY=           -157.4966   ZZ=           -157.2738
   XY=             -1.7969   XZ=              6.8050   YZ=              0.6207

 Summary of Natural Population Analysis:

                                       Natural Population
                Natural  -----------------------------------------------
    Atom  No    Charge         Core      Valence    Rydberg      Total
 -----------------------------------------------------------------------
      C    1   -0.29900      0.99967     2.29454    0.00480     3.29900
      C    2   -0.01118      0.99959     1.99910    0.01249     3.01118
      O    3   -0.30171      0.99987     3.29254    0.00930     4.30171
      C    4    0.07160      0.99946     1.91229    0.01666     2.92840
      C    5   -0.19968      0.99960     2.19206    0.00802     3.19968
      C    6   -0.00521      0.99953     1.99215    0.01353     3.00521
      C    7   -0.04578      0.99955     2.03237    0.01387     3.04578
      C    8   -0.28528      0.99962     2.27865    0.00702     3.28528
      C    9   -0.29641      0.99961     2.28865    0.00814     3.29641
      N   10   -0.30871      0.99965     2.79879    0.01026     3.80871
      C   11    0.10195      0.99950     1.88856    0.00999     2.89805
      C   12   -0.11987      0.99953     2.11153    0.00881     3.11987
      C   13   -0.09334      0.99950     2.08251    0.01133     3.09334
      C   14   -0.11978      0.99939     2.10786    0.01253     3.11978
      C   15   -0.08316      0.99950     2.07350    0.01015     3.08316
      C   16   -0.13275      0.99953     2.12515    0.00808     3.13275
      S   17    0.09352      4.99957     2.88640    0.02051     7.90648
      C   18   -0.34440      0.99962     2.33861    0.00617     3.34440
      H   19    0.09873      0.00000     0.40025    0.00103     0.40127
      H   20    0.10185      0.00000     0.39677    0.00137     0.39815
      H   21    0.09932      0.00000     0.39939    0.00128     0.40068
      H   22    0.08741      0.00000     0.41140    0.00119     0.41259
      H   23    0.08045      0.00000     0.41770    0.00185     0.41955
      H   24    0.08613      0.00000     0.41185    0.00202     0.41387
      H   25    0.10410      0.00000     0.39450    0.00141     0.39590
      H   26    0.10065      0.00000     0.39840    0.00096     0.39935
      H   27    0.09818      0.00000     0.39977    0.00205     0.40182
      H   28    0.10107      0.00000     0.39763    0.00129     0.39893
      H   29    0.10187      0.00000     0.39682    0.00131     0.39813
      H   30    0.10167      0.00000     0.39738    0.00095     0.39833
      H   31    0.10386      0.00000     0.39489    0.00125     0.39614
      H   32    0.10813      0.00000     0.39085    0.00102     0.39187
      H   33    0.10067      0.00000     0.39826    0.00106     0.39933
      H   34    0.18813      0.00000     0.30907    0.00280     0.31187
      H   35    0.10007      0.00000     0.39850    0.00143     0.39993
      H   36    0.10399      0.00000     0.39485    0.00117     0.39601
      H   37    0.10353      0.00000     0.39526    0.00122     0.39647
      H   38    0.10511      0.00000     0.39344    0.00144     0.39489
      H   39    0.10094      0.00000     0.39714    0.00191     0.39906
      H   40    0.10073      0.00000     0.39731    0.00196     0.39927
      H   41    0.10261      0.00000     0.39572    0.00167     0.39739
 =======================================================================
   * Total *    0.00000     21.99228    49.78240    0.22532    72.00000

 Normal termination of Gaussian 16 at Sat Dec 12 00:12:09 2020.
