 Gaussian 16, Revision A.03,

 -----------------------------------------------------------
 # opt freq B3LYP/6-31G(d) empiricaldispersion=gd3bj scf=xqc
 -----------------------------------------------------------

 -------------------------------
 CID_149583328_JID_9542_neutraal
 -------------------------------
 Symbolic Z-matrix:
 Charge =  0 Multiplicity = 1

 SCF Done:  E(RB3LYP) =  -1206.29832264     A.U. after   16 cycles
 SCF Done:  E(RB3LYP) =  -1206.29346626     A.U. after   14 cycles
 SCF Done:  E(RB3LYP) =  -1206.30775671     A.U. after   13 cycles
 SCF Done:  E(RB3LYP) =  -1206.30741772     A.U. after   13 cycles
 SCF Done:  E(RB3LYP) =  -1206.30762566     A.U. after   13 cycles
 SCF Done:  E(RB3LYP) =  -1206.30870905     A.U. after   10 cycles
 SCF Done:  E(RB3LYP) =  -1206.30880933     A.U. after   12 cycles
 SCF Done:  E(RB3LYP) =  -1206.30874575     A.U. after   13 cycles
 SCF Done:  E(RB3LYP) =  -1206.30880448     A.U. after   14 cycles
 SCF Done:  E(RB3LYP) =  -1206.30921305     A.U. after   10 cycles
 SCF Done:  E(RB3LYP) =  -1206.30943735     A.U. after   12 cycles
 SCF Done:  E(RB3LYP) =  -1206.30944371     A.U. after   11 cycles
 SCF Done:  E(RB3LYP) =  -1206.30944437     A.U. after    9 cycles
 SCF Done:  E(RB3LYP) =  -1206.30944468     A.U. after    8 cycles
 SCF Done:  E(RB3LYP) =  -1206.30944477     A.U. after    7 cycles
 Optimization completed.
    -- Stationary point found.
 Normal termination of Gaussian 16 at Sat Dec 12 10:30:45 2020.

 --------------------------------------------------------------------
 #N Geom=AllCheck Guess=TCheck SCRF=Check GenChk RB3LYP/6-31G(d) Freq
 --------------------------------------------------------------------

 Structure from the checkpoint file:  "JID_9542.chk"
 -------------------------------
 CID_149583328_JID_9542_neutraal
 -------------------------------
 Charge =  0 Multiplicity = 1

 SCF Done:  E(RB3LYP) =  -1206.30944477     A.U. after    1 cycles

  Exact polarizability: 229.211 -18.797 194.331  -7.101   4.338 137.514
 Approx polarizability: 359.286 -67.692 347.868  -9.237   7.174 211.127

                      1                      2                      3
                      A                      A                      A
 Frequencies --     26.5516                42.3200                64.3439
 Red. masses --      4.3032                 3.8156                 3.5556
 Frc consts  --      0.0018                 0.0040                 0.0087
 IR Inten    --      0.4059                 0.0580                 0.2805

                      4                      5                      6
                      A                      A                      A
 Frequencies --     70.1744                83.1537                84.1997
 Red. masses --      5.0580                 3.2698                 4.9774
 Frc consts  --      0.0147                 0.0133                 0.0208
 IR Inten    --      0.5986                 0.1305                 0.3396

                      7                      8                      9
                      A                      A                      A
 Frequencies --     95.6562               111.0842               128.7100
 Red. masses --      5.1921                 8.2266                 6.0971
 Frc consts  --      0.0280                 0.0598                 0.0595
 IR Inten    --      1.8198                 3.3309                 3.4227

                     10                     11                     12
                      A                      A                      A
 Frequencies --    133.2610               164.8013               172.4354
 Red. masses --      7.1233                 1.0408                 1.0603
 Frc consts  --      0.0745                 0.0167                 0.0186
 IR Inten    --      0.7762                 0.6102                 0.1215

                     13                     14                     15
                      A                      A                      A
 Frequencies --    187.7016               216.5006               248.6586
 Red. masses --      4.0862                 4.5924                 4.5903
 Frc consts  --      0.0848                 0.1268                 0.1672
 IR Inten    --      1.5889                 0.5312                 0.2622

                     16                     17                     18
                      A                      A                      A
 Frequencies --    254.6148               284.4615               285.7002
 Red. masses --      5.8513                 4.2687                 3.6862
 Frc consts  --      0.2235                 0.2035                 0.1773
 IR Inten    --      5.3953                 2.4840                 0.3958

                     19                     20                     21
                      A                      A                      A
 Frequencies --    305.4186               322.4705               387.8126
 Red. masses --      4.4642                 4.9265                 4.8894
 Frc consts  --      0.2454                 0.3018                 0.4333
 IR Inten    --      1.8565                 1.1199                 4.4864

                     22                     23                     24
                      A                      A                      A
 Frequencies --    421.2529               431.1004               439.4215
 Red. masses --      2.9752                 2.9174                 4.3564
 Frc consts  --      0.3111                 0.3194                 0.4956
 IR Inten    --      0.4853                 8.4536                12.9553

                     25                     26                     27
                      A                      A                      A
 Frequencies --    485.4882               502.2960               502.8970
 Red. masses --      3.0669                 3.4679                 2.7200
 Frc consts  --      0.4259                 0.5155                 0.4053
 IR Inten    --      3.3820                47.8437                10.2247

                     28                     29                     30
                      A                      A                      A
 Frequencies --    561.1772               593.0948               622.7651
 Red. masses --      3.1750                 1.7716                 4.0043
 Frc consts  --      0.5891                 0.3672                 0.9150
 IR Inten    --     18.9539                68.7285                14.2533

                     31                     32                     33
                      A                      A                      A
 Frequencies --    634.2626               644.8596               661.6996
 Red. masses --      5.6876                 2.5644                 4.1881
 Frc consts  --      1.3481                 0.6283                 1.0804
 IR Inten    --      3.5369                24.7665                16.3027

                     34                     35                     36
                      A                      A                      A
 Frequencies --    680.1493               711.5391               765.9168
 Red. masses --      4.2760                 1.7833                 1.2781
 Frc consts  --      1.1655                 0.5320                 0.4418
 IR Inten    --      6.3872                32.6841                14.7085

                     37                     38                     39
                      A                      A                      A
 Frequencies --    772.7911               785.1804               830.7503
 Red. masses --      4.5140                 1.9784                 3.7579
 Frc consts  --      1.5883                 0.7186                 1.5280
 IR Inten    --     44.8995                21.2339                 0.3531

                     40                     41                     42
                      A                      A                      A
 Frequencies --    858.9662               899.5613               902.4329
 Red. masses --      1.2582                 2.0745                 3.7684
 Frc consts  --      0.5470                 0.9891                 1.8082
 IR Inten    --      1.5554                 7.8856                 0.4361

                     43                     44                     45
                      A                      A                      A
 Frequencies --    909.9605               932.6286               940.2166
 Red. masses --      3.9412                 1.4374                 2.3841
 Frc consts  --      1.9228                 0.7366                 1.2418
 IR Inten    --     12.5620                 1.5084                17.0565

                     46                     47                     48
                      A                      A                      A
 Frequencies --    973.7691               986.7590               996.4168
 Red. masses --      1.3780                 1.3613                 1.2476
 Frc consts  --      0.7699                 0.7810                 0.7298
 IR Inten    --      1.5240                 1.2327                 0.0796

                     49                     50                     51
                      A                      A                      A
 Frequencies --   1020.4663              1024.7692              1027.1225
 Red. masses --      1.7052                 2.5537                 1.8438
 Frc consts  --      1.0462                 1.5801                 1.1461
 IR Inten    --      1.6219                 2.3811                19.0692

                     52                     53                     54
                      A                      A                      A
 Frequencies --   1065.7891              1074.1015              1080.8255
 Red. masses --      2.1288                 1.5109                 5.2584
 Frc consts  --      1.4247                 1.0270                 3.6192
 IR Inten    --      2.5253                 0.4731                73.3293

                     55                     56                     57
                      A                      A                      A
 Frequencies --   1083.3117              1086.3879              1123.5123
 Red. masses --      1.4665                 1.7448                 1.6276
 Frc consts  --      1.0140                 1.2133                 1.2105
 IR Inten    --      1.5046                13.7440                 0.9380

                     58                     59                     60
                      A                      A                      A
 Frequencies --   1155.1115              1170.2610              1195.3319
 Red. masses --      1.4989                 2.5736                 1.0954
 Frc consts  --      1.1784                 2.0766                 0.9222
 IR Inten    --    123.6542                 4.0330                 0.2537

                     61                     62                     63
                      A                      A                      A
 Frequencies --   1207.4684              1213.7543              1228.5224
 Red. masses --      1.4757                 2.8758                 1.1678
 Frc consts  --      1.2677                 2.4962                 1.0385
 IR Inten    --     17.1004                 3.4934                 2.0604

                     64                     65                     66
                      A                      A                      A
 Frequencies --   1244.0824              1249.7743              1267.4212
 Red. masses --      1.5924                 1.4724                 1.2769
 Frc consts  --      1.4521                 1.3550                 1.2085
 IR Inten    --     75.1907                23.3069                 7.5795

                     67                     68                     69
                      A                      A                      A
 Frequencies --   1299.5424              1321.6773              1369.1127
 Red. masses --      1.2349                 1.8895                 2.8978
 Frc consts  --      1.2287                 1.9447                 3.2004
 IR Inten    --      1.2343                 1.9246                 1.3118

                     70                     71                     72
                      A                      A                      A
 Frequencies --   1382.9944              1401.9055              1408.4393
 Red. masses --      1.2609                 2.4199                 1.3955
 Frc consts  --      1.4209                 2.8021                 1.6310
 IR Inten    --      1.1636                63.8695                 5.4362

                     73                     74                     75
                      A                      A                      A
 Frequencies --   1443.4087              1457.1159              1474.8843
 Red. masses --      1.2231                 1.2668                 1.1611
 Frc consts  --      1.5013                 1.5847                 1.4881
 IR Inten    --      1.1130                 8.8752                18.4004

                     76                     77                     78
                      A                      A                      A
 Frequencies --   1481.4379              1499.8751              1513.4017
 Red. masses --      1.5867                 2.2028                 1.0445
 Frc consts  --      2.0517                 2.9197                 1.4095
 IR Inten    --      4.6076                10.8151                 9.7516

                     79                     80                     81
                      A                      A                      A
 Frequencies --   1519.1544              1522.3567              1525.0780
 Red. masses --      1.0796                 1.0480                 1.0970
 Frc consts  --      1.4680                 1.4311                 1.5033
 IR Inten    --      7.4183                 4.1173                10.6661

                     82                     83                     84
                      A                      A                      A
 Frequencies --   1547.0871              1639.4032              1663.6002
 Red. masses --      2.1133                 5.2831                 5.3807
 Frc consts  --      2.9802                 8.3658                 8.7737
 IR Inten    --     18.9650                 0.3955                 5.2953

                     85                     86                     87
                      A                      A                      A
 Frequencies --   1684.4692              1726.5808              1811.1587
 Red. masses --      5.8996                 5.0313                 9.4972
 Frc consts  --      9.8628                 8.8370                18.3551
 IR Inten    --      5.5978                 4.2997               218.6265

                     88                     89                     90
                      A                      A                      A
 Frequencies --   3031.9137              3032.3055              3061.3495
 Red. masses --      1.0421                 1.0428                 1.0840
 Frc consts  --      5.6439                 5.6496                 5.9856
 IR Inten    --     49.9245                 9.1657                 7.2499

                     91                     92                     93
                      A                      A                      A
 Frequencies --   3071.8136              3076.0933              3106.7737
 Red. masses --      1.0989                 1.0998                 1.0629
 Frc consts  --      6.1095                 6.1312                 6.0447
 IR Inten    --     19.8199                15.9061                 0.2056

                     94                     95                     96
                      A                      A                      A
 Frequencies --   3143.5432              3155.6141              3161.0447
 Red. masses --      1.0898                 1.0951                 1.0929
 Frc consts  --      6.3451                 6.4249                 6.4341
 IR Inten    --      9.4042                13.3504                 2.0528

                     97                     98                     99
                      A                      A                      A
 Frequencies --   3183.8872              3187.2955              3192.5107
 Red. masses --      1.0855                 1.0906                 1.1027
 Frc consts  --      6.4834                 6.5280                 6.6219
 IR Inten    --      0.6710                48.2475                 1.1292

                    100                    101                    102
                      A                      A                      A
 Frequencies --   3196.8517              3207.6661              3226.3034
 Red. masses --      1.0903                 1.0958                 1.0876
 Frc consts  --      6.5652                 6.6432                 6.6700
 IR Inten    --     18.1862                31.5125                 3.2003

                    103                    104                    105
                      A                      A                      A
 Frequencies --   3239.9350              3246.3727              3680.2935
 Red. masses --      1.0926                 1.0909                 1.0640
 Frc consts  --      6.7575                 6.7741                 8.4912
 IR Inten    --      2.1178                 3.0404                42.1236

 - Thermochemistry -
 -------------------
 Temperature   298.150 Kelvin.  Pressure   1.00000 Atm.
 Atom     1 has atomic number  6 and mass  12.00000

 Molecular mass:   278.09767 amu.
 Principal axes and moments of inertia in atomic units:
                           1         2         3
     Eigenvalues --  4069.863076327.896606843.68450
           X            0.99999  -0.00019  -0.00448
           Y            0.00064   0.99507   0.09917
           Z            0.00444  -0.09917   0.99506
 This molecule is an asymmetric top.
 Rotational symmetry number  1.
 Warning -- assumption of classical behavior for rotation
           may cause significant error
 Rotational temperatures (Kelvin)      0.02128     0.01369     0.01266
 Rotational constants (GHZ):           0.44344     0.28520     0.26371
 Zero-point vibrational energy     792703.3 (Joules/Mol)
                                  189.46064 (Kcal/Mol)
 Warning -- explicit consideration of  29 degrees of freedom as
           vibrations may cause significant error
 Vibrational temperatures:     38.20    60.89    92.58   100.97   119.64
          (Kelvin)            121.14   137.63   159.83   185.18   191.73
                              237.11   248.10   270.06   311.50   357.76
                              366.33   409.28   411.06   439.43   463.96
                              557.98   606.09   620.26   632.23   698.51
                              722.69   723.56   807.41   853.33   896.02
                              912.56   927.81   952.04   978.58  1023.75
                             1101.98  1111.87  1129.70  1195.26  1235.86
                             1294.27  1298.40  1309.23  1341.84  1352.76
                             1401.04  1419.73  1433.62  1468.22  1474.41
                             1477.80  1533.43  1545.39  1555.07  1558.64
                             1563.07  1616.48  1661.95  1683.74  1719.82
                             1737.28  1746.32  1767.57  1789.96  1798.15
                             1823.54  1869.75  1901.60  1969.85  1989.82
                             2017.03  2026.43  2076.74  2096.46  2122.03
                             2131.46  2157.99  2177.45  2185.72  2190.33
                             2194.25  2225.91  2358.74  2393.55  2423.58
                             2484.16  2605.85  4362.25  4362.81  4404.60
                             4419.65  4425.81  4469.95  4522.86  4540.22
                             4548.04  4580.90  4585.81  4593.31  4599.56
                             4615.12  4641.93  4661.54  4670.81  5295.12

 Zero-point correction=                           0.301925 (Hartree/Particle)
 Thermal correction to Energy=                    0.321679
 Thermal correction to Enthalpy=                  0.322623
 Thermal correction to Gibbs Free Energy=         0.253014
 Sum of electronic and zero-point Energies=          -1206.007520
 Sum of electronic and thermal Energies=             -1205.987766
 Sum of electronic and thermal Enthalpies=           -1205.986821
 Sum of electronic and thermal Free Energies=        -1206.056431

                     E (Thermal)             CV                S
                      KCal/Mol        Cal/Mol-Kelvin    Cal/Mol-Kelvin
 Total                  201.857             73.333            146.506
 Electronic               0.000              0.000              0.000
 Translational            0.889              2.981             42.767
 Rotational               0.889              2.981             33.532
 Vibrational            200.079             67.372             70.207
 Vibration     1          0.593              1.984              6.072
 Vibration     2          0.595              1.980              5.147
 Vibration     3          0.597              1.971              4.319
 Vibration     4          0.598              1.968              4.148
 Vibration     5          0.600              1.961              3.815
 Vibration     6          0.601              1.960              3.791
 Vibration     7          0.603              1.952              3.541
 Vibration     8          0.607              1.940              3.250
 Vibration     9          0.611              1.925              2.965
 Vibration    10          0.613              1.920              2.898
 Vibration    11          0.623              1.886              2.494
 Vibration    12          0.626              1.876              2.409
 Vibration    13          0.632              1.857              2.250
 Vibration    14          0.645              1.816              1.988
 Vibration    15          0.662              1.765              1.740
 Vibration    16          0.665              1.755              1.698
 Vibration    17          0.683              1.702              1.507
 Vibration    18          0.683              1.700              1.499
 Vibration    19          0.696              1.663              1.387
 Vibration    20          0.707              1.630              1.298
 Vibration    21          0.756              1.496              1.009
 Vibration    22          0.784              1.424              0.888
 Vibration    23          0.792              1.402              0.855
 Vibration    24          0.799              1.384              0.828
 Vibration    25          0.842              1.282              0.695
 Vibration    26          0.858              1.245              0.652
 Vibration    27          0.858              1.244              0.651
 Vibration    28          0.917              1.115              0.521
 Vibration    29          0.951              1.046              0.462

                           ! Non-Optimized Parameters !
 Normal termination of Gaussian 16 at Sat Dec 12 10:49:59 2020.

 ----------------------------------------------------------------------
 # B3LYP/6-311++G(d,p) empiricaldispersion=gd3bj scf=xqc pop=npa geom=c
 heck
 ----------------------------------------------------------------------

 ---------------------------------------
 CID_149583328_JID_9542_Energie_neutraal
 ---------------------------------------
 Structure from the checkpoint file:  "JID_9542.chk"
 Charge =  0 Multiplicity = 1

 SCF Done:  E(RB3LYP) =  -1206.57022184     A.U. after   17 cycles
 Normal termination of Gaussian 16 at Sat Dec 12 10:58:08 2020.

 ----------------------------------------------------------------------
 # B3LYP/6-311++G(d,p) empiricaldispersion=gd3bj scf=xqc pop=npa geom=c
 heck
 ----------------------------------------------------------------------

 -------------------------------------
 CID_149583328_JID_9542_Energie_kation
 -------------------------------------
 Structure from the checkpoint file:  "JID_9542.chk"
 Charge =  1 Multiplicity = 2

 SCF Done:  E(UB3LYP) =  -1206.28977291     A.U. after   27 cycles
 Normal termination of Gaussian 16 at Sat Dec 12 11:15:43 2020.
 Gaussian 16:  ES64L-G16RevA.03 25-Dec-2016

 ----------------------------------------------------------------------
 # B3LYP/6-311++G(d,p) empiricaldispersion=gd3bj scf=xqc pop=npa geom=c
 heck
 ----------------------------------------------------------------------

 ------------------------------------
 CID_149583328_JID_9542_Energie_anion
 ------------------------------------
 Structure from the checkpoint file:  "JID_9542.chk"
 Charge = -1 Multiplicity = 2

                         Standard orientation:
 ---------------------------------------------------------------------
 Center     Atomic      Atomic             Coordinates (Angstroms)
 Number     Number       Type             X           Y           Z
 ---------------------------------------------------------------------
      1          6           0       -3.728759    1.989073    0.908369
      2          6           0       -4.186931    1.001130   -0.123396
      3          6           0       -3.447688    0.079302   -0.772278
      4          6           0       -2.023595   -0.129079   -0.584869
      5          6           0       -1.246237   -1.053928   -1.193568
      6          6           0       -1.746098   -2.078221   -2.179229
      7          6           0        0.219767   -1.190378   -0.866444
      8          6           0        1.169970   -0.028828   -1.024125
      9          6           0        0.750832    1.278894   -1.297437
     10          6           0        1.677902    2.316245   -1.393209
     11          6           0        3.039672    2.063954   -1.224263
     12          6           0        3.470538    0.757982   -0.980201
     13          6           0        2.547541   -0.280892   -0.892429
     14         16           0        0.341979   -2.057034    0.855272
     15          8           0        1.793612   -2.383024    1.106694
     16          6           0       -0.148874   -0.708369    2.069464
     17          6           0        0.448784    0.659060    1.888101
     18          8           0       -0.188036    1.657441    1.612269
     19          8           0        1.779654    0.656245    2.065013
     20          1           0       -2.666660    1.913169    1.151301
     21          1           0       -4.300173    1.860611    1.838039
     22          1           0       -3.924988    3.015197    0.568107
     23          1           0       -5.248409    1.046148   -0.366417
     24          1           0       -3.960658   -0.556035   -1.489742
     25          1           0       -1.544692    0.546240    0.114411
     26          1           0       -1.212147   -1.985950   -3.134450
     27          1           0       -1.554135   -3.094243   -1.807550
     28          1           0       -2.814889   -1.994704   -2.381928
     29          1           0        0.628096   -2.029073   -1.442097
     30          1           0       -0.301369    1.492446   -1.431415
     31          1           0        1.330182    3.324362   -1.599845
     32          1           0        3.759974    2.874068   -1.299285
     33          1           0        4.529212    0.544881   -0.861986
     34          1           0        2.885223   -1.287918   -0.680091
     35          1           0       -1.235993   -0.645762    2.059973
     36          1           0        0.194102   -1.147223    3.010665
     37          1           0        2.102872    1.535370    1.789220
 ---------------------------------------------------------------------

 SCF Done:  E(UB3LYP) =  -1206.57292311     A.U. after   33 cycles
 SCF Done:  E(UB3LYP) =  -1206.57292311     a.u. after    1 cycles

 The electronic state is 2-A.
 Alpha  occ. eigenvalues --  -88.80492 -19.04911 -18.98896 -18.95540 -10.18061
 Alpha  occ. eigenvalues --  -10.08563 -10.07762 -10.05481 -10.05309 -10.05194
 Alpha  occ. eigenvalues --  -10.05029 -10.04837 -10.04527 -10.04484 -10.04402
 Alpha  occ. eigenvalues --  -10.04082 -10.03834 -10.03658 -10.02615  -7.88370
 Alpha  occ. eigenvalues --   -5.84629  -5.84497  -5.83950  -0.99082  -0.89898
 Alpha  occ. eigenvalues --   -0.88525  -0.73743  -0.70362  -0.67118  -0.65697
 Alpha  occ. eigenvalues --   -0.63562  -0.62205  -0.59172  -0.57979  -0.54412
 Alpha  occ. eigenvalues --   -0.52443  -0.48291  -0.48139  -0.46576  -0.43196
 Alpha  occ. eigenvalues --   -0.40139  -0.39231  -0.38293  -0.36653  -0.35501
 Alpha  occ. eigenvalues --   -0.34986  -0.33679  -0.33301  -0.32193  -0.31284
 Alpha  occ. eigenvalues --   -0.30787  -0.30531  -0.29771  -0.29567  -0.29338
 Alpha  occ. eigenvalues --   -0.28510  -0.27748  -0.26854  -0.25618  -0.25174
 Alpha  occ. eigenvalues --   -0.24787  -0.24470  -0.23491  -0.22351  -0.21974
 Alpha  occ. eigenvalues --   -0.21177  -0.19522  -0.18516  -0.16786  -0.15419
 Alpha  occ. eigenvalues --   -0.13088  -0.12747  -0.10791  -0.08936   0.04720
 Alpha virt. eigenvalues --    0.07610   0.08075   0.08180   0.08876   0.09718
 Alpha virt. eigenvalues --    0.09982   0.10107   0.10465   0.10898   0.11232
 Alpha virt. eigenvalues --    0.11367   0.12005   0.12063   0.12515   0.13321

  Beta  occ. eigenvalues --  -88.80363 -19.04885 -18.98787 -18.95417 -10.17916
  Beta  occ. eigenvalues --  -10.08556 -10.07728 -10.05400 -10.05321 -10.05228
  Beta  occ. eigenvalues --  -10.05021 -10.04688 -10.04546 -10.04455 -10.04201
  Beta  occ. eigenvalues --  -10.03993 -10.03843 -10.03387 -10.02490  -7.88233
  Beta  occ. eigenvalues --   -5.84516  -5.84344  -5.83736  -0.98943  -0.89738
  Beta  occ. eigenvalues --   -0.88247  -0.73550  -0.70025  -0.66786  -0.65447
  Beta  occ. eigenvalues --   -0.63323  -0.62084  -0.58952  -0.57754  -0.54245
  Beta  occ. eigenvalues --   -0.52123  -0.48183  -0.47913  -0.46250  -0.42912
  Beta  occ. eigenvalues --   -0.39954  -0.39070  -0.38091  -0.36520  -0.35243
  Beta  occ. eigenvalues --   -0.34771  -0.33462  -0.33125  -0.32067  -0.31125
  Beta  occ. eigenvalues --   -0.30628  -0.30372  -0.29679  -0.29311  -0.29205
  Beta  occ. eigenvalues --   -0.28258  -0.27622  -0.26663  -0.25412  -0.25084
  Beta  occ. eigenvalues --   -0.24541  -0.24277  -0.23159  -0.22234  -0.21824
  Beta  occ. eigenvalues --   -0.20803  -0.19348  -0.17740  -0.16647  -0.15011
  Beta  occ. eigenvalues --   -0.12767  -0.12231  -0.10116  -0.07762
  Beta virt. eigenvalues --    0.07723   0.08131   0.08652   0.08954   0.09299
  Beta virt. eigenvalues --    0.09960   0.10012   0.10381   0.11027   0.11058
  Beta virt. eigenvalues --    0.11217   0.11385   0.12001   0.12107   0.12504

 Mulliken charges and spin densities:
               1          2
     1  C   -0.566116  -0.008482
     2  C   -0.262895   0.212898
     3  C    0.093255  -0.007752
     4  C   -0.056384   0.111234
     5  C    0.163649   0.175120
     6  C   -0.625309  -0.024764
     7  C   -0.677094   0.103216
     8  C    0.661535   0.000729
     9  C   -0.249545  -0.006146
    10  C   -0.336130   0.050988
    11  C   -0.310992   0.115683
    12  C   -0.410575  -0.048423
    13  C   -0.183117   0.107388
    14  S    0.778849  -0.111821
    15  O   -0.427118   0.027693
    16  C   -0.936145   0.114275
    17  C    0.053519   0.076776
    18  O   -0.198422   0.036508
    19  O   -0.006682   0.007783
    20  H    0.239194   0.001457
    21  H    0.103582   0.007776
    22  H    0.099116   0.008892
    23  H    0.129176  -0.013631
    24  H    0.079122   0.001419
    25  H   -0.253935  -0.029395
    26  H    0.136166   0.013322
    27  H    0.139641   0.005830
    28  H    0.112072   0.003550
    29  H    0.266078   0.027773
    30  H    0.173013  -0.004651
    31  H    0.126298   0.014397
    32  H    0.111656  -0.003782
    33  H    0.136316   0.003870
    34  H    0.190695   0.008127
    35  H    0.202143   0.004815
    36  H    0.258298   0.008871
    37  H    0.247087   0.008458
 Sum of Mulliken charges =  -1.00000   1.00000

 Dipole moment (field-independent basis, Debye):
    X=             -0.4125    Y=              0.7671    Z=             -0.2049  Tot=              0.8948
 Quadrupole moment (field-independent basis, Debye-Ang):
   XX=           -159.7509   YY=           -146.7893   ZZ=           -138.8560
   XY=              9.6977   XZ=             -1.9026   YZ=              4.6724

 Summary of Natural Population Analysis:

                                       Natural Population
                Natural  -----------------------------------------------
    Atom  No    Charge         Core      Valence    Rydberg      Total
 -----------------------------------------------------------------------
      C    1   -0.31201      0.99965     2.30715    0.00521     3.31201
      C    2   -0.03185      0.99957     2.02332    0.00896     3.03185
      C    3   -0.12437      0.99952     2.11587    0.00897     3.12437
      C    4   -0.10747      0.99944     2.09682    0.01120     3.10747
      C    5    0.01106      0.99949     1.97735    0.01209     2.98894
      C    6   -0.29453      0.99963     2.29012    0.00478     3.29453
      C    7   -0.17697      0.99947     2.16066    0.01684     3.17697
      C    8   -0.02462      0.99948     2.01291    0.01223     3.02462
      C    9   -0.08614      0.99952     2.07809    0.00853     3.08614
      C   10   -0.10963      0.99957     2.10094    0.00912     3.10963
      C   11   -0.08940      0.99957     2.08036    0.00947     3.08940
      C   12   -0.11855      0.99957     2.10986    0.00912     3.11855
      C   13   -0.07544      0.99952     2.06703    0.00889     3.07544
      S   14    0.61694      4.99949     2.32851    0.05506     7.38306
      O   15   -0.47174      0.99993     3.46374    0.00808     4.47174
      C   16   -0.32727      0.99952     2.31772    0.01003     3.32727
      C   17    0.40927      0.99971     1.56575    0.02528     2.59073
      O   18   -0.30431      0.99987     3.29788    0.00656     4.30431
      O   19   -0.33884      0.99987     3.33130    0.00767     4.33884
      H   20    0.11452      0.00000     0.38461    0.00086     0.38548
      H   21    0.09561      0.00000     0.40328    0.00111     0.40439
      H   22    0.09683      0.00000     0.40205    0.00112     0.40317
      H   23    0.07823      0.00000     0.42072    0.00105     0.42177
      H   24    0.08839      0.00000     0.41023    0.00138     0.41161
      H   25    0.10448      0.00000     0.39205    0.00347     0.39552
      H   26    0.09875      0.00000     0.40018    0.00107     0.40125
      H   27    0.09877      0.00000     0.39983    0.00140     0.40123
      H   28    0.09809      0.00000     0.40113    0.00078     0.40191
      H   29    0.10652      0.00000     0.39178    0.00170     0.39348
      H   30    0.10912      0.00000     0.38971    0.00118     0.39088
      H   31    0.09379      0.00000     0.40480    0.00141     0.40621
      H   32    0.09078      0.00000     0.40821    0.00101     0.40922
      H   33    0.09388      0.00000     0.40513    0.00099     0.40612
      H   34    0.11196      0.00000     0.38704    0.00100     0.38804
      H   35    0.11884      0.00000     0.37975    0.00141     0.38116
      H   36    0.11726      0.00000     0.38093    0.00180     0.38274
      H   37    0.24004      0.00000     0.25661    0.00335     0.25996
 =======================================================================
   * Total *    0.00000     22.99239    50.74341    0.26420    74.00000

 Normal termination of Gaussian 16 at Sat Dec 12 11:37:05 2020.
