 Gaussian 16, Revision A.03,

 -----------------------------------------------------------
 # opt freq B3LYP/6-31G(d) empiricaldispersion=gd3bj scf=xqc
 -----------------------------------------------------------

 ------------------------------
 CID_61396123_JID_8197_neutraal
 ------------------------------
 Symbolic Z-matrix:
 Charge =  0 Multiplicity = 1

 SCF Done:  E(RB3LYP) =  -837.864236996     A.U. after   15 cycles
 SCF Done:  E(RB3LYP) =  -837.869842744     A.U. after   13 cycles
 SCF Done:  E(RB3LYP) =  -837.870247677     A.U. after   15 cycles
 SCF Done:  E(RB3LYP) =  -837.872644805     A.U. after   12 cycles
 SCF Done:  E(RB3LYP) =  -837.872497329     A.U. after   13 cycles
 SCF Done:  E(RB3LYP) =  -837.874259649     A.U. after   12 cycles
 SCF Done:  E(RB3LYP) =  -837.874443850     A.U. after   11 cycles
 SCF Done:  E(RB3LYP) =  -837.874485837     A.U. after   10 cycles
 SCF Done:  E(RB3LYP) =  -837.874505817     A.U. after   10 cycles
 SCF Done:  E(RB3LYP) =  -837.874530555     A.U. after   10 cycles
 SCF Done:  E(RB3LYP) =  -837.875045997     A.U. after   10 cycles
 SCF Done:  E(RB3LYP) =  -837.875050148     A.U. after    9 cycles
 SCF Done:  E(RB3LYP) =  -837.875050871     A.U. after    7 cycles
 SCF Done:  E(RB3LYP) =  -837.875050899     A.U. after    6 cycles
 Optimization completed.
    -- Stationary point found.
 Normal termination of Gaussian 16 at Fri Dec 11 19:32:10 2020.

 --------------------------------------------------------------------
 #N Geom=AllCheck Guess=TCheck SCRF=Check GenChk RB3LYP/6-31G(d) Freq
 --------------------------------------------------------------------

 Structure from the checkpoint file:  "JID_8197.chk"
 ------------------------------
 CID_61396123_JID_8197_neutraal
 ------------------------------
 Charge =  0 Multiplicity = 1

 SCF Done:  E(RB3LYP) =  -837.875050899     A.U. after    1 cycles

  Exact polarizability: 220.467   0.157 140.281  12.052   9.959 106.640
 Approx polarizability: 298.035   4.046 230.334  19.173  24.818 187.565

                      1                      2                      3
                      A                      A                      A
 Frequencies --     26.0802                34.7360                53.1872
 Red. masses --      5.7725                 4.7330                 9.1362
 Frc consts  --      0.0023                 0.0034                 0.0152
 IR Inten    --      0.2955                 0.8601                 2.0067

                      4                      5                      6
                      A                      A                      A
 Frequencies --     79.0386                85.3735               108.6510
 Red. masses --      1.0544                 5.6712                 3.3215
 Frc consts  --      0.0039                 0.0244                 0.0231
 IR Inten    --      0.3577                 0.5554                 0.3924

                      7                      8                      9
                      A                      A                      A
 Frequencies --    152.5439               155.4486               190.1937
 Red. masses --      1.1066                 5.5534                 3.9285
 Frc consts  --      0.0152                 0.0791                 0.0837
 IR Inten    --      0.4198                 1.3352                 0.1214

                     10                     11                     12
                      A                      A                      A
 Frequencies --    203.6399               221.5073               238.2307
 Red. masses --      4.3985                 6.0517                 4.6041
 Frc consts  --      0.1075                 0.1749                 0.1540
 IR Inten    --      0.4923                 0.5203                 0.4240

                     13                     14                     15
                      A                      A                      A
 Frequencies --    304.9637               310.5003               352.4246
 Red. masses --      3.9766                 4.2312                 5.9735
 Frc consts  --      0.2179                 0.2403                 0.4371
 IR Inten    --      0.3452                 3.0779                 3.3043

                     16                     17                     18
                      A                      A                      A
 Frequencies --    379.9710               432.4266               457.8088
 Red. masses --      3.9679                 4.4688                 2.8546
 Frc consts  --      0.3375                 0.4923                 0.3525
 IR Inten    --      2.2941                 4.1042                 3.7335

                     19                     20                     21
                      A                      A                      A
 Frequencies --    460.9593               520.1005               547.7601
 Red. masses --      2.9599                 3.2783                 4.6416
 Frc consts  --      0.3706                 0.5225                 0.8205
 IR Inten    --      5.1768                15.1130                 3.8589

                     22                     23                     24
                      A                      A                      A
 Frequencies --    549.7301               600.9592               615.1433
 Red. masses --      5.8562                 5.2481                 1.7120
 Frc consts  --      1.0427                 1.1167                 0.3817
 IR Inten    --      6.9083                41.0070                59.5072

                     25                     26                     27
                      A                      A                      A
 Frequencies --    624.4407               628.7188               676.4711
 Red. masses --      4.8252                 5.4206                 3.4077
 Frc consts  --      1.1085                 1.2624                 0.9188
 IR Inten    --      3.2619                14.1810                23.1342

                     28                     29                     30
                      A                      A                      A
 Frequencies --    728.2804               746.9279               770.8160
 Red. masses --      4.5671                 3.8698                 3.7327
 Frc consts  --      1.4272                 1.2720                 1.3067
 IR Inten    --     28.2180                 3.8225                48.2352

                     31                     32                     33
                      A                      A                      A
 Frequencies --    782.9423               785.6689               834.5249
 Red. masses --      4.3365                 5.2745                 6.2302
 Frc consts  --      1.5662                 1.9183                 2.5564
 IR Inten    --      6.3685                13.2949                18.8231

                     34                     35                     36
                      A                      A                      A
 Frequencies --    849.9060               868.6369               922.2301
 Red. masses --      1.4556                 1.4083                 4.5359
 Frc consts  --      0.6195                 0.6261                 2.2730
 IR Inten    --      4.9822                15.0501                 3.8807

                     37                     38                     39
                      A                      A                      A
 Frequencies --    942.2790               969.6500               986.6139
 Red. masses --      1.5491                 1.3147                 1.4453
 Frc consts  --      0.8104                 0.7283                 0.8289
 IR Inten    --     11.5169                 0.0467                 0.1877

                     40                     41                     42
                      A                      A                      A
 Frequencies --    989.1040              1007.8441              1031.5084
 Red. masses --      2.7238                 5.4375                 1.5866
 Frc consts  --      1.5701                 3.2542                 0.9947
 IR Inten    --     54.9125                13.4351                12.9629

                     43                     44                     45
                      A                      A                      A
 Frequencies --   1043.5031              1075.8714              1076.1385
 Red. masses --      1.7355                 1.5267                 1.6115
 Frc consts  --      1.1134                 1.0412                 1.0995
 IR Inten    --     26.8671                 8.8639                 5.7425

                     46                     47                     48
                      A                      A                      A
 Frequencies --   1112.2599              1165.9002              1184.2877
 Red. masses --      2.2845                 2.0826                 1.5576
 Frc consts  --      1.6652                 1.6679                 1.2872
 IR Inten    --     84.4856                54.1883               150.2525

                     49                     50                     51
                      A                      A                      A
 Frequencies --   1203.8616              1219.3736              1267.7352
 Red. masses --      2.0769                 2.0969                 2.9807
 Frc consts  --      1.7735                 1.8370                 2.8225
 IR Inten    --     63.9099               224.6253               163.5141

                     52                     53                     54
                      A                      A                      A
 Frequencies --   1282.2522              1306.4025              1320.1973
 Red. masses --      6.4742                 1.5186                 8.0522
 Frc consts  --      6.2716                 1.5271                 8.2688
 IR Inten    --      2.5634                28.2726                51.4903

                     55                     56                     57
                      A                      A                      A
 Frequencies --   1364.7573              1366.6353              1394.8650
 Red. masses --      1.5636                 7.1842                 2.5395
 Frc consts  --      1.7158                 7.9056                 2.9112
 IR Inten    --      1.5191                 0.7090               179.7315

                     58                     59                     60
                      A                      A                      A
 Frequencies --   1418.4942              1437.7472              1441.5088
 Red. masses --      3.1344                 1.2691                 1.5885
 Frc consts  --      3.7159                 1.5457                 1.9448
 IR Inten    --    229.1299                 2.9281                55.1791

                     61                     62                     63
                      A                      A                      A
 Frequencies --   1463.7001              1503.1969              1505.9865
 Red. masses --      3.5826                 1.0461                 1.5502
 Frc consts  --      4.5223                 1.3927                 2.0715
 IR Inten    --    159.2260                 6.1747                 4.6753

                     64                     65                     66
                      A                      A                      A
 Frequencies --   1508.9635              1518.0513              1528.4914
 Red. masses --      1.0905                 1.4501                 1.1221
 Frc consts  --      1.4629                 1.9688                 1.5446
 IR Inten    --     44.3972                78.3985                31.1216

                     67                     68                     69
                      A                      A                      A
 Frequencies --   1551.3812              1609.6431              1629.5969
 Red. masses --      3.0368                 6.7956                 6.6931
 Frc consts  --      4.3064                10.3738                10.4722
 IR Inten    --     10.0989               109.5575                85.5011

                     70                     71                     72
                      A                      A                      A
 Frequencies --   1646.9112              1676.8866              1821.7365
 Red. masses --      6.7620                 6.6756                 9.7946
 Frc consts  --     10.8060                11.0598                19.1516
 IR Inten    --    350.5123                42.0224               299.7318

                     73                     74                     75
                      A                      A                      A
 Frequencies --   3056.5719              3061.1692              3115.5950
 Red. masses --      1.0363                 1.0359                 1.1000
 Frc consts  --      5.7043                 5.7195                 6.2910
 IR Inten    --     16.1311                11.1664                 8.9702

                     76                     77                     78
                      A                      A                      A
 Frequencies --   3122.1865              3140.6195              3146.7178
 Red. masses --      1.1005                 1.1029                 1.1037
 Frc consts  --      6.3207                 6.4092                 6.4387
 IR Inten    --      8.0967                17.3649                15.5887

                     79                     80                     81
                      A                      A                      A
 Frequencies --   3188.6370              3193.2127              3232.7009
 Red. masses --      1.0910                 1.0898                 1.0929
 Frc consts  --      6.5357                 6.5470                 6.7294
 IR Inten    --     27.0076                14.4773                 2.0574

                     82                     83                     84
                      A                      A                      A
 Frequencies --   3237.6160              3239.7041              3701.5678
 Red. masses --      1.0924                 1.0919                 1.0642
 Frc consts  --      6.7467                 6.7519                 8.5907
 IR Inten    --      2.8703                 1.7127                80.6487

 - Thermochemistry -
 -------------------
 Temperature   298.150 Kelvin.  Pressure   1.00000 Atm.
 Atom     1 has atomic number  6 and mass  12.00000

 Molecular mass:   244.08479 amu.
 Principal axes and moments of inertia in atomic units:
                           1         2         3
     Eigenvalues --  1977.139388686.604199646.00720
           X            0.99993   0.00969   0.00737
           Y           -0.00976   0.99990   0.00986
           Z           -0.00727  -0.00994   0.99992
 This molecule is an asymmetric top.
 Rotational symmetry number  1.
 Warning -- assumption of classical behavior for rotation
           may cause significant error
 Rotational temperatures (Kelvin)      0.04381     0.00997     0.00898
 Rotational constants (GHZ):           0.91280     0.20776     0.18710
 Zero-point vibrational energy     611953.1 (Joules/Mol)
                                  146.26031 (Kcal/Mol)
 Warning -- explicit consideration of  24 degrees of freedom as
           vibrations may cause significant error
 Vibrational temperatures:     37.52    49.98    76.52   113.72   122.83
          (Kelvin)            156.32   219.48   223.66   273.65   292.99
                              318.70   342.76   438.77   446.74   507.06
                              546.69   622.17   658.68   663.22   748.31
                              788.10   790.94   864.65   885.05   898.43
                              904.59   973.29  1047.83  1074.66  1109.03
                             1126.48  1130.40  1200.70  1222.83  1249.77
                             1326.88  1355.73  1395.11  1419.52  1423.10
                             1450.06  1484.11  1501.37  1547.94  1548.32
                             1600.29  1677.47  1703.93  1732.09  1754.41
                             1823.99  1844.87  1879.62  1899.47  1963.58
                             1966.28  2006.90  2040.90  2068.60  2074.01
                             2105.94  2162.77  2166.78  2171.06  2184.14
                             2199.16  2232.09  2315.92  2344.63  2369.54
                             2412.67  2621.07  4397.73  4404.34  4482.65
                             4492.13  4518.65  4527.43  4587.74  4594.32
                             4651.14  4658.21  4661.21  5325.73

 Zero-point correction=                           0.233081 (Hartree/Particle)
 Thermal correction to Energy=                    0.249045
 Thermal correction to Enthalpy=                  0.249989
 Thermal correction to Gibbs Free Energy=         0.187864
 Sum of electronic and zero-point Energies=           -837.641970
 Sum of electronic and thermal Energies=              -837.626006
 Sum of electronic and thermal Enthalpies=            -837.625062
 Sum of electronic and thermal Free Energies=         -837.687187

                     E (Thermal)             CV                S
                      KCal/Mol        Cal/Mol-Kelvin    Cal/Mol-Kelvin
 Total                  156.278             59.767            130.754
 Electronic               0.000              0.000              0.000
 Translational            0.889              2.981             42.378
 Rotational               0.889              2.981             33.471
 Vibrational            154.501             53.805             54.905
 Vibration     1          0.593              1.985              6.107
 Vibration     2          0.594              1.983              5.539
 Vibration     3          0.596              1.976              4.695
 Vibration     4          0.600              1.963              3.915
 Vibration     5          0.601              1.959              3.763
 Vibration     6          0.606              1.942              3.293
 Vibration     7          0.619              1.900              2.640
 Vibration     8          0.620              1.897              2.604
 Vibration     9          0.634              1.853              2.226
 Vibration    10          0.639              1.835              2.100
 Vibration    11          0.648              1.808              1.947
 Vibration    12          0.656              1.782              1.816
 Vibration    13          0.696              1.664              1.390
 Vibration    14          0.699              1.654              1.360
 Vibration    15          0.729              1.570              1.155
 Vibration    16          0.750              1.513              1.039
 Vibration    17          0.793              1.400              0.851
 Vibration    18          0.816              1.344              0.773
 Vibration    19          0.819              1.337              0.763
 Vibration    20          0.875              1.205              0.610
 Vibration    21          0.903              1.145              0.549
 Vibration    22          0.905              1.140              0.545
 Vibration    23          0.959              1.030              0.448
 Vibration    24          0.975              1.000              0.424

                           ! Non-Optimized Parameters !
 Normal termination of Gaussian 16 at Fri Dec 11 19:42:04 2020.

 ----------------------------------------------------------------------
 # B3LYP/6-311++G(d,p) empiricaldispersion=gd3bj scf=xqc pop=npa geom=c
 heck
 ----------------------------------------------------------------------

 --------------------------------------
 CID_61396123_JID_8197_Energie_neutraal
 --------------------------------------
 Structure from the checkpoint file:  "JID_8197.chk"
 Charge =  0 Multiplicity = 1

 SCF Done:  E(RB3LYP) =  -838.107225088     A.U. after   17 cycles
 Normal termination of Gaussian 16 at Fri Dec 11 19:46:22 2020.

 ----------------------------------------------------------------------
 # B3LYP/6-311++G(d,p) empiricaldispersion=gd3bj scf=xqc pop=npa geom=c
 heck
 ----------------------------------------------------------------------

 ------------------------------------
 CID_61396123_JID_8197_Energie_kation
 ------------------------------------
 Structure from the checkpoint file:  "JID_8197.chk"
 Charge =  1 Multiplicity = 2

 SCF Done:  E(UB3LYP) =  -837.786332899     A.U. after   33 cycles
 SCF Done:  E(UB3LYP) =  -837.786332899     a.u. after    1 cycles
 Normal termination of Gaussian 16 at Fri Dec 11 19:57:41 2020.
 Gaussian 16:  ES64L-G16RevA.03 25-Dec-2016

 ----------------------------------------------------------------------
 # B3LYP/6-311++G(d,p) empiricaldispersion=gd3bj scf=xqc pop=npa geom=c
 heck
 ----------------------------------------------------------------------

 -----------------------------------
 CID_61396123_JID_8197_Energie_anion
 -----------------------------------
 Structure from the checkpoint file:  "JID_8197.chk"
 Charge = -1 Multiplicity = 2

                         Standard orientation:
 ---------------------------------------------------------------------
 Center     Atomic      Atomic             Coordinates (Angstroms)
 Number     Number       Type             X           Y           Z
 ---------------------------------------------------------------------
      1          6           0       -0.265972    2.807773   -0.376483
      2          6           0        0.811163    1.765903   -0.260351
      3          6           0        0.560339    0.428145   -0.594160
      4          6           0        1.529440   -0.554432   -0.494688
      5          6           0        2.808164   -0.214998   -0.038466
      6          6           0        3.089456    1.111062    0.307923
      7          6           0        2.097419    2.080946    0.192186
      8          6           0        3.818125   -1.296197    0.054047
      9          8           0        3.624343   -2.458506   -0.242452
     10          8           0        5.020106   -0.861466    0.514255
     11          8           0       -0.676712    0.068141   -1.140339
     12          6           0       -1.736061   -0.103449   -0.312369
     13          7           0       -1.593331    0.091926    0.992550
     14          6           0       -2.700061   -0.104476    1.724965
     15          7           0       -3.902750   -0.465834    1.294163
     16          6           0       -4.026419   -0.657970   -0.039845
     17          6           0       -2.948910   -0.483506   -0.898980
     18          6           0       -5.384241   -1.068891   -0.534674
     19          1           0       -0.796331    2.725137   -1.330993
     20          1           0       -1.007892    2.677502    0.419962
     21          1           0        0.152426    3.814582   -0.295294
     22          1           0        1.306134   -1.578985   -0.768177
     23          1           0        4.079344    1.377064    0.659332
     24          1           0        2.320065    3.110981    0.456642
     25          1           0        5.592742   -1.650076    0.532131
     26          1           0       -2.591812    0.053036    2.796224
     27          1           0       -3.024160   -0.633531   -1.969475
     28          1           0       -5.683478   -2.012001   -0.064532
     29          1           0       -6.129505   -0.318939   -0.248331
     30          1           0       -5.401533   -1.192217   -1.620828
 ---------------------------------------------------------------------

 SCF Done:  E(UB3LYP) =  -838.115872887     A.U. after   33 cycles
 SCF Done:  E(UB3LYP) =  -838.115872887     a.u. after    1 cycles

 The electronic state is 2-A.
 Alpha  occ. eigenvalues --  -19.05152 -19.03071 -18.95591 -14.19578 -14.19204
 Alpha  occ. eigenvalues --  -10.16449 -10.14044 -10.11718 -10.11244 -10.09650
 Alpha  occ. eigenvalues --  -10.07927 -10.06565 -10.04888 -10.04134 -10.04047
 Alpha  occ. eigenvalues --  -10.03652 -10.03328 -10.03224  -0.97745  -0.96605
 Alpha  occ. eigenvalues --   -0.87090  -0.86678  -0.77483  -0.72908  -0.68993
 Alpha  occ. eigenvalues --   -0.65326  -0.63549  -0.60866  -0.57917  -0.54503
 Alpha  occ. eigenvalues --   -0.52974  -0.50454  -0.47139  -0.45631  -0.42620
 Alpha  occ. eigenvalues --   -0.41601  -0.37457  -0.36214  -0.35881  -0.35057
 Alpha  occ. eigenvalues --   -0.34405  -0.33441  -0.32466  -0.31647  -0.31093
 Alpha  occ. eigenvalues --   -0.30841  -0.30079  -0.29874  -0.29230  -0.27551
 Alpha  occ. eigenvalues --   -0.27396  -0.26319  -0.25273  -0.22997  -0.22180
 Alpha  occ. eigenvalues --   -0.21734  -0.19007  -0.18859  -0.18147  -0.15071
 Alpha  occ. eigenvalues --   -0.14890  -0.13862  -0.12328  -0.11647   0.04404
 Alpha virt. eigenvalues --    0.06720   0.06958   0.08374   0.08613   0.09035
 Alpha virt. eigenvalues --    0.09573   0.10082   0.10590   0.11166   0.11763
 Alpha virt. eigenvalues --    0.11994   0.12958   0.13263   0.13686   0.14779

  Beta  occ. eigenvalues --  -19.05159 -19.03011 -18.95336 -14.19627 -14.19120
  Beta  occ. eigenvalues --  -10.16470 -10.13791 -10.11550 -10.11112 -10.09730
  Beta  occ. eigenvalues --  -10.07937 -10.06473 -10.04913 -10.04104 -10.03785
  Beta  occ. eigenvalues --  -10.03540 -10.03178 -10.03065  -0.97752  -0.96335
  Beta  occ. eigenvalues --   -0.86703  -0.86528  -0.77349  -0.72600  -0.68803
  Beta  occ. eigenvalues --   -0.64895  -0.63437  -0.60667  -0.57646  -0.54254
  Beta  occ. eigenvalues --   -0.52796  -0.50051  -0.47018  -0.45433  -0.42458
  Beta  occ. eigenvalues --   -0.41492  -0.37336  -0.36020  -0.35741  -0.34899
  Beta  occ. eigenvalues --   -0.34159  -0.33229  -0.32230  -0.31344  -0.30699
  Beta  occ. eigenvalues --   -0.30047  -0.29905  -0.29785  -0.29043  -0.27437
  Beta  occ. eigenvalues --   -0.27344  -0.26117  -0.25050  -0.22800  -0.21639
  Beta  occ. eigenvalues --   -0.21506  -0.18838  -0.17869  -0.17516  -0.14897
  Beta  occ. eigenvalues --   -0.14626  -0.13601  -0.11487  -0.10371
  Beta virt. eigenvalues --    0.06829   0.08032   0.08441   0.08662   0.09043
  Beta virt. eigenvalues --    0.09433   0.09859   0.10109   0.10643   0.11186
  Beta virt. eigenvalues --    0.11705   0.12194   0.12887   0.13252   0.13692

 Mulliken charges and spin densities:
               1          2
     1  C   -0.471848  -0.077216
     2  C    0.920459   0.245775
     3  C   -0.634826  -0.003371
     4  C   -0.064155   0.138035
     5  C    0.349306   0.022885
     6  C   -0.427588   0.147638
     7  C   -0.576630  -0.015614
     8  C    0.182135   0.152682
     9  O   -0.411748   0.091715
    10  O   -0.227549   0.013875
    11  O    0.019700   0.006781
    12  C   -1.091721   0.032841
    13  N    0.073191   0.019151
    14  C    0.018460   0.146386
    15  N   -0.087465  -0.025712
    16  C   -0.469101   0.034220
    17  C    0.521291   0.048955
    18  C   -0.433943  -0.057983
    19  H    0.142925   0.009645
    20  H    0.094322   0.056464
    21  H    0.140489  -0.002596
    22  H    0.163322  -0.010073
    23  H    0.157049  -0.005980
    24  H    0.092397   0.001902
    25  H    0.265549  -0.000920
    26  H    0.165828   0.008748
    27  H    0.179024  -0.006532
    28  H    0.152874   0.002224
    29  H    0.131265   0.023404
    30  H    0.126987   0.002669
 Sum of Mulliken charges =  -1.00000   1.00000

 Dipole moment (field-independent basis, Debye):
    X=             -3.4999    Y=              2.0856    Z=             -1.2266  Tot=              4.2548
 Quadrupole moment (field-independent basis, Debye-Ang):
   XX=           -154.6150   YY=           -123.6842   ZZ=           -116.2658
   XY=              7.5442   XZ=             10.9307   YZ=             -0.4193

 Summary of Natural Population Analysis:

                                       Natural Population
                Natural  -----------------------------------------------
    Atom  No    Charge         Core      Valence    Rydberg      Total
 -----------------------------------------------------------------------
      C    1   -0.29739      0.99965     2.29341    0.00433     3.29739
      C    2    0.03488      0.99946     1.95803    0.00763     2.96512
      C    3    0.12802      0.99929     1.85930    0.01338     2.87198
      C    4   -0.05690      0.99948     2.04924    0.00818     3.05690
      C    5   -0.05813      0.99946     2.04911    0.00956     3.05813
      C    6   -0.06474      0.99955     2.05629    0.00889     3.06474
      C    7   -0.11891      0.99954     2.11061    0.00877     3.11891
      C    8    0.42599      0.99966     1.54992    0.02443     2.57401
      O    9   -0.30808      0.99987     3.30050    0.00771     4.30808
      O   10   -0.35390      0.99988     3.34814    0.00588     4.35390
      O   11   -0.26950      0.99983     3.25986    0.00981     4.26950
      C   12    0.28358      0.99944     1.69814    0.01884     2.71642
      N   13   -0.26075      0.99966     2.75033    0.01076     3.76075
      C   14    0.17768      0.99968     1.80499    0.01765     2.82232
      N   15   -0.28203      0.99968     2.77082    0.01153     3.78203
      C   16    0.13666      0.99956     1.85010    0.01367     2.86334
      C   17   -0.15129      0.99945     2.14341    0.00842     3.15129
      C   18   -0.29895      0.99964     2.29446    0.00485     3.29895
      H   19    0.10247      0.00000     0.39652    0.00101     0.39753
      H   20    0.11049      0.00000     0.38786    0.00165     0.38951
      H   21    0.09508      0.00000     0.40409    0.00083     0.40492
      H   22    0.11032      0.00000     0.38862    0.00106     0.38968
      H   23    0.10063      0.00000     0.39829    0.00108     0.39937
      H   24    0.09056      0.00000     0.40840    0.00105     0.40944
      H   25    0.23111      0.00000     0.26564    0.00325     0.26889
      H   26    0.07744      0.00000     0.42144    0.00112     0.42256
      H   27    0.10558      0.00000     0.39354    0.00088     0.39442
      H   28    0.10648      0.00000     0.39263    0.00089     0.39352
      H   29    0.10651      0.00000     0.39258    0.00091     0.39349
      H   30    0.09709      0.00000     0.40223    0.00068     0.40291
 =======================================================================
   * Total *    0.00000     17.99278    45.79849    0.20873    64.00000

 Normal termination of Gaussian 16 at Fri Dec 11 20:09:03 2020.
