 Gaussian 16, Revision A.03,

 -----------------------------------------------------------
 # opt freq B3LYP/6-31G(d) empiricaldispersion=gd3bj scf=xqc
 -----------------------------------------------------------

 ------------------------------
 CID_39232478_JID_9921_neutraal
 ------------------------------
 Symbolic Z-matrix:
 Charge =  0 Multiplicity = 1

 SCF Done:  E(RB3LYP) =  -806.525128605     A.U. after   14 cycles
 SCF Done:  E(RB3LYP) =  -806.530057382     A.U. after   12 cycles
 SCF Done:  E(RB3LYP) =  -806.531063323     A.U. after   12 cycles
 SCF Done:  E(RB3LYP) =  -806.531343784     A.U. after   12 cycles
 SCF Done:  E(RB3LYP) =  -806.531399966     A.U. after   11 cycles
 SCF Done:  E(RB3LYP) =  -806.531414872     A.U. after   10 cycles
 SCF Done:  E(RB3LYP) =  -806.531421572     A.U. after    9 cycles
 SCF Done:  E(RB3LYP) =  -806.531422580     A.U. after    8 cycles
 SCF Done:  E(RB3LYP) =  -806.531422816     A.U. after    7 cycles
 SCF Done:  E(RB3LYP) =  -806.531422936     A.U. after    7 cycles
 Optimization completed.
    -- Stationary point found.
 Normal termination of Gaussian 16 at Sun Dec 13 20:39:10 2020.

 --------------------------------------------------------------------
 #N Geom=AllCheck Guess=TCheck SCRF=Check GenChk RB3LYP/6-31G(d) Freq
 --------------------------------------------------------------------

 Structure from the checkpoint file:  "JID_9921.chk"
 ------------------------------
 CID_39232478_JID_9921_neutraal
 ------------------------------
 Charge =  0 Multiplicity = 1

 SCF Done:  E(RB3LYP) =  -806.531422935     A.U. after    1 cycles

  Exact polarizability: 296.416  -2.147 167.848   8.700 -14.583 116.206
 Approx polarizability: 399.835   4.392 278.242  18.058 -42.132 188.316

                      1                      2                      3
                      A                      A                      A
 Frequencies --     31.0557                33.2385                59.1921
 Red. masses --      3.7407                 4.5588                 3.2385
 Frc consts  --      0.0021                 0.0030                 0.0067
 IR Inten    --      0.1816                 0.3375                 0.1210

                      4                      5                      6
                      A                      A                      A
 Frequencies --     81.0508                98.1919               101.3455
 Red. masses --      3.9912                 3.0739                 3.4051
 Frc consts  --      0.0154                 0.0175                 0.0206
 IR Inten    --      1.5921                 3.1819                 0.9179

                      7                      8                      9
                      A                      A                      A
 Frequencies --    114.2751               150.0442               166.6811
 Red. masses --      2.9848                 1.5036                 1.8858
 Frc consts  --      0.0230                 0.0199                 0.0309
 IR Inten    --      1.2512                 0.3738                 0.8055

                     10                     11                     12
                      A                      A                      A
 Frequencies --    185.3874               231.2853               258.2512
 Red. masses --      4.5463                 4.7046                 2.6573
 Frc consts  --      0.0921                 0.1483                 0.1044
 IR Inten    --      0.5286                 6.2442                 0.6865

                     13                     14                     15
                      A                      A                      A
 Frequencies --    277.6951               281.1200               289.3946
 Red. masses --      1.1317                 1.2961                 2.8735
 Frc consts  --      0.0514                 0.0604                 0.1418
 IR Inten    --      0.6573                 0.2782                 2.8115

                     16                     17                     18
                      A                      A                      A
 Frequencies --    303.4371               318.8826               337.0087
 Red. masses --      1.1312                 3.3138                 3.8092
 Frc consts  --      0.0614                 0.1985                 0.2549
 IR Inten    --     20.6739                 0.7273                 7.3599

                     19                     20                     21
                      A                      A                      A
 Frequencies --    359.3795               391.8028               407.4359
 Red. masses --      4.2423                 3.1169                 3.2032
 Frc consts  --      0.3228                 0.2819                 0.3133
 IR Inten    --      8.6514                12.6949                 4.1404

                     22                     23                     24
                      A                      A                      A
 Frequencies --    423.4294               453.2219               455.2060
 Red. masses --      3.0577                 1.8079                 2.9552
 Frc consts  --      0.3230                 0.2188                 0.3608
 IR Inten    --      0.0464                 0.5928                16.4567

                     25                     26                     27
                      A                      A                      A
 Frequencies --    493.4313               513.3417               541.7102
 Red. masses --      4.0007                 4.6625                 3.7186
 Frc consts  --      0.5739                 0.7239                 0.6429
 IR Inten    --      8.3021                 5.8975                12.4277

                     28                     29                     30
                      A                      A                      A
 Frequencies --    589.7420               596.9030               612.6181
 Red. masses --      1.8482                 3.9978                 2.3934
 Frc consts  --      0.3787                 0.8392                 0.5292
 IR Inten    --    297.3558                34.3997               115.6670

                     31                     32                     33
                      A                      A                      A
 Frequencies --    658.1307               667.8354               695.4127
 Red. masses --      6.4490                 3.6122                 3.7429
 Frc consts  --      1.6458                 0.9492                 1.0665
 IR Inten    --      0.5827                61.8775                10.9759

                     34                     35                     36
                      A                      A                      A
 Frequencies --    747.4205               754.5273               766.5519
 Red. masses --      3.7122                 5.2263                 4.0434
 Frc consts  --      1.2218                 1.7530                 1.3998
 IR Inten    --      5.1501                 6.4256                 2.3233

                     37                     38                     39
                      A                      A                      A
 Frequencies --    811.3250               826.8853               841.0686
 Red. masses --      1.8616                 2.1686                 4.2536
 Frc consts  --      0.7220                 0.8736                 1.7729
 IR Inten    --     42.4309                 8.4181                20.0607

                     40                     41                     42
                      A                      A                      A
 Frequencies --    859.5603               864.3371               876.4330
 Red. masses --      1.2465                 1.5964                 2.0660
 Frc consts  --      0.5426                 0.7027                 0.9350
 IR Inten    --      0.2930                16.3489                17.5193

                     43                     44                     45
                      A                      A                      A
 Frequencies --    944.3346               962.2958               968.1798
 Red. masses --      1.2897                 2.4669                 1.6499
 Frc consts  --      0.6777                 1.3459                 0.9112
 IR Inten    --      0.3559                 8.6652                 3.0707

                     46                     47                     48
                      A                      A                      A
 Frequencies --    973.4310               973.5638              1027.6220
 Red. masses --      1.6941                 1.3549                 6.7367
 Frc consts  --      0.9458                 0.7566                 4.1915
 IR Inten    --      2.1634                 1.4289                 5.9236

                     49                     50                     51
                      A                      A                      A
 Frequencies --   1050.4088              1061.4986              1063.7521
 Red. masses --      2.9323                 2.5425                 3.3340
 Frc consts  --      1.9062                 1.6879                 2.2228
 IR Inten    --      0.7021                57.1840                33.7987

                     52                     53                     54
                      A                      A                      A
 Frequencies --   1080.8496              1117.1945              1135.0319
 Red. masses --      1.5907                 1.4609                 1.2645
 Frc consts  --      1.0949                 1.0743                 0.9598
 IR Inten    --      9.6866                 3.6399                 8.7948

                     55                     56                     57
                      A                      A                      A
 Frequencies --   1144.0961              1167.1088              1183.0933
 Red. masses --      1.4402                 1.4974                 1.4494
 Frc consts  --      1.1107                 1.2018                 1.1953
 IR Inten    --      9.5761                58.1627                 3.0252

                     58                     59                     60
                      A                      A                      A
 Frequencies --   1187.8948              1199.9812              1205.7072
 Red. masses --      1.2553                 1.4768                 1.5888
 Frc consts  --      1.0436                 1.2529                 1.3608
 IR Inten    --      0.6715                10.0018                33.6003

                     61                     62                     63
                      A                      A                      A
 Frequencies --   1222.0699              1233.5518              1235.8175
 Red. masses --      1.2391                 2.5859                 1.7194
 Frc consts  --      1.0903                 2.3183                 1.5471
 IR Inten    --      0.1243                 6.3748                78.7558

                     64                     65                     66
                      A                      A                      A
 Frequencies --   1273.1616              1314.7252              1317.9913
 Red. masses --      1.7120                 2.4278                 3.2192
 Frc consts  --      1.6350                 2.4725                 3.2948
 IR Inten    --     13.8536                 9.5094                16.6272

                     67                     68                     69
                      A                      A                      A
 Frequencies --   1340.7963              1344.3962              1354.2815
 Red. masses --      4.1271                 1.8168                 2.7382
 Frc consts  --      4.3714                 1.9347                 2.9590
 IR Inten    --     19.4656                 5.2602                46.4626

                     70                     71                     72
                      A                      A                      A
 Frequencies --   1359.4468              1388.5977              1389.0477
 Red. masses --      3.9855                 1.2792                 1.6140
 Frc consts  --      4.3397                 1.4533                 1.8348
 IR Inten    --     28.7966                25.9080                 4.8616

                     73                     74                     75
                      A                      A                      A
 Frequencies --   1455.6776              1466.4792              1481.4134
 Red. masses --      2.5345                 1.1596                 1.8545
 Frc consts  --      3.1642                 1.4694                 2.3979
 IR Inten    --     14.0687                 0.0340                17.1969

                     76                     77                     78
                      A                      A                      A
 Frequencies --   1490.9739              1505.9234              1507.1404
 Red. masses --      1.1394                 1.1183                 1.0464
 Frc consts  --      1.4923                 1.4942                 1.4004
 IR Inten    --      2.1394                 5.4823                11.7932

                     79                     80                     81
                      A                      A                      A
 Frequencies --   1513.7227              1516.7938              1523.6741
 Red. masses --      1.6510                 1.0712                 1.0678
 Frc consts  --      2.2288                 1.4520                 1.4605
 IR Inten    --      9.3233                 1.6146                12.2789

                     82                     83                     84
                      A                      A                      A
 Frequencies --   1534.2959              1536.1249              1545.1595
 Red. masses --      1.0598                 1.0521                 2.4437
 Frc consts  --      1.4699                 1.4627                 3.4375
 IR Inten    --      2.4371                 0.1041                83.4543

                     85                     86                     87
                      A                      A                      A
 Frequencies --   1550.3278              1572.0817              1613.5841
 Red. masses --      1.0773                 2.9168                 5.7885
 Frc consts  --      1.5255                 4.2472                 8.8797
 IR Inten    --     28.4251                 4.3110                 8.3012

                     88                     89                     90
                      A                      A                      A
 Frequencies --   1630.0937              1670.0234              1676.4594
 Red. masses --      6.6527                 4.9982                 3.3278
 Frc consts  --     10.4153                 8.2131                 5.5106
 IR Inten    --     17.0408                85.8575                37.9787

                     91                     92                     93
                      A                      A                      A
 Frequencies --   1695.8917              2960.1185              2968.5101
 Red. masses --      1.4195                 1.0563                 1.0588
 Frc consts  --      2.4053                 5.4534                 5.4970
 IR Inten    --    195.7854                31.2918                90.0059

                     94                     95                     96
                      A                      A                      A
 Frequencies --   3031.1248              3041.3890              3068.7126
 Red. masses --      1.0362                 1.0592                 1.0753
 Frc consts  --      5.6090                 5.7728                 5.9660
 IR Inten    --     56.6796                45.6624                29.6165

                     97                     98                     99
                      A                      A                      A
 Frequencies --   3070.7358              3085.9328              3101.0753
 Red. masses --      1.0731                 1.1061                 1.1012
 Frc consts  --      5.9616                 6.2062                 6.2395
 IR Inten    --     85.0516                21.8755                31.6085

                    100                    101                    102
                      A                      A                      A
 Frequencies --   3110.9767              3113.8763              3150.9483
 Red. masses --      1.1041                 1.1033                 1.1030
 Frc consts  --      6.2956                 6.3030                 6.4521
 IR Inten    --     15.0501                57.8816                27.8568

                    103                    104                    105
                      A                      A                      A
 Frequencies --   3174.2241              3177.1812              3179.4959
 Red. masses --      1.0871                 1.0891                 1.0875
 Frc consts  --      6.4537                 6.4772                 6.4773
 IR Inten    --     22.4111                26.2928                15.7777

                    106                    107                    108
                      A                      A                      A
 Frequencies --   3195.4723              3196.5759              3201.5977
 Red. masses --      1.0934                 1.0908                 1.0930
 Frc consts  --      6.5778                 6.5671                 6.6011
 IR Inten    --      5.8038                16.9586                17.7448

                    109                    110                    111
                      A                      A                      A
 Frequencies --   3229.6486              3553.5327              3653.3977
 Red. masses --      1.0921                 1.0477                 1.0984
 Frc consts  --      6.7116                 7.7949                 8.6377
 IR Inten    --      4.2803                20.1763                 8.6410

 - Thermochemistry -
 -------------------
 Temperature   298.150 Kelvin.  Pressure   1.00000 Atm.
 Atom     1 has atomic number  6 and mass  12.00000

 Molecular mass:   256.15756 amu.
 Principal axes and moments of inertia in atomic units:
                           1         2         3
     Eigenvalues --  1826.65868********************
           X            0.99999  -0.00418  -0.00062
           Y            0.00418   0.99999  -0.00135
           Z            0.00063   0.00135   1.00000
 This molecule is an asymmetric top.
 Rotational symmetry number  1.
 Warning -- assumption of classical behavior for rotation
           may cause significant error
 Rotational temperatures (Kelvin)      0.04742     0.00814     0.00752
 Rotational constants (GHZ):           0.98800     0.16968     0.15665
 Zero-point vibrational energy     876237.9 (Joules/Mol)
                                  209.42589 (Kcal/Mol)
 Warning -- explicit consideration of  30 degrees of freedom as
           vibrations may cause significant error
 Vibrational temperatures:     44.68    47.82    85.16   116.61   141.28
          (Kelvin)            145.81   164.42   215.88   239.82   266.73
                              332.77   371.57   399.54   404.47   416.37
                              436.58   458.80   484.88   517.07   563.72
                              586.21   609.22   652.09   654.94   709.94
                              738.58   779.40   848.51   858.81   881.42
                              946.90   960.87  1000.54  1075.37  1085.60
                             1102.90  1167.32  1189.70  1210.11  1236.72
                             1243.59  1260.99  1358.69  1384.53  1392.99
                             1400.55  1400.74  1478.52  1511.30  1527.26
                             1530.50  1555.10  1607.39  1633.06  1646.10
                             1679.21  1702.21  1709.12  1726.51  1734.74
                             1758.29  1774.81  1778.07  1831.80  1891.60
                             1896.30  1929.11  1934.29  1948.51  1955.94
                             1997.88  1998.53  2094.40  2109.94  2131.42
                             2145.18  2166.69  2168.44  2177.91  2182.33
                             2192.23  2207.51  2210.14  2223.14  2230.58
                             2261.87  2321.59  2345.34  2402.79  2412.05
                             2440.01  4258.95  4271.02  4361.11  4375.88
                             4415.19  4418.10  4439.97  4461.76  4476.00
                             4480.17  4533.51  4567.00  4571.26  4574.59
                             4597.57  4599.16  4606.39  4646.74  5112.74
                             5256.42

 Zero-point correction=                           0.333741 (Hartree/Particle)
 Thermal correction to Energy=                    0.352094
 Thermal correction to Enthalpy=                  0.353038
 Thermal correction to Gibbs Free Energy=         0.287042
 Sum of electronic and zero-point Energies=           -806.197682
 Sum of electronic and thermal Energies=              -806.179329
 Sum of electronic and thermal Enthalpies=            -806.178384
 Sum of electronic and thermal Free Energies=         -806.244381

                     E (Thermal)             CV                S
                      KCal/Mol        Cal/Mol-Kelvin    Cal/Mol-Kelvin
 Total                  220.943             71.009            138.901
 Electronic               0.000              0.000              0.000
 Translational            0.889              2.981             42.522
 Rotational               0.889              2.981             33.770
 Vibrational            219.165             65.048             62.609
 Vibration     1          0.594              1.983              5.761
 Vibration     2          0.594              1.983              5.626
 Vibration     3          0.597              1.974              4.484
 Vibration     4          0.600              1.962              3.865
 Vibration     5          0.604              1.950              3.490
 Vibration     6          0.604              1.948              3.428
 Vibration     7          0.607              1.938              3.195
 Vibration     8          0.618              1.903              2.672
 Vibration     9          0.624              1.883              2.473
 Vibration    10          0.631              1.860              2.273
 Vibration    11          0.653              1.793              1.869
 Vibration    12          0.667              1.749              1.674
 Vibration    13          0.679              1.715              1.548
 Vibration    14          0.681              1.709              1.527
 Vibration    15          0.686              1.693              1.477
 Vibration    16          0.695              1.667              1.398
 Vibration    17          0.705              1.637              1.316
 Vibration    18          0.718              1.602              1.226
 Vibration    19          0.734              1.556              1.125
 Vibration    20          0.759              1.488              0.993
 Vibration    21          0.772              1.454              0.936
 Vibration    22          0.786              1.419              0.880
 Vibration    23          0.812              1.354              0.786
 Vibration    24          0.814              1.349              0.780
 Vibration    25          0.849              1.265              0.675
 Vibration    26          0.868              1.220              0.626
 Vibration    27          0.897              1.158              0.562
 Vibration    28          0.947              1.054              0.468
 Vibration    29          0.955              1.038              0.455
 Vibration    30          0.972              1.005              0.428

                           ! Non-Optimized Parameters !
 Normal termination of Gaussian 16 at Sun Dec 13 20:56:42 2020.

 ----------------------------------------------------------------------
 # B3LYP/6-311++G(d,p) empiricaldispersion=gd3bj scf=xqc pop=npa geom=c
 heck
 ----------------------------------------------------------------------

 --------------------------------------
 CID_39232478_JID_9921_Energie_neutraal
 --------------------------------------
 Structure from the checkpoint file:  "JID_9921.chk"
 Charge =  0 Multiplicity = 1

 SCF Done:  E(RB3LYP) =  -806.750585413     A.U. after   15 cycles
 Normal termination of Gaussian 16 at Sun Dec 13 21:03:40 2020.

 ----------------------------------------------------------------------
 # B3LYP/6-311++G(d,p) empiricaldispersion=gd3bj scf=xqc pop=npa geom=c
 heck
 ----------------------------------------------------------------------

 ------------------------------------
 CID_39232478_JID_9921_Energie_kation
 ------------------------------------
 Structure from the checkpoint file:  "JID_9921.chk"
 Charge =  1 Multiplicity = 2

 SCF Done:  E(UB3LYP) =  -806.493818884     A.U. after   24 cycles
 Normal termination of Gaussian 16 at Sun Dec 13 21:19:00 2020.
 Gaussian 16:  ES64L-G16RevA.03 25-Dec-2016

 ----------------------------------------------------------------------
 # B3LYP/6-311++G(d,p) empiricaldispersion=gd3bj scf=xqc pop=npa geom=c
 heck
 ----------------------------------------------------------------------

 -----------------------------------
 CID_39232478_JID_9921_Energie_anion
 -----------------------------------
 Structure from the checkpoint file:  "JID_9921.chk"
 Charge = -1 Multiplicity = 2

                         Standard orientation:
 ---------------------------------------------------------------------
 Center     Atomic      Atomic             Coordinates (Angstroms)
 Number     Number       Type             X           Y           Z
 ---------------------------------------------------------------------
      1          6           0       -4.662781   -0.219974    1.604953
      2          7           0       -4.854018    0.059377    0.190790
      3          6           0       -4.635177    1.464263   -0.114491
      4          6           0       -4.108897   -0.851892   -0.689106
      5          6           0       -2.596633   -0.774707   -0.589380
      6          6           0       -1.866644    0.130196   -1.370964
      7          6           0       -0.488050    0.259718   -1.233666
      8          6           0        0.216808   -0.517542   -0.298802
      9          6           0       -0.513503   -1.429813    0.479602
     10          6           0       -1.892549   -1.557088    0.332931
     11          6           0        1.686292   -0.411622   -0.148091
     12          6           0        2.370403    0.820825   -0.145369
     13          6           0        3.753897    0.886674   -0.016686
     14          6           0        4.521568   -0.280163    0.109166
     15          6           0        3.855576   -1.516045    0.120726
     16          6           0        2.473278   -1.565615   -0.006846
     17          7           0        5.914264   -0.214456    0.166291
     18          8           0        1.697443    2.020304   -0.280239
     19          6           0        0.986626    2.427869    0.888270
     20          1           0       -5.357878    0.394032    2.188766
     21          1           0       -3.639046   -0.015926    1.968424
     22          1           0       -4.889258   -1.273536    1.804706
     23          1           0       -3.609428    1.815807    0.100009
     24          1           0       -4.839931    1.645352   -1.175762
     25          1           0       -5.331398    2.071591    0.474956
     26          1           0       -4.442112   -1.870455   -0.455035
     27          1           0       -4.421343   -0.634373   -1.717840
     28          1           0       -2.387209    0.735159   -2.109860
     29          1           0        0.054823    0.965885   -1.851049
     30          1           0        0.006951   -2.032923    1.218362
     31          1           0       -2.432441   -2.273352    0.948022
     32          1           0        4.224124    1.865855   -0.022728
     33          1           0        4.427863   -2.436273    0.206444
     34          1           0        1.980811   -2.533605   -0.026404
     35          1           0        6.287279    0.664942    0.501098
     36          1           0        6.359966   -1.003894    0.616641
     37          1           0        0.210244    1.704407    1.160974
     38          1           0        1.675352    2.558750    1.733634
     39          1           0        0.520086    3.385170    0.645498
 ---------------------------------------------------------------------

 SCF Done:  E(UB3LYP) =  -806.741513608     A.U. after   33 cycles
 SCF Done:  E(UB3LYP) =  -806.741513608     a.u. after    1 cycles

 The electronic state is 2-A.
 Alpha  occ. eigenvalues --  -19.03723 -14.22020 -14.21179 -10.12365 -10.11715
 Alpha  occ. eigenvalues --  -10.10947 -10.10804 -10.10070 -10.10047 -10.07884
 Alpha  occ. eigenvalues --  -10.07651 -10.07506 -10.07454 -10.07257 -10.07242
 Alpha  occ. eigenvalues --  -10.07030 -10.06919 -10.06382 -10.06231  -0.95343
 Alpha  occ. eigenvalues --   -0.83838  -0.81572  -0.76358  -0.73556  -0.68042
 Alpha  occ. eigenvalues --   -0.65101  -0.64703  -0.63361  -0.62140  -0.60009
 Alpha  occ. eigenvalues --   -0.58339  -0.52627  -0.51767  -0.50015  -0.49213
 Alpha  occ. eigenvalues --   -0.47559  -0.43077  -0.41663  -0.41030  -0.39094
 Alpha  occ. eigenvalues --   -0.39000  -0.38373  -0.37028  -0.36295  -0.36109
 Alpha  occ. eigenvalues --   -0.35212  -0.34772  -0.33776  -0.32459  -0.32019
 Alpha  occ. eigenvalues --   -0.31950  -0.30423  -0.29127  -0.28835  -0.28639
 Alpha  occ. eigenvalues --   -0.28431  -0.27798  -0.26604  -0.26497  -0.25180
 Alpha  occ. eigenvalues --   -0.24373  -0.23961  -0.21035  -0.17932  -0.15835
 Alpha  occ. eigenvalues --   -0.15578  -0.14370  -0.13095  -0.09941   0.04077
 Alpha virt. eigenvalues --    0.05414   0.06044   0.06978   0.07570   0.07786
 Alpha virt. eigenvalues --    0.07996   0.08181   0.08896   0.09341   0.09523
 Alpha virt. eigenvalues --    0.09659   0.09925   0.10500   0.11190   0.11716

  Beta  occ. eigenvalues --  -19.03724 -14.21995 -14.21099 -10.12327 -10.11689
  Beta  occ. eigenvalues --  -10.10952 -10.10704 -10.10060 -10.10036 -10.07801
  Beta  occ. eigenvalues --  -10.07662 -10.07489 -10.07368 -10.07228 -10.07213
  Beta  occ. eigenvalues --  -10.07018 -10.06894 -10.06392 -10.06243  -0.95324
  Beta  occ. eigenvalues --   -0.83789  -0.81443  -0.76250  -0.73480  -0.67901
  Beta  occ. eigenvalues --   -0.65047  -0.64648  -0.63275  -0.62119  -0.59938
  Beta  occ. eigenvalues --   -0.58287  -0.52508  -0.51720  -0.49963  -0.49124
  Beta  occ. eigenvalues --   -0.47460  -0.43022  -0.41596  -0.40953  -0.39062
  Beta  occ. eigenvalues --   -0.38955  -0.38317  -0.36968  -0.36243  -0.36047
  Beta  occ. eigenvalues --   -0.35162  -0.34727  -0.33727  -0.32429  -0.31986
  Beta  occ. eigenvalues --   -0.31898  -0.30404  -0.29056  -0.28756  -0.28589
  Beta  occ. eigenvalues --   -0.28294  -0.27772  -0.26533  -0.26306  -0.25121
  Beta  occ. eigenvalues --   -0.24306  -0.23915  -0.20809  -0.17903  -0.15667
  Beta  occ. eigenvalues --   -0.15181  -0.14288  -0.13025  -0.09673
  Beta virt. eigenvalues --    0.05654   0.06660   0.07013   0.07156   0.07847
  Beta virt. eigenvalues --    0.08094   0.08251   0.08401   0.09011   0.09344
  Beta virt. eigenvalues --    0.09686   0.09970   0.10005   0.10689   0.11412

 Mulliken charges and spin densities:
               1          2
     1  C   -0.133384  -0.299640
     2  N    0.064748   0.046873
     3  C   -0.215125  -0.229594
     4  C   -0.688747  -0.132494
     5  C    0.844205  -0.084024
     6  C   -0.480704   0.124029
     7  C   -0.410985   0.091628
     8  C    1.243160  -0.307471
     9  C   -0.462998  -0.079799
    10  C   -0.444028   0.095876
    11  C    1.214386  -0.529532
    12  C   -0.255149  -0.119441
    13  C   -0.523513   0.134286
    14  C    0.330421  -0.520307
    15  C   -0.124397  -0.041721
    16  C   -0.836864   0.315658
    17  N   -0.248152  -0.059376
    18  O   -0.147230   0.014984
    19  C    0.093106  -0.432707
    20  H   -0.052290   0.173728
    21  H    0.043690   0.103431
    22  H    0.047062   0.096519
    23  H    0.118720   0.031150
    24  H    0.071070   0.071848
    25  H   -0.063296   0.185653
    26  H    0.151039   0.010954
    27  H    0.164144  -0.005462
    28  H    0.073995   0.063098
    29  H    0.201690   0.000262
    30  H    0.052041   0.127955
    31  H    0.068394   0.060659
    32  H   -0.069323   0.249172
    33  H   -0.183254   0.338584
    34  H    0.141522  -0.008315
    35  H   -0.311095   0.560513
    36  H   -0.289423   0.539332
    37  H    0.121053   0.025139
    38  H   -0.079066   0.219191
    39  H   -0.025422   0.169364
 Sum of Mulliken charges =  -1.00000   1.00000

 Dipole moment (field-independent basis, Debye):
    X=             -8.9417    Y=             -1.4277    Z=             -2.2926  Tot=              9.3407
 Quadrupole moment (field-independent basis, Debye-Ang):
   XX=           -253.8239   YY=           -142.3686   ZZ=           -140.5608
   XY=              4.8291   XZ=             -2.9192   YZ=             -2.0825

 Summary of Natural Population Analysis:

                                       Natural Population
                Natural  -----------------------------------------------
    Atom  No    Charge         Core      Valence    Rydberg      Total
 -----------------------------------------------------------------------
      C    1   -0.18058      0.99965     2.17221    0.00872     3.18058
      N    2   -0.27483      0.99974     2.76204    0.01305     3.77483
      C    3   -0.18069      0.99965     2.17215    0.00890     3.18069
      C    4   -0.08784      0.99958     2.07696    0.01129     3.08784
      C    5   -0.02800      0.99951     2.01854    0.00995     3.02800
      C    6   -0.08548      0.99952     2.08042    0.00554     3.08548
      C    7   -0.09665      0.99954     2.08583    0.01128     3.09665
      C    8   -0.01134      0.99949     2.00148    0.01036     3.01134
      C    9   -0.09227      0.99953     2.08389    0.00886     3.09227
      C   10   -0.10401      0.99952     2.09526    0.00923     3.10401
      C   11   -0.06809      0.99944     2.05896    0.00970     3.06809
      C   12    0.17753      0.99934     1.80973    0.01341     2.82247
      C   13   -0.14638      0.99947     2.13658    0.01033     3.14638
      C   14    0.10542      0.99949     1.88387    0.01122     2.89458
      C   15   -0.13585      0.99952     2.12640    0.00993     3.13585
      C   16   -0.07361      0.99954     2.06607    0.00799     3.07361
      N   17   -0.39236      0.99972     2.88214    0.01051     3.89236
      O   18   -0.29530      0.99986     3.28594    0.00949     4.29530
      C   19   -0.09688      0.99959     2.08855    0.00874     3.09688
      H   20    0.09350      0.00000     0.40554    0.00096     0.40650
      H   21    0.08752      0.00000     0.41104    0.00144     0.41248
      H   22    0.09214      0.00000     0.40698    0.00088     0.40786
      H   23    0.08785      0.00000     0.41079    0.00137     0.41215
      H   24    0.09196      0.00000     0.40716    0.00088     0.40804
      H   25    0.09350      0.00000     0.40554    0.00097     0.40650
      H   26    0.09446      0.00000     0.40452    0.00102     0.40554
      H   27    0.09444      0.00000     0.40446    0.00110     0.40556
      H   28    0.09369      0.00000     0.40503    0.00128     0.40631
      H   29    0.10633      0.00000     0.39188    0.00179     0.39367
      H   30    0.10016      0.00000     0.39851    0.00133     0.39984
      H   31    0.09565      0.00000     0.40293    0.00142     0.40435
      H   32    0.10404      0.00000     0.39434    0.00162     0.39596
      H   33    0.09927      0.00000     0.39988    0.00085     0.40073
      H   34    0.09811      0.00000     0.40069    0.00120     0.40189
      H   35    0.18840      0.00000     0.30565    0.00595     0.31160
      H   36    0.18812      0.00000     0.30550    0.00637     0.31188
      H   37    0.08800      0.00000     0.41040    0.00161     0.41200
      H   38    0.08214      0.00000     0.41669    0.00117     0.41786
      H   39    0.08797      0.00000     0.41092    0.00111     0.41203
 =======================================================================
   * Total *    0.00002     18.99170    49.78547    0.22280    68.99998

 Normal termination of Gaussian 16 at Sun Dec 13 21:39:31 2020.
