 Gaussian 16, Revision A.03,

 -----------------------------------------------------------
 # opt freq B3LYP/6-31G(d) empiricaldispersion=gd3bj scf=xqc
 -----------------------------------------------------------

 -------------------------------
 CID_102312425_JID_6646_neutraal
 -------------------------------
 Symbolic Z-matrix:
 Charge =  0 Multiplicity = 1

 SCF Done:  E(RB3LYP) =  -767.863680095     A.U. after   15 cycles
 SCF Done:  E(RB3LYP) =  -767.868596293     A.U. after   13 cycles
 SCF Done:  E(RB3LYP) =  -767.869579348     A.U. after   12 cycles
 SCF Done:  E(RB3LYP) =  -767.869710315     A.U. after   13 cycles
 SCF Done:  E(RB3LYP) =  -767.870493486     A.U. after   12 cycles
 SCF Done:  E(RB3LYP) =  -767.870749143     A.U. after   12 cycles
 SCF Done:  E(RB3LYP) =  -767.871087943     A.U. after   12 cycles
 SCF Done:  E(RB3LYP) =  -767.871814000     A.U. after   12 cycles
 SCF Done:  E(RB3LYP) =  -767.872761045     A.U. after   13 cycles
 SCF Done:  E(RB3LYP) =  -767.872948513     A.U. after   12 cycles
 SCF Done:  E(RB3LYP) =  -767.874071675     A.U. after   10 cycles
 SCF Done:  E(RB3LYP) =  -767.874072571     A.U. after   10 cycles
 SCF Done:  E(RB3LYP) =  -767.874072681     A.U. after   10 cycles
 SCF Done:  E(RB3LYP) =  -767.874074560     A.U. after    9 cycles
 SCF Done:  E(RB3LYP) =  -767.874074594     A.U. after    7 cycles
 Optimization completed.
    -- Stationary point found.
 Normal termination of Gaussian 16 at Thu Dec 10 22:41:18 2020.

 --------------------------------------------------------------------
 #N Geom=AllCheck Guess=TCheck SCRF=Check GenChk RB3LYP/6-31G(d) Freq
 --------------------------------------------------------------------

 Structure from the checkpoint file:  "JID_6646.chk"
 -------------------------------
 CID_102312425_JID_6646_neutraal
 -------------------------------
 Charge =  0 Multiplicity = 1

 SCF Done:  E(RB3LYP) =  -767.874074594     A.U. after    1 cycles

  Exact polarizability: 177.818  -4.568 136.473   5.528  -1.731  94.561
 Approx polarizability: 222.807  -5.026 209.320  17.787  -5.198 148.837

                      1                      2                      3
                      A                      A                      A
 Frequencies --     16.7664                41.8034                50.3962
 Red. masses --      4.5594                 3.4010                 3.3617
 Frc consts  --      0.0008                 0.0035                 0.0050
 IR Inten    --      1.0076                 2.7918                 2.9723

                      4                      5                      6
                      A                      A                      A
 Frequencies --     55.8017                59.5507                97.1477
 Red. masses --      5.7399                 4.2940                 4.7106
 Frc consts  --      0.0105                 0.0090                 0.0262
 IR Inten    --      1.9696                 1.8600                 0.2969

                      7                      8                      9
                      A                      A                      A
 Frequencies --    108.8838               116.9550               121.8361
 Red. masses --      3.5438                 1.0601                 3.2431
 Frc consts  --      0.0248                 0.0085                 0.0284
 IR Inten    --      0.5839                 0.0877                 0.8937

                     10                     11                     12
                      A                      A                      A
 Frequencies --    164.1032               196.2524               206.0066
 Red. masses --      1.0945                 2.9387                 4.1703
 Frc consts  --      0.0174                 0.0667                 0.1043
 IR Inten    --      0.5023                 0.7174                 4.0055

                     13                     14                     15
                      A                      A                      A
 Frequencies --    232.9644               238.1536               280.9593
 Red. masses --      2.1040                 1.7095                 3.5842
 Frc consts  --      0.0673                 0.0571                 0.1667
 IR Inten    --      2.3696                 0.4692                 5.9984

                     16                     17                     18
                      A                      A                      A
 Frequencies --    320.3468               334.7673               364.5266
 Red. masses --      2.6208                 2.7422                 2.9184
 Frc consts  --      0.1585                 0.1811                 0.2285
 IR Inten    --      1.9849                 8.7245                 3.7199

                     19                     20                     21
                      A                      A                      A
 Frequencies --    405.9735               419.0829               467.5695
 Red. masses --      4.2177                 4.0751                 3.4546
 Frc consts  --      0.4096                 0.4217                 0.4450
 IR Inten    --      7.0573                 8.6418                 5.5146

                     22                     23                     24
                      A                      A                      A
 Frequencies --    497.5801               531.5932               600.8166
 Red. masses --      2.5278                 3.5843                 3.0660
 Frc consts  --      0.3687                 0.5968                 0.6521
 IR Inten    --      7.3354                 5.4539                 3.4975

                     25                     26                     27
                      A                      A                      A
 Frequencies --    616.5444               638.3877               685.2638
 Red. masses --      4.0665                 4.6811                 4.3284
 Frc consts  --      0.9107                 1.1240                 1.1976
 IR Inten    --      2.3311                 0.4559                 1.0050

                     28                     29                     30
                      A                      A                      A
 Frequencies --    730.7408               761.7152               773.9159
 Red. masses --      3.6341                 2.8799                 5.9905
 Frc consts  --      1.1433                 0.9845                 2.1140
 IR Inten    --      4.7640                 4.3226                20.0429

                     31                     32                     33
                      A                      A                      A
 Frequencies --    791.7909               838.0917               853.5100
 Red. masses --      1.6384                 1.3826                 2.0882
 Frc consts  --      0.6052                 0.5722                 0.8963
 IR Inten    --      4.6032                11.1054                 4.7077

                     34                     35                     36
                      A                      A                      A
 Frequencies --    875.4977               889.8893               947.6444
 Red. masses --      1.7487                 2.6577                 2.7312
 Frc consts  --      0.7897                 1.2400                 1.4451
 IR Inten    --      1.1471                 0.9775                 5.5860

                     37                     38                     39
                      A                      A                      A
 Frequencies --    962.1772               991.4512              1022.0566
 Red. masses --      2.1506                 2.0897                 2.6326
 Frc consts  --      1.1731                 1.2103                 1.6202
 IR Inten    --      5.2457                 1.1639                 9.4821

                     40                     41                     42
                      A                      A                      A
 Frequencies --   1036.4167              1054.0081              1074.5017
 Red. masses --      2.8130                 1.9376                 2.2229
 Frc consts  --      1.7803                 1.2683                 1.5121
 IR Inten    --      8.8564                39.2020                 4.0327

                     43                     44                     45
                      A                      A                      A
 Frequencies --   1081.5175              1113.6712              1135.3562
 Red. masses --      1.5132                 3.4579                 2.1553
 Frc consts  --      1.0428                 2.5269                 1.6369
 IR Inten    --      1.7186               191.6130               128.2629

                     46                     47                     48
                      A                      A                      A
 Frequencies --   1160.1918              1189.4793              1207.7096
 Red. masses --      1.4764                 1.6326                 1.9901
 Frc consts  --      1.1709                 1.3609                 1.7102
 IR Inten    --     57.3862                35.6906                 0.3739

                     49                     50                     51
                      A                      A                      A
 Frequencies --   1213.8565              1237.4261              1254.8677
 Red. masses --      1.9722                 1.5700                 2.8166
 Frc consts  --      1.7121                 1.4164                 2.6132
 IR Inten    --     57.0386                53.6994               194.2339

                     52                     53                     54
                      A                      A                      A
 Frequencies --   1270.1256              1334.0399              1344.4175
 Red. masses --      4.0288                 2.9915                 1.1436
 Frc consts  --      3.8293                 3.1368                 1.2179
 IR Inten    --     93.9069               125.7997                32.9250

                     55                     56                     57
                      A                      A                      A
 Frequencies --   1370.9720              1387.7073              1409.7366
 Red. masses --      1.5561                 1.3984                 1.4123
 Frc consts  --      1.7232                 1.5866                 1.6537
 IR Inten    --     15.0388                 8.2939                45.0625

                     58                     59                     60
                      A                      A                      A
 Frequencies --   1414.0459              1426.7016              1440.7882
 Red. masses --      1.4916                 1.4370                 1.3840
 Frc consts  --      1.7572                 1.7233                 1.6928
 IR Inten    --      4.3083                20.6290                30.4800

                     61                     62                     63
                      A                      A                      A
 Frequencies --   1452.1656              1492.6322              1499.6665
 Red. masses --      2.2722                 1.0619                 1.0814
 Frc consts  --      2.8231                 1.3939                 1.4329
 IR Inten    --     41.6419                11.6070                 6.2187

                     64                     65                     66
                      A                      A                      A
 Frequencies --   1504.1363              1505.8507              1507.6791
 Red. masses --      1.0708                 1.0985                 1.0954
 Frc consts  --      1.4273                 1.4677                 1.4671
 IR Inten    --     22.3327                 8.6953                 4.1451

                     67                     68                     69
                      A                      A                      A
 Frequencies --   1515.5270              1517.2296              1518.8630
 Red. masses --      1.0543                 1.0446                 1.0832
 Frc consts  --      1.4268                 1.4167                 1.4723
 IR Inten    --     12.5158                 8.1459                 8.9768

                     70                     71                     72
                      A                      A                      A
 Frequencies --   1538.4346              1636.1496              1671.5726
 Red. masses --      1.0577                 7.6015                 7.4147
 Frc consts  --      1.4749                11.9894                12.2067
 IR Inten    --      6.8811               124.6605                36.5685

                     73                     74                     75
                      A                      A                      A
 Frequencies --   1785.5465              1821.6744              3047.2062
 Red. masses --     11.2804                10.1830                 1.0450
 Frc consts  --     21.1894                19.9097                 5.7170
 IR Inten    --    225.4130               125.8329                10.1905

                     76                     77                     78
                      A                      A                      A
 Frequencies --   3047.6272              3050.7415              3058.8874
 Red. masses --      1.0430                 1.0534                 1.0644
 Frc consts  --      5.7075                 5.7763                 5.8681
 IR Inten    --     18.0937                14.8529                11.0676

                     79                     80                     81
                      A                      A                      A
 Frequencies --   3061.2777              3092.8074              3097.1931
 Red. masses --      1.0364                 1.0588                 1.1002
 Frc consts  --      5.7224                 5.9671                 6.2180
 IR Inten    --     19.5396                30.5638                12.2728

                     82                     83                     84
                      A                      A                      A
 Frequencies --   3103.9121              3107.9818              3113.4919
 Red. masses --      1.0986                 1.0994                 1.0997
 Frc consts  --      6.2361                 6.2570                 6.2809
 IR Inten    --     19.4718                11.8770                12.2862

                     85                     86                     87
                      A                      A                      A
 Frequencies --   3126.8821              3139.4244              3159.1253
 Red. masses --      1.1020                 1.1044                 1.1068
 Frc consts  --      6.3484                 6.4134                 6.5078
 IR Inten    --     26.8070                 9.0872                28.3917

                     88                     89                     90
                      A                      A                      A
 Frequencies --   3167.8074              3182.5556              3289.9833
 Red. masses --      1.1022                 1.0977                 1.0973
 Frc consts  --      6.5167                 6.5504                 6.9977
 IR Inten    --     12.1013                 0.1701                 1.6617

 - Thermochemistry -
 -------------------
 Temperature   298.150 Kelvin.  Pressure   1.00000 Atm.
 Atom     1 has atomic number  6 and mass  12.00000

 Molecular mass:   224.10486 amu.
 Principal axes and moments of inertia in atomic units:
                           1         2         3
     Eigenvalues --  1357.025577921.992498744.59469
           X            0.99991  -0.00642  -0.01188
           Y            0.00645   0.99998   0.00250
           Z            0.01186  -0.00258   0.99993
 This molecule is an asymmetric top.
 Rotational symmetry number  1.
 Warning -- assumption of classical behavior for rotation
           may cause significant error
 Rotational temperatures (Kelvin)      0.06383     0.01093     0.00990
 Rotational constants (GHZ):           1.32992     0.22781     0.20638
 Zero-point vibrational energy     695509.3 (Joules/Mol)
                                  166.23072 (Kcal/Mol)
 Warning -- explicit consideration of  25 degrees of freedom as
           vibrations may cause significant error
 Vibrational temperatures:     24.12    60.15    72.51    80.29    85.68
          (Kelvin)            139.77   156.66   168.27   175.29   236.11
                              282.36   296.40   335.18   342.65   404.24
                              460.91   481.66   524.47   584.11   602.97
                              672.73   715.91   764.84   864.44   887.07
                              918.50   985.94  1051.37  1095.94  1113.49
                             1139.21  1205.83  1228.01  1259.65  1280.35
                             1363.45  1384.36  1426.48  1470.51  1491.17
                             1516.48  1545.97  1556.06  1602.32  1633.52
                             1669.26  1711.40  1737.62  1746.47  1780.38
                             1805.47  1827.43  1919.39  1934.32  1972.52
                             1996.60  2028.30  2034.50  2052.71  2072.97
                             2089.34  2147.56  2157.69  2164.12  2166.58
                             2169.21  2180.51  2182.95  2185.31  2213.46
                             2354.05  2405.02  2569.00  2620.98  4384.25
                             4384.86  4389.34  4401.06  4404.50  4449.86
                             4456.17  4465.84  4471.69  4479.62  4498.89
                             4516.93  4545.28  4557.77  4578.99  4733.55

 Zero-point correction=                           0.264906 (Hartree/Particle)
 Thermal correction to Energy=                    0.282134
 Thermal correction to Enthalpy=                  0.283078
 Thermal correction to Gibbs Free Energy=         0.217482
 Sum of electronic and zero-point Energies=           -767.609169
 Sum of electronic and thermal Energies=              -767.591940
 Sum of electronic and thermal Enthalpies=            -767.590996
 Sum of electronic and thermal Free Energies=         -767.656593

                     E (Thermal)             CV                S
                      KCal/Mol        Cal/Mol-Kelvin    Cal/Mol-Kelvin
 Total                  177.042             61.266            138.060
 Electronic               0.000              0.000              0.000
 Translational            0.889              2.981             42.123
 Rotational               0.889              2.981             32.908
 Vibrational            175.264             55.304             63.028
 Vibration     1          0.593              1.986              6.984
 Vibration     2          0.594              1.980              5.172
 Vibration     3          0.595              1.977              4.802
 Vibration     4          0.596              1.975              4.600
 Vibration     5          0.597              1.974              4.472
 Vibration     6          0.603              1.951              3.511
 Vibration     7          0.606              1.942              3.289
 Vibration     8          0.608              1.935              3.150
 Vibration     9          0.609              1.931              3.071
 Vibration    10          0.623              1.887              2.502
 Vibration    11          0.636              1.845              2.168
 Vibration    12          0.640              1.831              2.079
 Vibration    13          0.654              1.791              1.856
 Vibration    14          0.656              1.782              1.817
 Vibration    15          0.681              1.709              1.528
 Vibration    16          0.706              1.635              1.308
 Vibration    17          0.716              1.606              1.237
 Vibration    18          0.738              1.545              1.103
 Vibration    19          0.771              1.457              0.941
 Vibration    20          0.782              1.429              0.895
 Vibration    21          0.825              1.322              0.744
 Vibration    22          0.853              1.255              0.664
 Vibration    23          0.887              1.180              0.584
 Vibration    24          0.959              1.030              0.448
 Vibration    25          0.976              0.997              0.422

 Optimization completed.
    -- Stationary point found.
 Normal termination of Gaussian 16 at Thu Dec 10 22:50:07 2020.

 ----------------------------------------------------------------------
 # B3LYP/6-311++G(d,p) empiricaldispersion=gd3bj scf=xqc pop=npa geom=c
 heck
 ----------------------------------------------------------------------

 ---------------------------------------
 CID_102312425_JID_6646_Energie_neutraal
 ---------------------------------------
 Structure from the checkpoint file:  "JID_6646.chk"
 Charge =  0 Multiplicity = 1

 SCF Done:  E(RB3LYP) =  -768.092653575     A.U. after   15 cycles
 Normal termination of Gaussian 16 at Thu Dec 10 22:54:02 2020.

 ----------------------------------------------------------------------
 # B3LYP/6-311++G(d,p) empiricaldispersion=gd3bj scf=xqc pop=npa geom=c
 heck
 ----------------------------------------------------------------------

 -------------------------------------
 CID_102312425_JID_6646_Energie_kation
 -------------------------------------
 Structure from the checkpoint file:  "JID_6646.chk"
 Charge =  1 Multiplicity = 2

 SCF Done:  E(UB3LYP) =  -767.793677815     A.U. after   24 cycles
 Normal termination of Gaussian 16 at Thu Dec 10 23:02:30 2020.
 Gaussian 16:  ES64L-G16RevA.03 25-Dec-2016

 ----------------------------------------------------------------------
 # B3LYP/6-311++G(d,p) empiricaldispersion=gd3bj scf=xqc pop=npa geom=c
 heck
 ----------------------------------------------------------------------

 ------------------------------------
 CID_102312425_JID_6646_Energie_anion
 ------------------------------------
 Structure from the checkpoint file:  "JID_6646.chk"
 Charge = -1 Multiplicity = 2

                         Standard orientation:
 ---------------------------------------------------------------------
 Center     Atomic      Atomic             Coordinates (Angstroms)
 Number     Number       Type             X           Y           Z
 ---------------------------------------------------------------------
      1          6           0        5.271963   -0.534381   -0.740344
      2          6           0        4.555115   -0.644301    0.596097
      3          8           0        3.128667   -0.783248    0.414924
      4          6           0        2.436203    0.366165    0.221719
      5          8           0        2.955682    1.469649    0.216116
      6          6           0        1.008814    0.092679    0.030264
      7          6           0        0.036633    1.038892   -0.187427
      8          8           0       -1.167053    0.416197   -0.318336
      9          6           0       -0.971429   -0.947184   -0.184997
     10          6           0        0.345305   -1.188218    0.034371
     11          6           0       -2.187369   -1.800558   -0.290951
     12          6           0       -3.338982   -1.297903    0.600077
     13          6           0       -4.031420   -0.074600   -0.007607
     14          8           0       -4.326865   -0.053374   -1.186542
     15          6           0       -4.329149    1.077354    0.925629
     16          6           0        0.047832    2.518677   -0.297475
     17          1           0        5.035938   -1.392548   -1.377841
     18          1           0        6.356092   -0.508710   -0.581988
     19          1           0        4.976548    0.382963   -1.256102
     20          1           0        4.847069   -1.548130    1.136159
     21          1           0        4.747803    0.231216    1.220713
     22          1           0        0.814421   -2.149165    0.181936
     23          1           0       -2.555443   -1.825845   -1.324336
     24          1           0       -1.907867   -2.821846   -0.014907
     25          1           0       -4.103900   -2.082299    0.676527
     26          1           0       -2.985019   -1.088200    1.614878
     27          1           0       -4.862411    0.729855    1.819035
     28          1           0       -3.378446    1.508026    1.264566
     29          1           0       -4.915357    1.841090    0.411272
     30          1           0       -0.346445    2.840266   -1.268868
     31          1           0       -0.579541    2.974512    0.478840
     32          1           0        1.072019    2.875295   -0.185335
 ---------------------------------------------------------------------

 SCF Done:  E(UB3LYP) =  -768.084847586     A.U. after   33 cycles
 SCF Done:  E(UB3LYP) =  -768.084847586     a.u. after    1 cycles

 The electronic state is 2-A.
 Alpha  occ. eigenvalues --  -19.07874 -19.05435 -18.99872 -18.98926 -10.18079
 Alpha  occ. eigenvalues --  -10.14569 -10.12887 -10.12237 -10.12133 -10.08289
 Alpha  occ. eigenvalues --  -10.07603 -10.07356 -10.07094 -10.07094 -10.06819
 Alpha  occ. eigenvalues --  -10.06562  -1.00590  -0.99225  -0.93354  -0.90318
 Alpha  occ. eigenvalues --   -0.71192  -0.70946  -0.67080  -0.66879  -0.63974
 Alpha  occ. eigenvalues --   -0.59624  -0.56935  -0.53725  -0.51092  -0.47336
 Alpha  occ. eigenvalues --   -0.43756  -0.42722  -0.40593  -0.38143  -0.37861
 Alpha  occ. eigenvalues --   -0.37167  -0.36256  -0.35809  -0.34933  -0.34310
 Alpha  occ. eigenvalues --   -0.33243  -0.32618  -0.31505  -0.30987  -0.30301
 Alpha  occ. eigenvalues --   -0.30260  -0.29038  -0.28889  -0.28698  -0.27304
 Alpha  occ. eigenvalues --   -0.26862  -0.26237  -0.25934  -0.24245  -0.23719
 Alpha  occ. eigenvalues --   -0.19926  -0.17834  -0.16911  -0.14556  -0.12014
 Alpha  occ. eigenvalues --    0.04223
 Alpha virt. eigenvalues --    0.05694   0.06495   0.07096   0.07948   0.08452
 Alpha virt. eigenvalues --    0.08719   0.09040   0.09979   0.10097   0.10541
 Alpha virt. eigenvalues --    0.11294   0.11603   0.11808   0.12415   0.12613

  Beta  occ. eigenvalues --  -19.07814 -19.05409 -18.99785 -18.98818 -10.17922
  Beta  occ. eigenvalues --  -10.14425 -10.12879 -10.12148 -10.12009 -10.08273
  Beta  occ. eigenvalues --  -10.07597 -10.07374 -10.07088 -10.07066 -10.06840
  Beta  occ. eigenvalues --  -10.06555  -1.00460  -0.99086  -0.93158  -0.90153
  Beta  occ. eigenvalues --   -0.71110  -0.70825  -0.67012  -0.66725  -0.63877
  Beta  occ. eigenvalues --   -0.59550  -0.56802  -0.53631  -0.50977  -0.47221
  Beta  occ. eigenvalues --   -0.43684  -0.42489  -0.40507  -0.38044  -0.37596
  Beta  occ. eigenvalues --   -0.37027  -0.36011  -0.35604  -0.34700  -0.34167
  Beta  occ. eigenvalues --   -0.33139  -0.32523  -0.31425  -0.30848  -0.30218
  Beta  occ. eigenvalues --   -0.30163  -0.28931  -0.28818  -0.28433  -0.27226
  Beta  occ. eigenvalues --   -0.26749  -0.26105  -0.25874  -0.24196  -0.23351
  Beta  occ. eigenvalues --   -0.19596  -0.17645  -0.16819  -0.14470  -0.11483
  Beta virt. eigenvalues --    0.06442   0.06821   0.07569   0.08095   0.08566
  Beta virt. eigenvalues --    0.08606   0.09118   0.09547   0.10056   0.10479
  Beta virt. eigenvalues --    0.10724   0.11374   0.11677   0.12069   0.12537

 Mulliken charges and spin densities:
               1          2
     1  C    0.376378  -0.715852
     2  C   -0.227116   0.036053
     3  O   -0.021002   0.014752
     4  C   -0.713050   0.141800
     5  O   -0.307603   0.038715
     6  C    1.418758  -0.262333
     7  C   -0.818643   0.105502
     8  O    0.074270   0.023718
     9  C    0.059969  -0.344169
    10  C    0.583061  -0.198774
    11  C   -0.719691   0.291897
    12  C    0.488430  -0.758930
    13  C   -0.539686   0.748184
    14  O   -0.293967   0.030806
    15  C    0.290340  -0.902186
    16  C   -0.406103  -0.147284
    17  H    0.044610   0.092440
    18  H   -0.276693   0.409126
    19  H    0.010283   0.159773
    20  H   -0.187122   0.336193
    21  H    0.153125   0.011889
    22  H    0.070358   0.122006
    23  H    0.280135  -0.076295
    24  H   -0.249642   0.422336
    25  H   -0.635107   0.850001
    26  H    0.180008  -0.042833
    27  H   -0.284152   0.437683
    28  H    0.146423   0.040816
    29  H    0.070504   0.072881
    30  H    0.161096  -0.004280
    31  H    0.068949   0.061917
    32  H    0.202878   0.004449
 Sum of Mulliken charges =  -1.00000   1.00000

 Dipole moment (field-independent basis, Debye):
    X=              1.7864    Y=              2.0764    Z=              0.0545  Tot=              2.7396
 Quadrupole moment (field-independent basis, Debye-Ang):
   XX=           -208.8069   YY=           -125.4419   ZZ=           -117.9427
   XY=             -8.2741   XZ=              2.0080   YZ=              1.8683

 Summary of Natural Population Analysis:

                                       Natural Population
                Natural  -----------------------------------------------
    Atom  No    Charge         Core      Valence    Rydberg      Total
 -----------------------------------------------------------------------
      C    1   -0.30053      0.99966     2.29592    0.00495     3.30053
      C    2   -0.01752      0.99958     2.00539    0.01254     3.01752
      O    3   -0.28367      0.99987     3.27536    0.00844     4.28367
      C    4    0.41843      0.99962     1.55886    0.02310     2.58157
      O    5   -0.31662      0.99988     3.31204    0.00471     4.31662
      C    6   -0.13011      0.99940     2.12162    0.00909     3.13011
      C    7    0.22827      0.99945     1.76008    0.01219     2.77173
      O    8   -0.23974      0.99985     3.23234    0.00755     4.23974
      C    9    0.14701      0.99946     1.83992    0.01361     2.85299
      C   10   -0.13316      0.99946     2.12535    0.00835     3.13316
      C   11   -0.21132      0.99958     2.20195    0.00979     3.21132
      C   12   -0.23270      0.99958     2.22392    0.00920     3.23270
      C   13    0.31098      0.99969     1.66739    0.02194     2.68902
      O   14   -0.28844      0.99987     3.28203    0.00654     4.28844
      C   15   -0.33412      0.99961     2.32926    0.00525     3.33412
      C   16   -0.31570      0.99963     2.31122    0.00486     3.31570
      H   17    0.09896      0.00000     0.40003    0.00101     0.40104
      H   18    0.10011      0.00000     0.39850    0.00138     0.39989
      H   19    0.10687      0.00000     0.39218    0.00094     0.39313
      H   20    0.08762      0.00000     0.41113    0.00126     0.41238
      H   21    0.09405      0.00000     0.40478    0.00118     0.40595
      H   22    0.11295      0.00000     0.38603    0.00102     0.38705
      H   23    0.11362      0.00000     0.38506    0.00132     0.38638
      H   24    0.10835      0.00000     0.39057    0.00109     0.39165
      H   25    0.11607      0.00000     0.38025    0.00368     0.38393
      H   26    0.10008      0.00000     0.39876    0.00116     0.39992
      H   27    0.10789      0.00000     0.39030    0.00181     0.39211
      H   28    0.11218      0.00000     0.38680    0.00102     0.38782
      H   29    0.10556      0.00000     0.39348    0.00096     0.39444
      H   30    0.10640      0.00000     0.39251    0.00109     0.39360
      H   31    0.10464      0.00000     0.39398    0.00139     0.39536
      H   32    0.12361      0.00000     0.37543    0.00096     0.37639
 =======================================================================
   * Total *   -0.00000     15.99420    43.82244    0.18336    60.00000

 Normal termination of Gaussian 16 at Thu Dec 10 23:13:47 2020.
