 Gaussian 16, Revision A.03,

 -----------------------------------------------------------
 # opt freq B3LYP/6-31G(d) empiricaldispersion=gd3bj scf=xqc
 -----------------------------------------------------------

 -----------------------------
 CID_4723967_JID_6121_neutraal
 -----------------------------
 Symbolic Z-matrix:
 Charge =  0 Multiplicity = 1

 SCF Done:  E(RB3LYP) =  -996.718760426     A.U. after   14 cycles
 SCF Done:  E(RB3LYP) =  -996.722503849     A.U. after   12 cycles
 SCF Done:  E(RB3LYP) =  -996.723080330     A.U. after   12 cycles
 SCF Done:  E(RB3LYP) =  -996.723285474     A.U. after   11 cycles
 SCF Done:  E(RB3LYP) =  -996.723407261     A.U. after   10 cycles
 SCF Done:  E(RB3LYP) =  -996.723574212     A.U. after   11 cycles
 SCF Done:  E(RB3LYP) =  -996.723659073     A.U. after   12 cycles
 SCF Done:  E(RB3LYP) =  -996.723688224     A.U. after   11 cycles
 SCF Done:  E(RB3LYP) =  -996.723779255     A.U. after   12 cycles
 SCF Done:  E(RB3LYP) =  -996.723863502     A.U. after   12 cycles
 SCF Done:  E(RB3LYP) =  -996.723878038     A.U. after    9 cycles
 SCF Done:  E(RB3LYP) =  -996.723878332     A.U. after    9 cycles
 SCF Done:  E(RB3LYP) =  -996.723878516     A.U. after    9 cycles
 SCF Done:  E(RB3LYP) =  -996.723878579     A.U. after    7 cycles
 SCF Done:  E(RB3LYP) =  -996.723878574     A.U. after    7 cycles
 Optimization completed on the basis of negligible forces.
    -- Stationary point found.
 Normal termination of Gaussian 16 at Thu Dec 10 21:22:35 2020.

 --------------------------------------------------------------------
 #N Geom=AllCheck Guess=TCheck SCRF=Check GenChk RB3LYP/6-31G(d) Freq
 --------------------------------------------------------------------

 Structure from the checkpoint file:  "JID_6121.chk"
 -----------------------------
 CID_4723967_JID_6121_neutraal
 -----------------------------
 Charge =  0 Multiplicity = 1

 SCF Done:  E(RB3LYP) =  -996.723878574     A.U. after    1 cycles

  Exact polarizability: 205.243  18.269 148.659  -7.407   6.827 135.819
 Approx polarizability: 265.970  38.228 255.989 -11.564  16.623 231.070

                      1                      2                      3
                      A                      A                      A
 Frequencies --      8.8419                16.9521                24.1638
 Red. masses --      1.0305                 4.0547                 4.0375
 Frc consts  --      0.0000                 0.0007                 0.0014
 IR Inten    --      0.2076                 0.2977                 0.0356

                      4                      5                      6
                      A                      A                      A
 Frequencies --     35.5274                54.5019                93.5507
 Red. masses --      4.4805                 3.7009                 4.1625
 Frc consts  --      0.0033                 0.0065                 0.0215
 IR Inten    --      0.1218                 0.0618                 0.6421

                      7                      8                      9
                      A                      A                      A
 Frequencies --    108.1464               162.6175               172.9162
 Red. masses --      1.0847                 4.2494                 3.0033
 Frc consts  --      0.0075                 0.0662                 0.0529
 IR Inten    --      0.2472                 0.7356                 2.1980

                     10                     11                     12
                      A                      A                      A
 Frequencies --    188.4556               253.3146               296.7128
 Red. masses --      3.4678                 4.0371                 2.8325
 Frc consts  --      0.0726                 0.1526                 0.1469
 IR Inten    --      0.5837                 3.1693                 0.0625

                     13                     14                     15
                      A                      A                      A
 Frequencies --    308.7372               336.8455               360.6564
 Red. masses --      2.2158                 3.5129                 2.8170
 Frc consts  --      0.1244                 0.2348                 0.2159
 IR Inten    --      1.2733                 0.2748                 1.6947

                     16                     17                     18
                      A                      A                      A
 Frequencies --    398.6590               409.9565               420.3071
 Red. masses --      3.4518                 3.5464                 3.0475
 Frc consts  --      0.3232                 0.3512                 0.3172
 IR Inten    --      2.7530                 1.0406                 0.1712

                     19                     20                     21
                      A                      A                      A
 Frequencies --    495.0998               500.6652               543.0562
 Red. masses --      3.7617                 3.6363                 5.2819
 Frc consts  --      0.5433                 0.5370                 0.9178
 IR Inten    --      8.1180                 2.1997                 4.8008

                     22                     23                     24
                      A                      A                      A
 Frequencies --    573.1235               613.0679               658.7564
 Red. masses --      3.8269                 3.3036                 6.5350
 Frc consts  --      0.7406                 0.7316                 1.6709
 IR Inten    --      3.5224                 5.4480                 0.5577

                     25                     26                     27
                      A                      A                      A
 Frequencies --    668.2678               708.9472               718.6865
 Red. masses --      3.2820                 1.8074                 2.8752
 Frc consts  --      0.8636                 0.5352                 0.8750
 IR Inten    --      2.0108                20.2893                11.6101

                     28                     29                     30
                      A                      A                      A
 Frequencies --    740.6572               771.2138               807.7219
 Red. masses --      2.8179                 2.8107                 1.5695
 Frc consts  --      0.9108                 0.9849                 0.6033
 IR Inten    --     18.4380                 7.1439                99.6437

                     31                     32                     33
                      A                      A                      A
 Frequencies --    827.8992               833.5135               860.8998
 Red. masses --      2.1106                 3.1521                 2.1817
 Frc consts  --      0.8524                 1.2902                 0.9527
 IR Inten    --     20.8125                16.7955                 6.0733

                     34                     35                     36
                      A                      A                      A
 Frequencies --    861.9072               885.7408               893.2457
 Red. masses --      1.5431                 1.3305                 2.5173
 Frc consts  --      0.6754                 0.6150                 1.1834
 IR Inten    --      6.4757                 1.3760                 3.6428

                     37                     38                     39
                      A                      A                      A
 Frequencies --    956.7504               967.9084               974.9472
 Red. masses --      1.3102                 2.2669                 1.3264
 Frc consts  --      0.7066                 1.2513                 0.7428
 IR Inten    --      2.1311                 4.5641                 4.7070

                     40                     41                     42
                      A                      A                      A
 Frequencies --    992.7143              1021.8786              1030.6881
 Red. masses --      1.7107                 1.5074                 1.6106
 Frc consts  --      0.9933                 0.9274                 1.0081
 IR Inten    --      4.6793                 2.8463                18.5376

                     43                     44                     45
                      A                      A                      A
 Frequencies --   1045.9529              1070.2336              1075.9186
 Red. masses --      2.8010                 1.4805                 1.5158
 Frc consts  --      1.8054                 0.9991                 1.0339
 IR Inten    --      8.8067                 3.1147                 6.0741

                     46                     47                     48
                      A                      A                      A
 Frequencies --   1098.4188              1134.7163              1143.1887
 Red. masses --      1.3313                 2.8312                 2.1969
 Frc consts  --      0.9464                 2.1478                 1.6916
 IR Inten    --      2.6247                35.9527                23.2684

                     49                     50                     51
                      A                      A                      A
 Frequencies --   1151.0223              1188.4862              1215.7458
 Red. masses --      1.4671                 2.9469                 1.1444
 Frc consts  --      1.1452                 2.4524                 0.9966
 IR Inten    --     13.9984                16.3528                 3.1657

                     52                     53                     54
                      A                      A                      A
 Frequencies --   1239.6387              1244.2631              1246.1503
 Red. masses --      2.3800                 1.7601                 1.9898
 Frc consts  --      2.1549                 1.6055                 1.8206
 IR Inten    --      2.1586                 0.4078                 1.3339

                     55                     56                     57
                      A                      A                      A
 Frequencies --   1266.1028              1317.7948              1352.4206
 Red. masses --      1.6133                 1.4309                 1.6601
 Frc consts  --      1.5238                 1.4641                 1.7890
 IR Inten    --      5.6439                 0.9172                 3.9387

                     58                     59                     60
                      A                      A                      A
 Frequencies --   1359.4493              1380.8753              1414.5758
 Red. masses --      2.1971                 1.3088                 1.7629
 Frc consts  --      2.3924                 1.4704                 2.0784
 IR Inten    --      6.7486                25.7538                14.4234

                     61                     62                     63
                      A                      A                      A
 Frequencies --   1423.0126              1442.6189              1444.6082
 Red. masses --      2.0942                 1.2492                 1.3501
 Frc consts  --      2.4985                 1.5317                 1.6600
 IR Inten    --      3.0526                 0.2358                 0.3157

                     64                     65                     66
                      A                      A                      A
 Frequencies --   1463.1497              1487.6287              1496.2495
 Red. masses --      2.3183                 2.9464                 1.2471
 Frc consts  --      2.9241                 3.8417                 1.6449
 IR Inten    --      3.8250                 5.0664                 4.8308

                     67                     68                     69
                      A                      A                      A
 Frequencies --   1512.2332              1516.1975              1523.0975
 Red. masses --      1.1914                 1.0464                 1.0779
 Frc consts  --      1.6053                 1.4173                 1.4732
 IR Inten    --     43.6718                 5.3849                 4.5860

                     70                     71                     72
                      A                      A                      A
 Frequencies --   1525.5118              1527.9808              1540.2274
 Red. masses --      1.1078                 1.1547                 1.0947
 Frc consts  --      1.5190                 1.5883                 1.5301
 IR Inten    --      6.6808                12.8733                 8.3405

                     73                     74                     75
                      A                      A                      A
 Frequencies --   1567.8503              1617.2433              1637.1118
 Red. masses --      2.5099                 5.4585                 5.6734
 Frc consts  --      3.6351                 8.4115                 8.9588
 IR Inten    --     19.4559                 0.6972                 0.5135

                     76                     77                     78
                      A                      A                      A
 Frequencies --   1679.8475              2983.3929              3026.3461
 Red. masses --      5.8770                 1.0660                 1.0941
 Frc consts  --      9.7712                 5.5901                 5.9038
 IR Inten    --      0.5203                37.1300                26.4454

                     79                     80                     81
                      A                      A                      A
 Frequencies --   3038.0284              3041.8475              3049.1158
 Red. masses --      1.0415                 1.0383                 1.0597
 Frc consts  --      5.6638                 5.6603                 5.8047
 IR Inten    --     29.4044                39.3044                36.3348

                     82                     83                     84
                      A                      A                      A
 Frequencies --   3089.3681              3094.5615              3094.5985
 Red. masses --      1.1050                 1.0994                 1.0947
 Frc consts  --      6.2138                 6.2029                 6.1767
 IR Inten    --     17.6374                23.0616                20.4522

                     85                     86                     87
                      A                      A                      A
 Frequencies --   3121.3767              3124.0484              3171.0596
 Red. masses --      1.1020                 1.1013                 1.0867
 Frc consts  --      6.3258                 6.3327                 6.4381
 IR Inten    --     20.0295                18.0120                16.9847

                     88                     89                     90
                      A                      A                      A
 Frequencies --   3173.2634              3188.8389              3209.6429
 Red. masses --      1.0887                 1.0941                 1.0911
 Frc consts  --      6.4592                 6.5552                 6.6223
 IR Inten    --     21.3825                24.2395                10.3169

                     91                     92                     93
                      A                      A                      A
 Frequencies --   3210.6093              3270.4397              3489.4602
 Red. masses --      1.0923                 1.0964                 1.0739
 Frc consts  --      6.6338                 6.9094                 7.7042
 IR Inten    --      7.0673                 1.2234                 0.2742

 - Thermochemistry -
 -------------------
 Temperature   298.150 Kelvin.  Pressure   1.00000 Atm.
 Atom     1 has atomic number  6 and mass  12.00000

 Molecular mass:   231.10817 amu.
 Principal axes and moments of inertia in atomic units:
                           1         2         3
     Eigenvalues --  1609.531479592.264619647.60652
           X            0.99998  -0.00496   0.00455
           Y            0.00456   0.99650   0.08341
           Z           -0.00495  -0.08339   0.99650
 This molecule is an asymmetric top.
 Rotational symmetry number  1.
 Warning -- assumption of classical behavior for rotation
           may cause significant error
 Rotational temperatures (Kelvin)      0.05381     0.00903     0.00898
 Rotational constants (GHZ):           1.12128     0.18815     0.18707
 Zero-point vibrational energy     731419.2 (Joules/Mol)
                                  174.81338 (Kcal/Mol)
 Warning -- explicit consideration of  23 degrees of freedom as
           vibrations may cause significant error
 Vibrational temperatures:     12.72    24.39    34.77    51.12    78.42
          (Kelvin)            134.60   155.60   233.97   248.79   271.15
                              364.46   426.90   444.20   484.65   518.90
                              573.58   589.84   604.73   712.34   720.35
                              781.34   824.60   882.07   947.80   961.49
                             1020.02  1034.03  1065.64  1109.60  1162.13
                             1191.16  1199.24  1238.64  1240.09  1274.38
                             1285.18  1376.55  1392.60  1402.73  1428.29
                             1470.26  1482.93  1504.89  1539.83  1548.01
                             1580.38  1632.60  1644.79  1656.06  1709.97
                             1749.19  1783.56  1790.22  1792.93  1821.64
                             1896.01  1945.83  1955.94  1986.77  2035.26
                             2047.40  2075.61  2078.47  2105.15  2140.37
                             2152.77  2175.77  2181.47  2191.40  2194.87
                             2198.42  2216.04  2255.79  2326.85  2355.44
                             2416.93  4292.44  4354.24  4371.05  4376.54
                             4387.00  4444.91  4452.38  4452.44  4490.96
                             4494.81  4562.45  4565.62  4588.03  4617.96
                             4619.35  4705.43  5020.55

 Zero-point correction=                           0.278583 (Hartree/Particle)
 Thermal correction to Energy=                    0.294733
 Thermal correction to Enthalpy=                  0.295677
 Thermal correction to Gibbs Free Energy=         0.230018
 Sum of electronic and zero-point Energies=           -996.445296
 Sum of electronic and thermal Energies=              -996.429146
 Sum of electronic and thermal Enthalpies=            -996.428202
 Sum of electronic and thermal Free Energies=         -996.493860

                     E (Thermal)             CV                S
                      KCal/Mol        Cal/Mol-Kelvin    Cal/Mol-Kelvin
 Total                  184.947             59.708            138.190
 Electronic               0.000              0.000              0.000
 Translational            0.889              2.981             42.215
 Rotational               0.889              2.981             33.365
 Vibrational            183.170             53.747             62.610
 Vibration     1          0.593              1.987              8.256
 Vibration     2          0.593              1.986              6.963
 Vibration     3          0.593              1.985              6.259
 Vibration     4          0.594              1.982              5.494
 Vibration     5          0.596              1.976              4.647
 Vibration     6          0.603              1.954              3.584
 Vibration     7          0.606              1.943              3.302
 Vibration     8          0.623              1.888              2.519
 Vibration     9          0.626              1.876              2.404
 Vibration    10          0.633              1.856              2.243
 Vibration    11          0.664              1.757              1.707
 Vibration    12          0.690              1.680              1.435
 Vibration    13          0.698              1.657              1.369
 Vibration    14          0.718              1.602              1.227
 Vibration    15          0.735              1.553              1.119
 Vibration    16          0.765              1.473              0.968
 Vibration    17          0.774              1.449              0.927
 Vibration    18          0.783              1.426              0.891
 Vibration    19          0.851              1.261              0.670
 Vibration    20          0.856              1.249              0.656
 Vibration    21          0.898              1.155              0.559
 Vibration    22          0.929              1.089              0.498
 Vibration    23          0.972              1.004              0.428

 Optimization completed on the basis of negligible forces.
    -- Stationary point found.
 Normal termination of Gaussian 16 at Thu Dec 10 21:31:47 2020.

 ----------------------------------------------------------------------
 # B3LYP/6-311++G(d,p) empiricaldispersion=gd3bj scf=xqc pop=npa geom=c
 heck
 ----------------------------------------------------------------------

 -------------------------------------
 CID_4723967_JID_6121_Energie_neutraal
 -------------------------------------
 Structure from the checkpoint file:  "JID_6121.chk"
 Charge =  0 Multiplicity = 1

 SCF Done:  E(RB3LYP) =  -996.909744861     A.U. after   16 cycles
 Normal termination of Gaussian 16 at Thu Dec 10 21:36:17 2020.

 ----------------------------------------------------------------------
 # B3LYP/6-311++G(d,p) empiricaldispersion=gd3bj scf=xqc pop=npa geom=c
 heck
 ----------------------------------------------------------------------

 -----------------------------------
 CID_4723967_JID_6121_Energie_kation
 -----------------------------------
 Structure from the checkpoint file:  "JID_6121.chk"
 Charge =  1 Multiplicity = 2

 SCF Done:  E(UB3LYP) =  -996.628251321     A.U. after   29 cycles
 Normal termination of Gaussian 16 at Thu Dec 10 21:47:03 2020.
 Gaussian 16:  ES64L-G16RevA.03 25-Dec-2016

 ----------------------------------------------------------------------
 # B3LYP/6-311++G(d,p) empiricaldispersion=gd3bj scf=xqc pop=npa geom=c
 heck
 ----------------------------------------------------------------------

 ----------------------------------
 CID_4723967_JID_6121_Energie_anion
 ----------------------------------
 Structure from the checkpoint file:  "JID_6121.chk"
 Charge = -1 Multiplicity = 2

                         Standard orientation:
 ---------------------------------------------------------------------
 Center     Atomic      Atomic             Coordinates (Angstroms)
 Number     Number       Type             X           Y           Z
 ---------------------------------------------------------------------
      1          6           0       -5.952551    0.442855    0.603898
      2          6           0       -4.492868    0.310489    0.242838
      3          6           0       -3.992706   -0.885271   -0.293144
      4          6           0       -2.652505   -1.012108   -0.644091
      5          6           0       -1.763276    0.056637   -0.467437
      6          6           0       -2.254777    1.245191    0.075534
      7          6           0       -3.601150    1.371364    0.422287
      8          6           0       -0.310155   -0.074139   -0.861322
      9          7           0        0.242959   -1.352806   -0.411001
     10          6           0        1.654314   -1.544024   -0.757931
     11          6           0        2.611728   -0.504504   -0.224405
     12          6           0        2.989748   -0.294416    1.081747
     13          6           0        3.865588    0.831675    1.220651
     14          6           0        4.135355    1.461196    0.038667
     15         16           0        3.321144    0.690064   -1.283137
     16          6           0        2.523675   -1.129285    2.244721
     17          1           0       -6.584688    0.465050   -0.293192
     18          1           0       -6.292585   -0.401408    1.215101
     19          1           0       -6.143288    1.363063    1.164968
     20          1           0       -4.666433   -1.727626   -0.435670
     21          1           0       -2.273723   -1.946997   -1.045587
     22          1           0       -1.577523    2.081740    0.232276
     23          1           0       -3.961220    2.306224    0.845472
     24          1           0       -0.211483   -0.051758   -1.956959
     25          1           0        0.250109    0.798491   -0.486175
     26          1           0        0.133216   -1.413631    0.600192
     27          1           0        1.949122   -2.533067   -0.386952
     28          1           0        1.725579   -1.587975   -1.851170
     29          1           0        4.279132    1.148260    2.173003
     30          1           0        4.769246    2.320043   -0.134300
     31          1           0        3.314870   -1.236117    2.994660
     32          1           0        1.660585   -0.674039    2.748750
     33          1           0        2.227547   -2.135596    1.930707
 ---------------------------------------------------------------------

 SCF Done:  E(UB3LYP) =  -996.895350217     A.U. after   33 cycles
 SCF Done:  E(UB3LYP) =  -996.895350217     a.u. after    1 cycles

 The electronic state is 2-A.
 Alpha  occ. eigenvalues --  -88.78010 -14.20932 -10.11463 -10.10393 -10.10360
 Alpha  occ. eigenvalues --  -10.10136 -10.09068 -10.08743 -10.08598 -10.08116
 Alpha  occ. eigenvalues --  -10.08095 -10.07942 -10.07940 -10.07735 -10.07719
 Alpha  occ. eigenvalues --  -10.07504  -7.86645  -5.82925  -5.82565  -5.82255
 Alpha  occ. eigenvalues --   -0.82398  -0.78563  -0.76592  -0.69360  -0.67382
 Alpha  occ. eigenvalues --   -0.65502  -0.65245  -0.61913  -0.58924  -0.56854
 Alpha  occ. eigenvalues --   -0.54062  -0.51673  -0.48448  -0.47381  -0.43161
 Alpha  occ. eigenvalues --   -0.41804  -0.39984  -0.39156  -0.37413  -0.35858
 Alpha  occ. eigenvalues --   -0.35268  -0.34139  -0.33116  -0.32765  -0.32481
 Alpha  occ. eigenvalues --   -0.32392  -0.30907  -0.29985  -0.29656  -0.29110
 Alpha  occ. eigenvalues --   -0.27918  -0.26956  -0.26490  -0.25668  -0.24839
 Alpha  occ. eigenvalues --   -0.24697  -0.24642  -0.16351  -0.15702  -0.15239
 Alpha  occ. eigenvalues --   -0.14677  -0.13182   0.04210
 Alpha virt. eigenvalues --    0.05560   0.06435   0.06947   0.07180   0.07413
 Alpha virt. eigenvalues --    0.07443   0.07774   0.08238   0.08508   0.09388
 Alpha virt. eigenvalues --    0.09703   0.10041   0.10438   0.11031   0.11288

  Beta  occ. eigenvalues --  -88.78004 -14.20916 -10.11451 -10.10388 -10.10314
  Beta  occ. eigenvalues --  -10.10099 -10.09064 -10.08735 -10.08599 -10.08101
  Beta  occ. eigenvalues --  -10.08090 -10.07932 -10.07926 -10.07723 -10.07686
  Beta  occ. eigenvalues --  -10.07457  -7.86638  -5.82920  -5.82561  -5.82234
  Beta  occ. eigenvalues --   -0.82365  -0.78513  -0.76575  -0.69333  -0.67326
  Beta  occ. eigenvalues --   -0.65458  -0.65207  -0.61869  -0.58858  -0.56790
  Beta  occ. eigenvalues --   -0.54012  -0.51642  -0.48419  -0.47314  -0.43107
  Beta  occ. eigenvalues --   -0.41767  -0.39922  -0.39130  -0.37371  -0.35827
  Beta  occ. eigenvalues --   -0.35227  -0.34091  -0.33079  -0.32742  -0.32427
  Beta  occ. eigenvalues --   -0.32345  -0.30873  -0.29939  -0.29615  -0.29075
  Beta  occ. eigenvalues --   -0.27873  -0.26849  -0.26456  -0.25642  -0.24806
  Beta  occ. eigenvalues --   -0.24676  -0.24600  -0.16324  -0.15599  -0.15193
  Beta  occ. eigenvalues --   -0.14593  -0.13048
  Beta virt. eigenvalues --    0.06127   0.06490   0.06736   0.07246   0.07390
  Beta virt. eigenvalues --    0.07575   0.07794   0.08030   0.08503   0.08920
  Beta virt. eigenvalues --    0.09730   0.10023   0.10495   0.10674   0.11119

 Mulliken charges and spin densities:
               1          2
     1  C    2.070928  -2.606048
     2  C   -0.328062   0.828058
     3  C   -0.539033   0.274267
     4  C   -0.993089   0.573447
     5  C    1.132860  -0.301851
     6  C   -0.180835  -0.054766
     7  C   -0.765167   0.063258
     8  C   -0.180110  -0.573121
     9  N    0.055113   0.079494
    10  C    0.410444  -1.242135
    11  C   -0.487285   1.664201
    12  C   -1.647590   0.931801
    13  C    0.389995  -0.176209
    14  C   -0.156206  -0.353249
    15  S   -0.028051   0.031414
    16  C    2.339141  -2.941826
    17  H   -0.105220   0.263969
    18  H   -0.130004   0.273315
    19  H   -0.338610   0.488409
    20  H   -0.191179   0.362466
    21  H   -0.072145   0.258983
    22  H   -0.118002   0.261909
    23  H   -0.273744   0.415704
    24  H    0.098223   0.043147
    25  H    0.249852  -0.191272
    26  H    0.223573  -0.042043
    27  H   -0.069489   0.258981
    28  H    0.004516   0.151078
    29  H   -0.610419   0.773393
    30  H    0.006578   0.214225
    31  H   -0.486538   0.645237
    32  H   -0.031129   0.218900
    33  H   -0.249318   0.406864
 Sum of Mulliken charges =  -1.00000   1.00000

 Dipole moment (field-independent basis, Debye):
    X=              2.3272    Y=              1.0181    Z=             -4.7491  Tot=              5.3858
 Quadrupole moment (field-independent basis, Debye-Ang):
   XX=           -219.1010   YY=           -140.0747   ZZ=           -146.2670
   XY=              9.4884   XZ=            -10.4106   YZ=              0.5539

 Summary of Natural Population Analysis:

                                       Natural Population
                Natural  -----------------------------------------------
    Atom  No    Charge         Core      Valence    Rydberg      Total
 -----------------------------------------------------------------------
      C    1   -0.29093      0.99964     2.28615    0.00514     3.29093
      C    2   -0.01945      0.99952     2.00909    0.01085     3.01945
      C    3   -0.09890      0.99951     2.09004    0.00935     3.09890
      C    4   -0.09207      0.99951     2.08352    0.00903     3.09207
      C    5   -0.02593      0.99950     2.01680    0.00962     3.02593
      C    6   -0.09605      0.99951     2.08724    0.00930     3.09605
      C    7   -0.09962      0.99951     2.09061    0.00950     3.09962
      C    8   -0.09447      0.99959     2.08481    0.01007     3.09447
      N    9   -0.33245      0.99975     2.82149    0.01121     3.83245
      C   10   -0.10405      0.99956     2.09063    0.01386     3.10405
      C   11   -0.10524      0.99942     2.09254    0.01329     3.10524
      C   12   -0.04250      0.99942     2.03164    0.01144     3.04250
      C   13   -0.11984      0.99949     2.10962    0.01073     3.11984
      C   14   -0.19058      0.99954     2.17933    0.01171     3.19058
      S   15    0.20000      4.99940     2.78069    0.01991     7.80000
      C   16   -0.29447      0.99963     2.28829    0.00655     3.29447
      H   17    0.10387      0.00000     0.39451    0.00162     0.39613
      H   18    0.10314      0.00000     0.39547    0.00140     0.39686
      H   19    0.10236      0.00000     0.39627    0.00137     0.39764
      H   20    0.09819      0.00000     0.40081    0.00100     0.40181
      H   21    0.10747      0.00000     0.39108    0.00145     0.39253
      H   22    0.10028      0.00000     0.39857    0.00115     0.39972
      H   23    0.09922      0.00000     0.39972    0.00106     0.40078
      H   24    0.09413      0.00000     0.40465    0.00123     0.40587
      H   25    0.08811      0.00000     0.40931    0.00259     0.41189
      H   26    0.17437      0.00000     0.32228    0.00335     0.32563
      H   27    0.10552      0.00000     0.39321    0.00127     0.39448
      H   28    0.09682      0.00000     0.40206    0.00112     0.40318
      H   29    0.10731      0.00000     0.39145    0.00124     0.39269
      H   30    0.10731      0.00000     0.39193    0.00076     0.39269
      H   31    0.10745      0.00000     0.39107    0.00148     0.39255
      H   32    0.10765      0.00000     0.39078    0.00157     0.39235
      H   33    0.10333      0.00000     0.39541    0.00126     0.39667
 =======================================================================
   * Total *   -0.00000     19.99250    41.81106    0.19644    62.00000

 Normal termination of Gaussian 16 at Thu Dec 10 21:59:53 2020.
