 Gaussian 16, Revision A.03,

 -----------------------------------------------------------
 # opt freq B3LYP/6-31G(d) empiricaldispersion=gd3bj scf=xqc
 -----------------------------------------------------------

 ------------------------------
 CID_82118625_JID_9011_neutraal
 ------------------------------
 Symbolic Z-matrix:
 Charge =  0 Multiplicity = 1

 SCF Done:  E(RB3LYP) =  -816.541275412     A.U. after   16 cycles
 SCF Done:  E(RB3LYP) =  -816.547291902     A.U. after   14 cycles
 SCF Done:  E(RB3LYP) =  -816.546203181     A.U. after   15 cycles
 SCF Done:  E(RB3LYP) =  -816.549114373     A.U. after   13 cycles
 SCF Done:  E(RB3LYP) =  -816.549386814     A.U. after   12 cycles
 SCF Done:  E(RB3LYP) =  -816.549647456     A.U. after   12 cycles
 SCF Done:  E(RB3LYP) =  -816.549728777     A.U. after   12 cycles
 SCF Done:  E(RB3LYP) =  -816.549776385     A.U. after   11 cycles
 SCF Done:  E(RB3LYP) =  -816.549794193     A.U. after   11 cycles
 SCF Done:  E(RB3LYP) =  -816.549797333     A.U. after    9 cycles
 SCF Done:  E(RB3LYP) =  -816.549798005     A.U. after    9 cycles
 Optimization completed.
    -- Stationary point found.
 Normal termination of Gaussian 16 at Mon Dec 14 16:40:51 2020.

 --------------------------------------------------------------------
 #N Geom=AllCheck Guess=TCheck SCRF=Check GenChk RB3LYP/6-31G(d) Freq
 --------------------------------------------------------------------

 Structure from the checkpoint file:  "JID_9011.chk"
 ------------------------------
 CID_82118625_JID_9011_neutraal
 ------------------------------
 Charge =  0 Multiplicity = 1

 SCF Done:  E(RB3LYP) =  -816.549798005     A.U. after    1 cycles

  Exact polarizability: 246.140   6.556 177.138 -20.342   8.523  92.662
 Approx polarizability: 383.443   8.945 312.947 -43.742  25.980 160.778

                      1                      2                      3
                      A                      A                      A
 Frequencies --     33.6026                44.2367                69.2198
 Red. masses --      7.8873                 5.1233                 4.9504
 Frc consts  --      0.0052                 0.0059                 0.0140
 IR Inten    --      0.5590                 0.4236                 0.0853

                      4                      5                      6
                      A                      A                      A
 Frequencies --    103.1615               112.0442               123.9036
 Red. masses --      9.7775                 9.1828                 5.2689
 Frc consts  --      0.0613                 0.0679                 0.0477
 IR Inten    --      8.0901                 3.6423                 0.5904

                      7                      8                      9
                      A                      A                      A
 Frequencies --    185.8344               198.0147               237.0459
 Red. masses --      6.0974                 5.6781                 4.6771
 Frc consts  --      0.1241                 0.1312                 0.1548
 IR Inten    --      1.2643                 0.9459                 8.4392

                     10                     11                     12
                      A                      A                      A
 Frequencies --    278.5394               298.5282               369.6301
 Red. masses --      6.5596                 8.1873                 9.8479
 Frc consts  --      0.2998                 0.4299                 0.7927
 IR Inten    --      4.2054                 1.5087                 5.7557

                     13                     14                     15
                      A                      A                      A
 Frequencies --    386.1701               393.2016               435.3312
 Red. masses --      3.2931                 4.6403                 3.2143
 Frc consts  --      0.2893                 0.4227                 0.3589
 IR Inten    --      1.1659                 2.1958                 3.9903

                     16                     17                     18
                      A                      A                      A
 Frequencies --    448.8395               506.9340               510.7930
 Red. masses --      7.5124                 7.3122                 7.8302
 Frc consts  --      0.8917                 1.1071                 1.2037
 IR Inten    --      2.2557                 1.4960                 1.9168

                     19                     20                     21
                      A                      A                      A
 Frequencies --    532.5915               577.7316               619.5173
 Red. masses --      5.6093                 4.3067                 7.4541
 Frc consts  --      0.9374                 0.8469                 1.6856
 IR Inten    --     10.2294                 0.3263                 1.0974

                     22                     23                     24
                      A                      A                      A
 Frequencies --    634.4461               657.6954               674.8149
 Red. masses --      3.9494                 5.2079                 6.7961
 Frc consts  --      0.9366                 1.3273                 1.8234
 IR Inten    --      1.9953                21.9185                51.9890

                     25                     26                     27
                      A                      A                      A
 Frequencies --    683.2732               722.5333               753.9139
 Red. masses --      6.7939                 5.4293                 6.0996
 Frc consts  --      1.8688                 1.6700                 2.0427
 IR Inten    --      2.0043                17.2943                 2.2547

                     28                     29                     30
                      A                      A                      A
 Frequencies --    764.3194               772.0362               779.7385
 Red. masses --      1.3807                 2.7828                 3.5008
 Frc consts  --      0.4752                 0.9773                 1.2541
 IR Inten    --     52.9261                17.6411                 7.8510

                     31                     32                     33
                      A                      A                      A
 Frequencies --    792.1102               851.5176               856.9986
 Red. masses --      5.3186                 1.4921                 1.8051
 Frc consts  --      1.9662                 0.6374                 0.7811
 IR Inten    --     11.3205                 7.2887                13.4503

                     34                     35                     36
                      A                      A                      A
 Frequencies --    877.9317               896.4132               940.1392
 Red. masses --      1.4152                 1.2497                 4.7721
 Frc consts  --      0.6427                 0.5917                 2.4851
 IR Inten    --      0.9816                 2.5107                11.3475

                     37                     38                     39
                      A                      A                      A
 Frequencies --    946.8764               986.0560               986.6357
 Red. masses --      1.3805                 1.3131                 1.2600
 Frc consts  --      0.7292                 0.7522                 0.7226
 IR Inten    --      3.1482                 0.5229                 0.0958

                     40                     41                     42
                      A                      A                      A
 Frequencies --    998.2111              1014.6755              1052.9634
 Red. masses --      1.4705                 7.1297                 3.3579
 Frc consts  --      0.8633                 4.3249                 2.1935
 IR Inten    --      0.7697                 2.3026                12.2756

                     43                     44                     45
                      A                      A                      A
 Frequencies --   1058.0138              1102.4511              1121.3591
 Red. masses --      3.1208                 1.9273                 1.5697
 Frc consts  --      2.0582                 1.3801                 1.1629
 IR Inten    --     23.7464                 6.6664                 0.5935

                     46                     47                     48
                      A                      A                      A
 Frequencies --   1141.5883              1161.7876              1183.5863
 Red. masses --      3.7925                 1.6159                 1.6623
 Frc consts  --      2.9120                 1.2850                 1.3720
 IR Inten    --      1.8090                 4.8560                95.2067

                     49                     50                     51
                      A                      A                      A
 Frequencies --   1201.7128              1253.5548              1261.1619
 Red. masses --      1.1869                 1.3376                 3.3469
 Frc consts  --      1.0099                 1.2384                 3.1364
 IR Inten    --      5.4839                10.1083                48.6690

                     52                     53                     54
                      A                      A                      A
 Frequencies --   1282.2549              1302.1966              1343.8251
 Red. masses --      3.0056                10.2778                 2.3725
 Frc consts  --      2.9116                10.2684                 2.5243
 IR Inten    --    214.0403                 9.3348                37.0046

                     55                     56                     57
                      A                      A                      A
 Frequencies --   1366.5936              1369.1535              1373.4322
 Red. masses --      1.5738                 3.5393                 3.0469
 Frc consts  --      1.7317                 3.9091                 3.3862
 IR Inten    --     58.2816                 1.4151               321.1106

                     58                     59                     60
                      A                      A                      A
 Frequencies --   1408.9996              1456.0142              1497.2468
 Red. masses --      7.2032                 1.9433                 2.4169
 Frc consts  --      8.4255                 2.4272                 3.1923
 IR Inten    --    175.6956                33.6650               114.3727

                     61                     62                     63
                      A                      A                      A
 Frequencies --   1526.7706              1540.0780              1607.9486
 Red. masses --      2.8590                 2.1364                 6.2028
 Frc consts  --      3.9266                 2.9854                 9.4489
 IR Inten    --      2.2100                 7.1057                33.2851

                     64                     65                     66
                      A                      A                      A
 Frequencies --   1615.2653              1640.2980              1651.1440
 Red. masses --      7.4888                 6.6598                 5.3105
 Frc consts  --     11.5119                10.5573                 8.5301
 IR Inten    --     17.8588                 0.2189                 4.7398

                     67                     68                     69
                      A                      A                      A
 Frequencies --   1668.7058              1784.4041              2352.7759
 Red. masses --      6.5646                12.9641                12.6621
 Frc consts  --     10.7700                24.3209                41.2970
 IR Inten    --      1.4377               265.8902                55.0202

                     70                     71                     72
                      A                      A                      A
 Frequencies --   3185.0135              3188.2222              3198.1963
 Red. masses --      1.0885                 1.0919                 1.0866
 Frc consts  --      6.5057                 6.5390                 6.5481
 IR Inten    --     24.2537                16.4735                 1.6374

                     73                     74                     75
                      A                      A                      A
 Frequencies --   3209.4820              3220.2511              3226.7366
 Red. masses --      1.0908                 1.0964                 1.0935
 Frc consts  --      6.6202                 6.6988                 6.7079
 IR Inten    --      8.1688                15.3054                 3.8146

                     76                     77                     78
                      A                      A                      A
 Frequencies --   3230.4675              3256.0771              3313.9660
 Red. masses --      1.0937                 1.0924                 1.0978
 Frc consts  --      6.7248                 6.8235                 7.1035
 IR Inten    --      3.5745                 4.0858                14.4583

 - Thermochemistry -
 -------------------
 Temperature   298.150 Kelvin.  Pressure   1.00000 Atm.
 Atom     1 has atomic number  6 and mass  12.00000

 Molecular mass:   247.07456 amu.
 Principal axes and moments of inertia in atomic units:
                           1         2         3
     Eigenvalues --  2442.049626996.918058777.68801
           X            0.99995  -0.01017  -0.00060
           Y            0.01017   0.99995   0.00134
           Z            0.00059  -0.00135   1.00000
 This molecule is an asymmetric top.
 Rotational symmetry number  1.
 Warning -- assumption of classical behavior for rotation
           may cause significant error
 Rotational temperatures (Kelvin)      0.03547     0.01238     0.00987
 Rotational constants (GHZ):           0.73903     0.25793     0.20561
 Zero-point vibrational energy     546746.7 (Joules/Mol)
                                  130.67559 (Kcal/Mol)
 Warning -- explicit consideration of  21 degrees of freedom as
           vibrations may cause significant error
 Vibrational temperatures:     48.35    63.65    99.59   148.43   161.21
          (Kelvin)            178.27   267.37   284.90   341.06   400.76
                              429.52   531.82   555.61   565.73   626.34
                              645.78   729.37   734.92   766.28   831.23
                              891.35   912.83   946.28   970.91   983.08
                             1039.56  1084.71  1099.69  1110.79  1121.87
                             1139.67  1225.14  1233.03  1263.15  1289.74
                             1352.65  1362.34  1418.71  1419.55  1436.20
                             1459.89  1514.98  1522.25  1586.18  1613.39
                             1642.49  1671.55  1702.92  1729.00  1803.59
                             1814.53  1844.88  1873.57  1933.46  1966.22
                             1969.91  1976.06  2027.24  2094.88  2154.20
                             2196.68  2215.83  2313.48  2324.01  2360.02
                             2375.63  2400.90  2567.36  3385.12  4582.52
                             4587.14  4601.49  4617.73  4633.22  4642.55
                             4647.92  4684.77  4768.06

 Zero-point correction=                           0.208245 (Hartree/Particle)
 Thermal correction to Energy=                    0.222566
 Thermal correction to Enthalpy=                  0.223510
 Thermal correction to Gibbs Free Energy=         0.165615
 Sum of electronic and zero-point Energies=           -816.341553
 Sum of electronic and thermal Energies=              -816.327232
 Sum of electronic and thermal Enthalpies=            -816.326288
 Sum of electronic and thermal Free Energies=         -816.384183

                     E (Thermal)             CV                S
                      KCal/Mol        Cal/Mol-Kelvin    Cal/Mol-Kelvin
 Total                  139.662             55.896            121.850
 Electronic               0.000              0.000              0.000
 Translational            0.889              2.981             42.414
 Rotational               0.889              2.981             33.372
 Vibrational            137.885             49.934             46.064
 Vibration     1          0.594              1.983              5.604
 Vibration     2          0.595              1.980              5.060
 Vibration     3          0.598              1.969              4.175
 Vibration     4          0.605              1.947              3.394
 Vibration     5          0.607              1.939              3.233
 Vibration     6          0.610              1.929              3.039
 Vibration     7          0.632              1.859              2.269
 Vibration     8          0.637              1.843              2.151
 Vibration     9          0.656              1.784              1.825
 Vibration    10          0.679              1.713              1.543
 Vibration    11          0.692              1.676              1.425
 Vibration    12          0.742              1.535              1.081
 Vibration    13          0.755              1.500              1.015
 Vibration    14          0.760              1.485              0.988
 Vibration    15          0.796              1.393              0.841
 Vibration    16          0.808              1.363              0.799
 Vibration    17          0.862              1.235              0.641
 Vibration    18          0.866              1.226              0.632
 Vibration    19          0.888              1.178              0.581
 Vibration    20          0.934              1.079              0.490
 Vibration    21          0.979              0.991              0.417

 Optimization completed.
    -- Stationary point found.
 Normal termination of Gaussian 16 at Mon Dec 14 16:54:59 2020.

 ----------------------------------------------------------------------
 # B3LYP/6-311++G(d,p) empiricaldispersion=gd3bj scf=xqc pop=npa geom=c
 heck
 ----------------------------------------------------------------------

 --------------------------------------
 CID_82118625_JID_9011_Energie_neutraal
 --------------------------------------
 Structure from the checkpoint file:  "JID_9011.chk"
 Charge =  0 Multiplicity = 1

 SCF Done:  E(RB3LYP) =  -816.757642767     A.U. after   16 cycles
 Normal termination of Gaussian 16 at Mon Dec 14 17:00:53 2020.

 ----------------------------------------------------------------------
 # B3LYP/6-311++G(d,p) empiricaldispersion=gd3bj scf=xqc pop=npa geom=c
 heck
 ----------------------------------------------------------------------

 ------------------------------------
 CID_82118625_JID_9011_Energie_kation
 ------------------------------------
 Structure from the checkpoint file:  "JID_9011.chk"
 Charge =  1 Multiplicity = 2

 SCF Done:  E(UB3LYP) =  -816.443103009     A.U. after   31 cycles
 Normal termination of Gaussian 16 at Mon Dec 14 17:17:13 2020.
 Gaussian 16:  ES64L-G16RevA.03 25-Dec-2016

 ----------------------------------------------------------------------
 # B3LYP/6-311++G(d,p) empiricaldispersion=gd3bj scf=xqc pop=npa geom=c
 heck
 ----------------------------------------------------------------------

 -----------------------------------
 CID_82118625_JID_9011_Energie_anion
 -----------------------------------
 Structure from the checkpoint file:  "JID_9011.chk"
 Charge = -1 Multiplicity = 2

                         Standard orientation:
 ---------------------------------------------------------------------
 Center     Atomic      Atomic             Coordinates (Angstroms)
 Number     Number       Type             X           Y           Z
 ---------------------------------------------------------------------
      1          6           0       -2.189995    2.882279   -0.332973
      2          6           0       -0.807718    2.839488   -0.581933
      3          6           0       -0.094352    1.643805   -0.545432
      4          6           0       -0.802661    0.480222   -0.236833
      5          6           0       -2.200614    0.508373   -0.024035
      6          6           0       -2.899152    1.718613   -0.060610
      7          6           0       -2.628981   -0.865928    0.166869
      8          6           0       -1.523389   -1.663989    0.056789
      9          7           0       -0.398070   -0.874778   -0.153541
     10          6           0        0.870061   -1.470575   -0.337467
     11          8           0        0.952839   -2.634406   -0.679396
     12          6           0        2.078378   -0.654823   -0.022726
     13          6           0        2.145254    0.180581    1.096486
     14          6           0        3.352428    0.823104    1.369219
     15          7           0        4.448531    0.698743    0.611311
     16          6           0        4.372350   -0.110754   -0.452986
     17          6           0        3.224708   -0.819544   -0.803793
     18          6           0       -3.957048   -1.292204    0.420936
     19          7           0       -5.059202   -1.602899    0.629087
     20          1           0       -2.710556    3.834190   -0.369033
     21          1           0       -0.277971    3.757866   -0.815431
     22          1           0        0.965862    1.631355   -0.757774
     23          1           0       -3.971373    1.735028    0.108146
     24          1           0       -1.417689   -2.734901    0.124740
     25          1           0        1.285154    0.326613    1.740528
     26          1           0        3.441247    1.471986    2.237828
     27          1           0        5.276187   -0.200496   -1.051536
     28          1           0        3.212001   -1.485747   -1.659363
 ---------------------------------------------------------------------

 SCF Done:  E(UB3LYP) =  -816.807532406     A.U. after   24 cycles

 The electronic state is 2-A.
 Alpha  occ. eigenvalues --  -18.96209 -14.26635 -14.20068 -14.17977 -10.13394
 Alpha  occ. eigenvalues --  -10.11457 -10.10830 -10.10458 -10.09197 -10.08764
 Alpha  occ. eigenvalues --  -10.08592 -10.08547 -10.08338 -10.08214 -10.08128
 Alpha  occ. eigenvalues --  -10.08049 -10.06585 -10.05967 -10.05678  -0.92909
 Alpha  occ. eigenvalues --   -0.87086  -0.82120  -0.79913  -0.75655  -0.71260
 Alpha  occ. eigenvalues --   -0.68722  -0.65333  -0.64289  -0.63710  -0.57444
 Alpha  occ. eigenvalues --   -0.53425  -0.51756  -0.51089  -0.50739  -0.46173
 Alpha  occ. eigenvalues --   -0.43764  -0.40784  -0.38928  -0.38035  -0.37039
 Alpha  occ. eigenvalues --   -0.35629  -0.34946  -0.34497  -0.34057  -0.32523
 Alpha  occ. eigenvalues --   -0.31349  -0.31186  -0.29387  -0.28615  -0.27927
 Alpha  occ. eigenvalues --   -0.27166  -0.26552  -0.26140  -0.25490  -0.24650
 Alpha  occ. eigenvalues --   -0.23153  -0.22581  -0.18572  -0.17325  -0.15292
 Alpha  occ. eigenvalues --   -0.14803  -0.14044  -0.13517  -0.12497   0.00572
 Alpha virt. eigenvalues --    0.05991   0.07174   0.08441   0.08856   0.09005
 Alpha virt. eigenvalues --    0.09365   0.09581   0.10051   0.10489   0.11405
 Alpha virt. eigenvalues --    0.11871   0.12262   0.12710   0.13281   0.13879

  Beta  occ. eigenvalues --  -18.95677 -14.26732 -14.19997 -14.17633 -10.13020
  Beta  occ. eigenvalues --  -10.11382 -10.10618 -10.10459 -10.09151 -10.08767
  Beta  occ. eigenvalues --  -10.08619 -10.08580 -10.08335 -10.08233 -10.08132
  Beta  occ. eigenvalues --  -10.08030 -10.06474 -10.05858 -10.05556  -0.92221
  Beta  occ. eigenvalues --   -0.86721  -0.81682  -0.79806  -0.75601  -0.70965
  Beta  occ. eigenvalues --   -0.68344  -0.65247  -0.64061  -0.63575  -0.56895
  Beta  occ. eigenvalues --   -0.53272  -0.51448  -0.50938  -0.50527  -0.46052
  Beta  occ. eigenvalues --   -0.43526  -0.40700  -0.38821  -0.37875  -0.36702
  Beta  occ. eigenvalues --   -0.35404  -0.34813  -0.34465  -0.33746  -0.32155
  Beta  occ. eigenvalues --   -0.31247  -0.31045  -0.28826  -0.27869  -0.27649
  Beta  occ. eigenvalues --   -0.26543  -0.26251  -0.25888  -0.25328  -0.24551
  Beta  occ. eigenvalues --   -0.22600  -0.21717  -0.18320  -0.15996  -0.14563
  Beta  occ. eigenvalues --   -0.14323  -0.13609  -0.12908  -0.11997
  Beta virt. eigenvalues --    0.06163   0.06984   0.07175   0.08497   0.09194
  Beta virt. eigenvalues --    0.09323   0.09538   0.09725   0.10385   0.10539
  Beta virt. eigenvalues --    0.11410   0.11872   0.12251   0.12774   0.13274

 Mulliken charges and spin densities:
               1          2
     1  C   -0.414598  -0.004312
     2  C   -0.125280   0.029117
     3  C   -0.216192  -0.050363
     4  C   -0.265754   0.059843
     5  C    0.379806  -0.006541
     6  C   -0.594309   0.004313
     7  C    1.618145   0.043115
     8  C    0.008679   0.151679
     9  N    0.326697  -0.053320
    10  C   -0.870666   0.181278
    11  O   -0.349131   0.195450
    12  C    0.354613   0.067972
    13  C    0.359783   0.147396
    14  C   -0.633073  -0.041559
    15  N   -0.145444   0.160720
    16  C   -0.491863  -0.016911
    17  C    0.450274   0.123478
    18  C   -1.636980   0.000900
    19  N   -0.269479   0.035355
    20  H    0.133354   0.000282
    21  H    0.151163  -0.001253
    22  H    0.220280  -0.002330
    23  H    0.156242   0.000327
    24  H    0.219321  -0.013627
    25  H    0.166048  -0.003133
    26  H    0.137509  -0.000853
    27  H    0.136122  -0.000245
    28  H    0.194733  -0.006777
 Sum of Mulliken charges =  -1.00000   1.00000

 Dipole moment (field-independent basis, Debye):
    X=              0.1620    Y=              4.5916    Z=             -0.6339  Tot=              4.6379
 Quadrupole moment (field-independent basis, Debye-Ang):
   XX=           -192.5679   YY=           -131.8981   ZZ=           -117.0107
   XY=            -13.0802   XZ=             -0.6183   YZ=             -1.8676

 Summary of Natural Population Analysis:

                                       Natural Population
                Natural  -----------------------------------------------
    Atom  No    Charge         Core      Valence    Rydberg      Total
 -----------------------------------------------------------------------
      C    1   -0.11606      0.99958     2.10745    0.00903     3.11606
      C    2   -0.10474      0.99959     2.09612    0.00903     3.10474
      C    3   -0.11424      0.99952     2.10696    0.00776     3.11424
      C    4    0.09679      0.99945     1.89271    0.01105     2.90321
      C    5   -0.04393      0.99951     2.03024    0.01418     3.04393
      C    6   -0.09905      0.99953     2.09140    0.00813     3.09905
      C    7   -0.07225      0.99939     2.06268    0.01017     3.07225
      C    8    0.07950      0.99957     1.90590    0.01503     2.92050
      N    9   -0.23252      0.99961     2.72307    0.00984     3.73252
      C   10    0.39032      0.99962     1.58853    0.02154     2.60968
      O   11   -0.23977      0.99988     3.23464    0.00526     4.23977
      C   12   -0.03368      0.99948     2.02385    0.01036     3.03368
      C   13   -0.09605      0.99952     2.08904    0.00749     3.09605
      C   14    0.00880      0.99960     1.97640    0.01520     2.99120
      N   15   -0.19283      0.99971     2.68025    0.01286     3.69283
      C   16    0.00631      0.99960     1.97868    0.01541     2.99369
      C   17   -0.08201      0.99952     2.07439    0.00810     3.08201
      C   18    0.14083      0.99971     1.84045    0.01900     2.85917
      N   19   -0.18916      0.99979     2.67894    0.01043     3.68916
      H   20    0.09596      0.00000     0.40310    0.00094     0.40404
      H   21    0.09723      0.00000     0.40190    0.00088     0.40277
      H   22    0.11570      0.00000     0.38300    0.00130     0.38430
      H   23    0.10302      0.00000     0.39568    0.00130     0.39698
      H   24    0.11296      0.00000     0.38576    0.00128     0.38704
      H   25    0.10247      0.00000     0.39620    0.00133     0.39753
      H   26    0.08313      0.00000     0.41556    0.00131     0.41687
      H   27    0.08259      0.00000     0.41612    0.00129     0.41741
      H   28    0.10508      0.00000     0.39382    0.00111     0.39492
 =======================================================================
   * Total *    0.00439     18.99219    44.77281    0.23061    63.99561

 Normal termination of Gaussian 16 at Mon Dec 14 17:29:44 2020.
