 Gaussian 16, Revision A.03,

 -----------------------------------------------------------
 # opt freq B3LYP/6-31G(d) empiricaldispersion=gd3bj scf=xqc
 -----------------------------------------------------------

 -------------------------------
 CID_141160363_JID_2565_neutraal
 -------------------------------
 Symbolic Z-matrix:
 Charge =  0 Multiplicity = 1

 SCF Done:  E(RB3LYP) =  -898.802225991     A.U. after   15 cycles
 SCF Done:  E(RB3LYP) =  -898.805776809     A.U. after   12 cycles
 SCF Done:  E(RB3LYP) =  -898.805956242     A.U. after   12 cycles
 SCF Done:  E(RB3LYP) =  -898.806075537     A.U. after   12 cycles
 SCF Done:  E(RB3LYP) =  -898.806247502     A.U. after   11 cycles
 SCF Done:  E(RB3LYP) =  -898.806250429     A.U. after    9 cycles
 SCF Done:  E(RB3LYP) =  -898.806251915     A.U. after    9 cycles
 SCF Done:  E(RB3LYP) =  -898.806254531     A.U. after   10 cycles
 SCF Done:  E(RB3LYP) =  -898.806262181     A.U. after   10 cycles
 SCF Done:  E(RB3LYP) =  -898.774383069     A.U. after   13 cycles
 SCF Done:  E(RB3LYP) =  -898.806295147     A.U. after   12 cycles
 SCF Done:  E(RB3LYP) =  -898.805372393     A.U. after   13 cycles
 SCF Done:  E(RB3LYP) =  -898.806316539     A.U. after   11 cycles
 SCF Done:  E(RB3LYP) =  -898.806329095     A.U. after    7 cycles
 SCF Done:  E(RB3LYP) =  -898.806337236     A.U. after   10 cycles
 SCF Done:  E(RB3LYP) =  -898.806337824     A.U. after    8 cycles
 Optimization completed.
    -- Stationary point found.
 Normal termination of Gaussian 16 at Wed Dec  9 17:43:45 2020.

 --------------------------------------------------------------------
 #N Geom=AllCheck Guess=TCheck SCRF=Check GenChk RB3LYP/6-31G(d) Freq
 --------------------------------------------------------------------

 Structure from the checkpoint file:  "JID_2565.chk"
 -------------------------------
 CID_141160363_JID_2565_neutraal
 -------------------------------
 Charge =  0 Multiplicity = 1

 SCF Done:  E(RB3LYP) =  -898.806337824     A.U. after    1 cycles

  Exact polarizability: 147.405   8.461 106.289  -1.903  -1.774  86.755
 Approx polarizability: 195.236  20.546 188.023  -6.372 -11.218 128.368

                      1                      2                      3
                      A                      A                      A
 Frequencies --     40.4085                61.1698                89.9549
 Red. masses --      3.1579                 5.1972                 4.9647
 Frc consts  --      0.0030                 0.0115                 0.0237
 IR Inten    --      3.5185                 0.0442                 0.4367

                      4                      5                      6
                      A                      A                      A
 Frequencies --    115.8853               136.0851               175.0763
 Red. masses --      1.3324                 2.6550                 3.6381
 Frc consts  --      0.0105                 0.0290                 0.0657
 IR Inten    --      0.1564                 3.6626                 5.3513

                      7                      8                      9
                      A                      A                      A
 Frequencies --    241.4592               252.3649               289.8273
 Red. masses --      3.5533                 2.8154                 3.4162
 Frc consts  --      0.1221                 0.1056                 0.1691
 IR Inten    --      0.3506                 0.9753                 5.5836

                     10                     11                     12
                      A                      A                      A
 Frequencies --    309.6330               330.6705               389.4641
 Red. masses --      8.1699                 2.5775                 2.8667
 Frc consts  --      0.4615                 0.1661                 0.2562
 IR Inten    --      0.8316                 0.1609                 3.5786

                     13                     14                     15
                      A                      A                      A
 Frequencies --    399.9917               483.5992               502.7788
 Red. masses --      2.8004                 2.9411                 5.8352
 Frc consts  --      0.2640                 0.4053                 0.8691
 IR Inten    --      1.6327                 0.2730                14.6102

                     16                     17                     18
                      A                      A                      A
 Frequencies --    553.2090               607.7646               702.7330
 Red. masses --      2.3259                 2.6673                 6.1946
 Frc consts  --      0.4194                 0.5805                 1.8024
 IR Inten    --      1.5530                 3.4061                 1.7299

                     19                     20                     21
                      A                      A                      A
 Frequencies --    750.3768               768.0140               786.1955
 Red. masses --      7.1133                 6.7186                 4.2987
 Frc consts  --      2.3598                 2.3349                 1.5655
 IR Inten    --      0.5539                 7.0042                34.8108

                     22                     23                     24
                      A                      A                      A
 Frequencies --    836.0685               866.2252               869.5502
 Red. masses --      1.5732                 1.5017                 3.2609
 Frc consts  --      0.6479                 0.6639                 1.4527
 IR Inten    --      0.8886                21.4138                 0.2030

                     25                     26                     27
                      A                      A                      A
 Frequencies --    935.9558               936.8999               999.5607
 Red. masses --      2.7739                 2.2963                 1.1806
 Frc consts  --      1.4317                 1.1876                 0.6950
 IR Inten    --     48.8548                 4.5522                 4.8318

                     28                     29                     30
                      A                      A                      A
 Frequencies --   1003.7145              1018.5339              1022.4807
 Red. masses --      2.3917                 1.4153                 2.0585
 Frc consts  --      1.4196                 0.8651                 1.2680
 IR Inten    --     40.1155                 1.3348                10.5667

                     31                     32                     33
                      A                      A                      A
 Frequencies --   1061.8915              1074.8459              1133.7634
 Red. masses --      1.5706                 2.3022                 5.0097
 Frc consts  --      1.0435                 1.5671                 3.7941
 IR Inten    --      9.3929                11.5664                45.2083

                     34                     35                     36
                      A                      A                      A
 Frequencies --   1146.8995              1183.7632              1187.9282
 Red. masses --      3.4972                 2.5380                 3.6203
 Frc consts  --      2.7103                 2.0954                 3.0101
 IR Inten    --     10.0229                 6.7497                48.3313

                     37                     38                     39
                      A                      A                      A
 Frequencies --   1232.9499              1244.8225              1282.7583
 Red. masses --      1.2681                 1.7853                 1.3040
 Frc consts  --      1.1358                 1.6300                 1.2642
 IR Inten    --      1.8107                23.3968                17.6272

                     40                     41                     42
                      A                      A                      A
 Frequencies --   1334.5101              1348.3724              1361.4531
 Red. masses --      1.4593                 1.5258                 1.3885
 Frc consts  --      1.5312                 1.6344                 1.5163
 IR Inten    --      8.2828                 6.5222                 0.7383

                     43                     44                     45
                      A                      A                      A
 Frequencies --   1392.2267              1393.9370              1404.0720
 Red. masses --      1.4262                 1.2146                 1.2216
 Frc consts  --      1.6287                 1.3905                 1.4189
 IR Inten    --      2.6444                 1.8920                11.2434

                     46                     47                     48
                      A                      A                      A
 Frequencies --   1444.5503              1496.3505              1499.7333
 Red. masses --      1.3090                 1.0525                 1.0898
 Frc consts  --      1.6093                 1.3885                 1.4442
 IR Inten    --     16.5296                15.8538                 2.5203

                     49                     50                     51
                      A                      A                      A
 Frequencies --   1513.4673              1515.7763              1523.5885
 Red. masses --      1.0991                 1.0523                 1.0788
 Frc consts  --      1.4833                 1.4245                 1.4754
 IR Inten    --      2.9726                18.1650                 0.3242

                     52                     53                     54
                      A                      A                      A
 Frequencies --   1537.2327              1593.9283              1850.9497
 Red. masses --      1.1034                 7.6733                12.5331
 Frc consts  --      1.5363                11.4861                25.2987
 IR Inten    --      6.8975                61.1715               221.9408

                     55                     56                     57
                      A                      A                      A
 Frequencies --   3009.1010              3013.9289              3038.5520
 Red. masses --      1.0698                 1.0699                 1.0597
 Frc consts  --      5.7072                 5.7260                 5.7645
 IR Inten    --     23.4802                36.8747                17.5177

                     58                     59                     60
                      A                      A                      A
 Frequencies --   3041.9775              3084.8891              3085.1941
 Red. masses --      1.0601                 1.0984                 1.0342
 Frc consts  --      5.7799                 6.1587                 5.7996
 IR Inten    --     29.2988                23.1384                29.3601

                     61                     62                     63
                      A                      A                      A
 Frequencies --   3086.5118              3110.8853              3113.2430
 Red. masses --      1.1032                 1.0961                 1.0973
 Frc consts  --      6.1920                 6.2497                 6.2664
 IR Inten    --     30.6272                44.1360                49.4339

                     64                     65                     66
                      A                      A                      A
 Frequencies --   3169.5086              3196.4788              3234.5588
 Red. masses --      1.1068                 1.1064                 1.0977
 Frc consts  --      6.5507                 6.6603                 6.7662
 IR Inten    --      6.1702                 0.7732                 3.5894

 - Thermochemistry -
 -------------------
 Temperature   298.150 Kelvin.  Pressure   1.00000 Atm.
 Atom     1 has atomic number  6 and mass  12.00000

 Molecular mass:   184.05580 amu.
 Principal axes and moments of inertia in atomic units:
                           1         2         3
     Eigenvalues --   903.739303999.028324199.06353
           X            0.99987   0.01604   0.00283
           Y           -0.01614   0.99914   0.03829
           Z           -0.00221  -0.03833   0.99926
 This molecule is an asymmetric top.
 Rotational symmetry number  1.
 Warning -- assumption of classical behavior for rotation
           may cause significant error
 Rotational temperatures (Kelvin)      0.09584     0.02166     0.02063
 Rotational constants (GHZ):           1.99697     0.45129     0.42980
 Zero-point vibrational energy     516907.9 (Joules/Mol)
                                  123.54395 (Kcal/Mol)
 Warning -- explicit consideration of  17 degrees of freedom as
           vibrations may cause significant error
 Vibrational temperatures:     58.14    88.01   129.42   166.73   195.80
          (Kelvin)            251.90   347.41   363.10   417.00   445.49
                              475.76   560.35   575.50   695.79   723.39
                              795.94   874.44  1011.08  1079.62  1105.00
                             1131.16  1202.92  1246.30  1251.09  1346.63
                             1347.99  1438.14  1444.12  1465.44  1471.12
                             1527.83  1546.46  1631.23  1650.13  1703.17
                             1709.16  1773.94  1791.02  1845.60  1920.06
                             1940.01  1958.83  2003.10  2005.56  2020.15
                             2078.39  2152.91  2157.78  2177.54  2180.86
                             2192.10  2211.73  2293.31  2663.10  4329.43
                             4336.37  4371.80  4376.73  4438.47  4438.91
                             4440.80  4475.87  4479.26  4560.22  4599.02
                             4653.81

 Zero-point correction=                           0.196880 (Hartree/Particle)
 Thermal correction to Energy=                    0.208810
 Thermal correction to Enthalpy=                  0.209754
 Thermal correction to Gibbs Free Energy=         0.157962
 Sum of electronic and zero-point Energies=           -898.609458
 Sum of electronic and thermal Energies=              -898.597528
 Sum of electronic and thermal Enthalpies=            -898.596584
 Sum of electronic and thermal Free Energies=         -898.648376

                     E (Thermal)             CV                S
                      KCal/Mol        Cal/Mol-Kelvin    Cal/Mol-Kelvin
 Total                  131.030             44.078            109.004
 Electronic               0.000              0.000              0.000
 Translational            0.889              2.981             41.537
 Rotational               0.889              2.981             31.096
 Vibrational            129.253             38.117             36.372
 Vibration     1          0.594              1.981              5.239
 Vibration     2          0.597              1.973              4.419
 Vibration     3          0.602              1.956              3.661
 Vibration     4          0.608              1.936              3.168
 Vibration     5          0.614              1.917              2.858
 Vibration     6          0.627              1.873              2.380
 Vibration     7          0.658              1.777              1.792
 Vibration     8          0.664              1.759              1.714
 Vibration     9          0.686              1.693              1.475
 Vibration    10          0.699              1.655              1.364
 Vibration    11          0.713              1.614              1.257
 Vibration    12          0.757              1.493              1.002
 Vibration    13          0.766              1.470              0.963
 Vibration    14          0.840              1.286              0.700
 Vibration    15          0.858              1.244              0.651
 Vibration    16          0.909              1.133              0.538
 Vibration    17          0.967              1.015              0.436

 Optimization completed.
    -- Stationary point found.
 Normal termination of Gaussian 16 at Wed Dec  9 17:49:27 2020.

 ----------------------------------------------------------------------
 # B3LYP/6-311++G(d,p) empiricaldispersion=gd3bj scf=xqc pop=npa geom=c
 heck
 ----------------------------------------------------------------------

 ---------------------------------------
 CID_141160363_JID_2565_Energie_neutraal
 ---------------------------------------
 Structure from the checkpoint file:  "JID_2565.chk"
 Charge =  0 Multiplicity = 1

 SCF Done:  E(RB3LYP) =  -898.972387681     A.U. after   15 cycles
 Normal termination of Gaussian 16 at Wed Dec  9 17:51:45 2020.

 ----------------------------------------------------------------------
 # B3LYP/6-311++G(d,p) empiricaldispersion=gd3bj scf=xqc pop=npa geom=c
 heck
 ----------------------------------------------------------------------

 -------------------------------------
 CID_141160363_JID_2565_Energie_kation
 -------------------------------------
 Structure from the checkpoint file:  "JID_2565.chk"
 Charge =  1 Multiplicity = 2

 SCF Done:  E(UB3LYP) =  -898.670068926     A.U. after   25 cycles
 Normal termination of Gaussian 16 at Wed Dec  9 17:58:23 2020.
 Gaussian 16:  ES64L-G16RevA.03 25-Dec-2016

 ----------------------------------------------------------------------
 # B3LYP/6-311++G(d,p) empiricaldispersion=gd3bj scf=xqc pop=npa geom=c
 heck
 ----------------------------------------------------------------------

 ------------------------------------
 CID_141160363_JID_2565_Energie_anion
 ------------------------------------
 Structure from the checkpoint file:  "JID_2565.chk"
 Charge = -1 Multiplicity = 2

                         Standard orientation:
 ---------------------------------------------------------------------
 Center     Atomic      Atomic             Coordinates (Angstroms)
 Number     Number       Type             X           Y           Z
 ---------------------------------------------------------------------
      1          6           0        3.526147    1.231389    0.113999
      2         16           0        3.188753   -0.563328   -0.076108
      3          6           0        1.444634   -0.566634    0.051453
      4          6           0        0.508272   -1.521270    0.290298
      5          6           0       -0.712611   -0.609973    0.120892
      6          6           0        0.382616    0.475666   -0.160496
      7          8           0        0.357521    1.649485   -0.444575
      8          6           0       -1.564151   -0.359585    1.374112
      9          6           0       -2.643677    0.689413    1.087998
     10          8           0       -3.462079    0.306039   -0.008502
     11          6           0       -2.702538    0.189829   -1.204362
     12          6           0       -1.627459   -0.894578   -1.080446
     13          1           0        4.575166    1.373250   -0.154183
     14          1           0        3.368588    1.545739    1.147768
     15          1           0        2.887527    1.812279   -0.550961
     16          1           0        0.579737   -2.580090    0.513947
     17          1           0       -2.046682   -1.300011    1.672241
     18          1           0       -0.931011   -0.032735    2.208432
     19          1           0       -2.169936    1.662688    0.883701
     20          1           0       -3.314323    0.803905    1.944495
     21          1           0       -2.230043    1.154570   -1.447127
     22          1           0       -3.415870   -0.055747   -1.996351
     23          1           0       -1.039834   -0.952167   -2.005134
     24          1           0       -2.114293   -1.868169   -0.935180
 ---------------------------------------------------------------------

 SCF Done:  E(UB3LYP) =  -898.975306797     A.U. after   31 cycles

 The electronic state is 2-A.
 Alpha  occ. eigenvalues --  -88.70647 -19.00159 -18.91989 -10.08925 -10.08872
 Alpha  occ. eigenvalues --  -10.06051 -10.05930 -10.03554 -10.03545 -10.03333
 Alpha  occ. eigenvalues --  -10.01954  -9.99282  -7.79205  -5.75596  -5.75222
 Alpha  occ. eigenvalues --   -5.74616  -0.91552  -0.86074  -0.70724  -0.65427
 Alpha  occ. eigenvalues --   -0.63725  -0.61487  -0.52739  -0.51012  -0.48319
 Alpha  occ. eigenvalues --   -0.43934  -0.41012  -0.36825  -0.35067  -0.32708
 Alpha  occ. eigenvalues --   -0.31865  -0.30585  -0.29964  -0.29722  -0.29151
 Alpha  occ. eigenvalues --   -0.28212  -0.26681  -0.24014  -0.23243  -0.22679
 Alpha  occ. eigenvalues --   -0.21723  -0.19973  -0.19073  -0.19058  -0.17261
 Alpha  occ. eigenvalues --   -0.14628  -0.12966  -0.07608  -0.06442   0.06103
 Alpha virt. eigenvalues --    0.08889   0.09117   0.10113   0.10492   0.11928
 Alpha virt. eigenvalues --    0.12233   0.12964   0.13107   0.13286   0.14461
 Alpha virt. eigenvalues --    0.14666   0.15418   0.16390   0.16415   0.16898

  Beta  occ. eigenvalues --  -88.70652 -19.00159 -18.91506 -10.08917 -10.08865
  Beta  occ. eigenvalues --  -10.06041 -10.05564 -10.03553 -10.03541 -10.03388
  Beta  occ. eigenvalues --  -10.01890  -9.98630  -7.79209  -5.75598  -5.75228
  Beta  occ. eigenvalues --   -5.74623  -0.91549  -0.85183  -0.70195  -0.65381
  Beta  occ. eigenvalues --   -0.63706  -0.61216  -0.52661  -0.50973  -0.48265
  Beta  occ. eigenvalues --   -0.42902  -0.40411  -0.36768  -0.35052  -0.32683
  Beta  occ. eigenvalues --   -0.31792  -0.30216  -0.29861  -0.29096  -0.29025
  Beta  occ. eigenvalues --   -0.28057  -0.26565  -0.23756  -0.22893  -0.21942
  Beta  occ. eigenvalues --   -0.21421  -0.19687  -0.18908  -0.17804  -0.17042
  Beta  occ. eigenvalues --   -0.13633  -0.12880  -0.06760  -0.05158
  Beta virt. eigenvalues --    0.08878   0.09094   0.10051   0.10488   0.11885
  Beta virt. eigenvalues --    0.12123   0.12627   0.12996   0.13176   0.14236
  Beta virt. eigenvalues --    0.14465   0.14692   0.15323   0.16312   0.16426

 Mulliken charges and spin densities:
               1          2
     1  C   -0.413565  -0.106930
     2  S   -0.845827   0.024706
     3  C    0.189232  -0.017096
     4  C   -0.391505   0.779006
     5  C    1.954007  -0.248087
     6  C   -0.724522   0.211104
     7  O   -0.418083   0.162314
     8  C   -0.429257   0.042834
     9  C   -0.479445  -0.005640
    10  O   -0.162106  -0.000293
    11  C   -0.498989   0.002707
    12  C   -0.397193   0.018827
    13  H    0.007994   0.111459
    14  H    0.137429   0.011423
    15  H    0.183240   0.031092
    16  H    0.130456  -0.039192
    17  H    0.133960  -0.000433
    18  H    0.139332   0.000966
    19  H    0.160529   0.000008
    20  H    0.147839   0.000278
    21  H    0.167788  -0.000328
    22  H    0.148935  -0.001026
    23  H    0.125841   0.021204
    24  H    0.133909   0.001097
 Sum of Mulliken charges =  -1.00000   1.00000

 Dipole moment (field-independent basis, Debye):
    X=             -2.2997    Y=              0.0410    Z=              0.7347  Tot=              2.4145
 Quadrupole moment (field-independent basis, Debye-Ang):
   XX=           -117.1923   YY=            -97.3697   ZZ=            -87.6544
   XY=              4.5623   XZ=              1.7384   YZ=              2.7350

 Summary of Natural Population Analysis:

                                       Natural Population
                Natural  -----------------------------------------------
    Atom  No    Charge         Core      Valence    Rydberg      Total
 -----------------------------------------------------------------------
      C    1   -0.34707      0.99961     2.34052    0.00693     3.34707
      S    2    0.09713      4.99951     2.87948    0.02388     7.90287
      C    3   -0.16242      0.99928     2.15063    0.01251     3.16242
      C    4    0.07184      0.99944     1.91571    0.01300     2.92816
      C    5   -0.09394      0.99954     2.07784    0.01657     3.09394
      C    6    0.32924      0.99954     1.64506    0.02616     2.67076
      O    7   -0.27445      0.99986     3.26774    0.00684     4.27445
      C    8   -0.19763      0.99959     2.19021    0.00783     3.19763
      C    9   -0.00990      0.99959     1.99928    0.01103     3.00990
      O   10   -0.30915      0.99989     3.29871    0.01056     4.30915
      C   11   -0.01005      0.99959     1.99956    0.01091     3.01005
      C   12   -0.19849      0.99959     2.18990    0.00900     3.19849
      H   13    0.09359      0.00000     0.40460    0.00180     0.40641
      H   14    0.09584      0.00000     0.40233    0.00183     0.40416
      H   15    0.11575      0.00000     0.38170    0.00256     0.38425
      H   16    0.08011      0.00000     0.41906    0.00083     0.41989
      H   17    0.09133      0.00000     0.40732    0.00135     0.40867
      H   18    0.10303      0.00000     0.39597    0.00100     0.39697
      H   19    0.08530      0.00000     0.41333    0.00136     0.41470
      H   20    0.07996      0.00000     0.41882    0.00121     0.42004
      H   21    0.08613      0.00000     0.41250    0.00137     0.41387
      H   22    0.08017      0.00000     0.41865    0.00118     0.41983
      H   23    0.10364      0.00000     0.39494    0.00142     0.39636
      H   24    0.09003      0.00000     0.40805    0.00191     0.40997
 =======================================================================
   * Total *   -0.00000     15.99503    32.83192    0.17305    49.00000

 Normal termination of Gaussian 16 at Wed Dec  9 18:07:42 2020.
