 Gaussian 16, Revision A.03,

 -----------------------------------------------------------
 # opt freq B3LYP/6-31G(d) empiricaldispersion=gd3bj scf=xqc
 -----------------------------------------------------------

 -------------------------------
 CID_133873710_JID_9735_neutraal
 -------------------------------
 Symbolic Z-matrix:
 Charge =  0 Multiplicity = 1

 SCF Done:  E(RB3LYP) =  -1214.65310818     A.U. after   15 cycles
 SCF Done:  E(RB3LYP) =  -1214.65850565     A.U. after   13 cycles
 SCF Done:  E(RB3LYP) =  -1214.65588360     A.U. after   13 cycles
 SCF Done:  E(RB3LYP) =  -1214.66012757     A.U. after   12 cycles
 SCF Done:  E(RB3LYP) =  -1214.66137158     A.U. after   12 cycles
 SCF Done:  E(RB3LYP) =  -1214.66190422     A.U. after   12 cycles
 SCF Done:  E(RB3LYP) =  -1214.66219260     A.U. after   13 cycles
 SCF Done:  E(RB3LYP) =  -1214.66285437     A.U. after   13 cycles
 SCF Done:  E(RB3LYP) =  -1214.66453803     A.U. after   15 cycles
 SCF Done:  E(RB3LYP) =  -1214.66635615     A.U. after   15 cycles
 SCF Done:  E(RB3LYP) =  -1214.67907099     A.U. after    9 cycles
 SCF Done:  E(RB3LYP) =  -1214.67907276     A.U. after    9 cycles
 SCF Done:  E(RB3LYP) =  -1214.67907336     A.U. after    8 cycles
 SCF Done:  E(RB3LYP) =  -1214.67907350     A.U. after    7 cycles
 SCF Done:  E(RB3LYP) =  -1214.67907359     A.U. after    7 cycles
 Optimization completed.
    -- Stationary point found.
 Normal termination of Gaussian 16 at Mon Dec 14 13:54:02 2020.

 --------------------------------------------------------------------
 #N Geom=AllCheck Guess=TCheck SCRF=Check GenChk RB3LYP/6-31G(d) Freq
 --------------------------------------------------------------------

 Structure from the checkpoint file:  "JID_9735.chk"
 -------------------------------
 CID_133873710_JID_9735_neutraal
 -------------------------------
 Charge =  0 Multiplicity = 1

 SCF Done:  E(RB3LYP) =  -1214.67907359     A.U. after    1 cycles

  Exact polarizability: 203.870   2.225 164.404  -0.304   9.047 139.393
 Approx polarizability: 258.811  -3.870 270.514  -0.081  35.632 247.335

                      1                      2                      3
                      A                      A                      A
 Frequencies --     13.3306                27.4520                36.8133
 Red. masses --      6.0344                 3.6710                 5.7695
 Frc consts  --      0.0006                 0.0016                 0.0046
 IR Inten    --      0.5053                 0.1769                 3.9726

                      4                      5                      6
                      A                      A                      A
 Frequencies --     51.7983                95.3855               100.9739
 Red. masses --      4.6267                 4.8141                 4.9879
 Frc consts  --      0.0073                 0.0258                 0.0300
 IR Inten    --      4.2665                 2.4067                 1.6272

                      7                      8                      9
                      A                      A                      A
 Frequencies --    110.0294               130.9453               156.3454
 Red. masses --      4.3963                 1.1216                 5.0646
 Frc consts  --      0.0314                 0.0113                 0.0729
 IR Inten    --      1.1985                 0.1684                 1.9334

                     10                     11                     12
                      A                      A                      A
 Frequencies --    167.3056               217.2134               232.5449
 Red. masses --      5.1909                 3.7599                 3.6791
 Frc consts  --      0.0856                 0.1045                 0.1172
 IR Inten    --      0.7641                 0.1482                 1.7374

                     13                     14                     15
                      A                      A                      A
 Frequencies --    260.3304               265.3309               281.1828
 Red. masses --      3.0808                 3.4497                 2.4528
 Frc consts  --      0.1230                 0.1431                 0.1143
 IR Inten    --      1.6657                 1.4788                 6.7796

                     16                     17                     18
                      A                      A                      A
 Frequencies --    349.2474               371.8654               390.8759
 Red. masses --      2.6417                 2.7165                 2.4521
 Frc consts  --      0.1898                 0.2213                 0.2207
 IR Inten    --      0.4032                 0.1177                 2.2919

                     19                     20                     21
                      A                      A                      A
 Frequencies --    396.6325               430.0802               476.2871
 Red. masses --      3.4101                 4.6150                 5.6395
 Frc consts  --      0.3161                 0.5029                 0.7537
 IR Inten    --      1.8302                 0.1157                 1.7777

                     22                     23                     24
                      A                      A                      A
 Frequencies --    492.9481               519.6715               589.1977
 Red. masses --      1.9983                 4.7873                 3.4858
 Frc consts  --      0.2861                 0.7617                 0.7130
 IR Inten    --      1.3560                 2.5527                 1.5663

                     25                     26                     27
                      A                      A                      A
 Frequencies --    595.9054               650.7024               661.7769
 Red. masses --      4.9501                 6.4561                 4.7027
 Frc consts  --      1.0357                 1.6106                 1.2134
 IR Inten    --      6.1251                 4.0456                 3.6304

                     28                     29                     30
                      A                      A                      A
 Frequencies --    702.9821               722.7220               729.2842
 Red. masses --     10.0984                 8.9450                 4.7005
 Frc consts  --      2.9403                 2.7528                 1.4730
 IR Inten    --      1.3220                 2.6651                13.8784

                     31                     32                     33
                      A                      A                      A
 Frequencies --    740.5123               761.9699               793.6565
 Red. masses --      2.9585                 4.8290                 1.5148
 Frc consts  --      0.9558                 1.6519                 0.5622
 IR Inten    --      5.8853                16.6906                 0.2583

                     34                     35                     36
                      A                      A                      A
 Frequencies --    821.8709               841.3023               877.7987
 Red. masses --      3.4141                 1.3177                 2.4006
 Frc consts  --      1.3587                 0.5495                 1.0898
 IR Inten    --      1.3326                27.8815                 1.9685

                     37                     38                     39
                      A                      A                      A
 Frequencies --    880.0210               888.7593               891.2977
 Red. masses --      2.0858                 1.4971                 2.5880
 Frc consts  --      0.9517                 0.6967                 1.2113
 IR Inten    --      2.4663                 6.7142                 3.0466

                     40                     41                     42
                      A                      A                      A
 Frequencies --    950.9597               952.8903               993.0570
 Red. masses --      6.1451                 1.3893                 1.8572
 Frc consts  --      3.2742                 0.7432                 1.0791
 IR Inten    --     19.8243                 3.5343                 0.8569

                     43                     44                     45
                      A                      A                      A
 Frequencies --   1020.9002              1035.9666              1039.6756
 Red. masses --      9.1444                 5.4344                 2.8942
 Frc consts  --      5.6153                 3.4363                 1.8432
 IR Inten    --     15.1841                 6.5297                12.9608

                     46                     47                     48
                      A                      A                      A
 Frequencies --   1052.4144              1054.9626              1057.7373
 Red. masses --      1.8294                 2.7741                 1.7031
 Frc consts  --      1.1938                 1.8190                 1.1227
 IR Inten    --      2.2052                 7.0085                 0.9803

                     49                     50                     51
                      A                      A                      A
 Frequencies --   1078.9111              1095.0758              1106.9813
 Red. masses --      1.5046                 4.9167                 2.4706
 Frc consts  --      1.0319                 3.4739                 1.7838
 IR Inten    --      3.0344                17.1974                 1.3819

                     52                     53                     54
                      A                      A                      A
 Frequencies --   1113.8506              1150.0028              1154.2004
 Red. masses --      3.0645                 1.8011                 1.3352
 Frc consts  --      2.2401                 1.4034                 1.0480
 IR Inten    --     11.8502                14.5469                12.1955

                     55                     56                     57
                      A                      A                      A
 Frequencies --   1165.7296              1178.4209              1190.7431
 Red. masses --      1.5381                 1.3652                 1.6198
 Frc consts  --      1.2315                 1.1170                 1.3531
 IR Inten    --      7.2627                 9.0124                 3.6496

                     58                     59                     60
                      A                      A                      A
 Frequencies --   1229.5627              1294.2331              1298.6778
 Red. masses --      3.7385                 1.2381                 1.4936
 Frc consts  --      3.3300                 1.2219                 1.4842
 IR Inten    --     14.7051                24.2758                 5.6428

                     61                     62                     63
                      A                      A                      A
 Frequencies --   1306.9277              1322.0986              1333.5066
 Red. masses --      1.2480                 1.5308                 3.0352
 Frc consts  --      1.2559                 1.5765                 3.1800
 IR Inten    --      1.3676                 6.0033                10.0251

                     64                     65                     66
                      A                      A                      A
 Frequencies --   1342.4242              1355.0358              1374.2950
 Red. masses --      4.1927                 1.5504                 1.3357
 Frc consts  --      4.4516                 1.6773                 1.4863
 IR Inten    --     12.3326                 6.9209                 0.5432

                     67                     68                     69
                      A                      A                      A
 Frequencies --   1395.2476              1405.4387              1411.0735
 Red. masses --      1.5984                 1.4136                 1.4722
 Frc consts  --      1.8333                 1.6451                 1.7271
 IR Inten    --      6.0388                 0.9988                10.4291

                     70                     71                     72
                      A                      A                      A
 Frequencies --   1412.2241              1425.0382              1432.1584
 Red. masses --      1.4269                 1.6483                 1.5053
 Frc consts  --      1.6767                 1.9721                 1.8191
 IR Inten    --      1.3891                 7.6771                16.1791

                     73                     74                     75
                      A                      A                      A
 Frequencies --   1436.5125              1466.5686              1469.9594
 Red. masses --      4.9102                 1.9815                 2.4027
 Frc consts  --      5.9699                 2.5110                 3.0589
 IR Inten    --     40.4029                12.5066                71.8871

                     76                     77                     78
                      A                      A                      A
 Frequencies --   1473.7052              1503.5638              1503.9741
 Red. masses --      1.6400                 1.8466                 1.0865
 Frc consts  --      2.0985                 2.4596                 1.4480
 IR Inten    --     33.2492                12.7705                 3.3558

                     79                     80                     81
                      A                      A                      A
 Frequencies --   1511.2284              1513.5826              1519.4724
 Red. masses --      1.0434                 1.0997                 1.0899
 Frc consts  --      1.4040                 1.4844                 1.4825
 IR Inten    --      7.2189                 1.0065                 6.1422

                     82                     83                     84
                      A                      A                      A
 Frequencies --   1523.6292              1536.9683              1544.9440
 Red. masses --      1.0843                 1.0962                 2.3675
 Frc consts  --      1.4831                 1.5257                 3.3294
 IR Inten    --      8.9449                 7.7089                 0.6947

                     85                     86                     87
                      A                      A                      A
 Frequencies --   1660.5967              3021.4338              3043.7409
 Red. masses --      6.8502                 1.0687                 1.0646
 Frc consts  --     11.1296                 5.7483                 5.8111
 IR Inten    --     25.6435                31.6002                 8.5355

                     88                     89                     90
                      A                      A                      A
 Frequencies --   3045.9754              3048.0248              3059.9513
 Red. masses --      1.0676                 1.0617                 1.0370
 Frc consts  --      5.8361                 5.8115                 5.7210
 IR Inten    --     17.2569                13.9594                15.3646

                     91                     92                     93
                      A                      A                      A
 Frequencies --   3061.8666              3070.5534              3082.6818
 Red. masses --      1.0684                 1.0833                 1.0943
 Frc consts  --      5.9016                 6.0179                 6.1268
 IR Inten    --     44.1137                25.7782                53.8948

                     94                     95                     96
                      A                      A                      A
 Frequencies --   3086.8480              3093.6004              3102.2569
 Red. masses --      1.0984                 1.1053                 1.0976
 Frc consts  --      6.1664                 6.2325                 6.2237
 IR Inten    --     26.4451                50.3878                18.8319

                     97                     98                     99
                      A                      A                      A
 Frequencies --   3114.4141              3116.3007              3126.9994
 Red. masses --      1.0606                 1.1015                 1.0974
 Frc consts  --      6.0614                 6.3025                 6.3221
 IR Inten    --      2.5843                12.3617                22.3386

                    100                    101                    102
                      A                      A                      A
 Frequencies --   3154.4380              3183.7394              3303.6247
 Red. masses --      1.1015                 1.1066                 1.0989
 Frc consts  --      6.4579                 6.6084                 7.0663
 IR Inten    --      7.3200                 0.7479                 1.3757

 - Thermochemistry -
 -------------------
 Temperature   298.150 Kelvin.  Pressure   1.00000 Atm.
 Atom     1 has atomic number  6 and mass  12.00000

 Molecular mass:   279.11538 amu.
 Principal axes and moments of inertia in atomic units:
                           1         2         3
     Eigenvalues --  2478.88700********************
           X            0.99990   0.01015   0.00996
           Y           -0.00960   0.99850  -0.05386
           Z           -0.01049   0.05376   0.99850
 This molecule is an asymmetric top.
 Rotational symmetry number  1.
 Warning -- assumption of classical behavior for rotation
           may cause significant error
 Rotational temperatures (Kelvin)      0.03494     0.00855     0.00802
 Rotational constants (GHZ):           0.72804     0.17815     0.16718
 Zero-point vibrational energy     776591.3 (Joules/Mol)
                                  185.60977 (Kcal/Mol)
 Warning -- explicit consideration of  25 degrees of freedom as
           vibrations may cause significant error
 Vibrational temperatures:     19.18    39.50    52.97    74.53   137.24
          (Kelvin)            145.28   158.31   188.40   224.95   240.72
                              312.52   334.58   374.56   381.75   404.56
                              502.49   535.03   562.38   570.67   618.79
                              685.27   709.24   747.69   847.72   857.37
                              936.22   952.15  1011.43  1039.84  1049.28
                             1065.43  1096.30  1141.89  1182.49  1210.45
                             1262.96  1266.15  1278.73  1282.38  1368.22
                             1371.00  1428.79  1468.85  1490.52  1495.86
                             1514.19  1517.86  1521.85  1552.31  1575.57
                             1592.70  1602.58  1654.60  1660.64  1677.22
                             1695.48  1713.21  1769.07  1862.11  1868.51
                             1880.38  1902.21  1918.62  1931.45  1949.59
                             1977.30  2007.45  2022.11  2030.22  2031.88
                             2050.31  2060.56  2066.82  2110.07  2114.94
                             2120.33  2163.29  2163.88  2174.32  2177.71
                             2186.18  2192.16  2211.35  2222.83  2389.23
                             4347.17  4379.26  4382.48  4385.43  4402.59
                             4405.34  4417.84  4435.29  4441.29  4451.00
                             4463.46  4480.95  4483.66  4499.05  4538.53
                             4580.69  4753.18

 Zero-point correction=                           0.295788 (Hartree/Particle)
 Thermal correction to Energy=                    0.313201
 Thermal correction to Enthalpy=                  0.314145
 Thermal correction to Gibbs Free Energy=         0.247496
 Sum of electronic and zero-point Energies=          -1214.383286
 Sum of electronic and thermal Energies=             -1214.365873
 Sum of electronic and thermal Enthalpies=           -1214.364929
 Sum of electronic and thermal Free Energies=        -1214.431578

                     E (Thermal)             CV                S
                      KCal/Mol        Cal/Mol-Kelvin    Cal/Mol-Kelvin
 Total                  196.536             65.536            140.274
 Electronic               0.000              0.000              0.000
 Translational            0.889              2.981             42.778
 Rotational               0.889              2.981             33.960
 Vibrational            194.759             59.575             63.536
 Vibration     1          0.593              1.987              7.440
 Vibration     2          0.593              1.984              6.006
 Vibration     3          0.594              1.982              5.424
 Vibration     4          0.596              1.977              4.748
 Vibration     5          0.603              1.952              3.546
 Vibration     6          0.604              1.948              3.435
 Vibration     7          0.606              1.941              3.268
 Vibration     8          0.612              1.922              2.932
 Vibration     9          0.620              1.896              2.594
 Vibration    10          0.624              1.883              2.466
 Vibration    11          0.646              1.815              1.982
 Vibration    12          0.653              1.791              1.859
 Vibration    13          0.668              1.745              1.660
 Vibration    14          0.671              1.737              1.626
 Vibration    15          0.681              1.708              1.526
 Vibration    16          0.727              1.577              1.170
 Vibration    17          0.744              1.530              1.072
 Vibration    18          0.759              1.490              0.997
 Vibration    19          0.763              1.477              0.975
 Vibration    20          0.791              1.405              0.858
 Vibration    21          0.833              1.303              0.720
 Vibration    22          0.849              1.266              0.676
 Vibration    23          0.875              1.206              0.611
 Vibration    24          0.946              1.055              0.469
 Vibration    25          0.954              1.040              0.457

                           ! Non-Optimized Parameters !
 Normal termination of Gaussian 16 at Mon Dec 14 14:12:01 2020.

 ----------------------------------------------------------------------
 # B3LYP/6-311++G(d,p) empiricaldispersion=gd3bj scf=xqc pop=npa geom=c
 heck
 ----------------------------------------------------------------------

 ---------------------------------------
 CID_133873710_JID_9735_Energie_neutraal
 ---------------------------------------
 Structure from the checkpoint file:  "JID_9735.chk"
 Charge =  0 Multiplicity = 1

 SCF Done:  E(RB3LYP) =  -1214.91805055     A.U. after   16 cycles
 Normal termination of Gaussian 16 at Mon Dec 14 14:20:57 2020.

 ----------------------------------------------------------------------
 # B3LYP/6-311++G(d,p) empiricaldispersion=gd3bj scf=xqc pop=npa geom=c
 heck
 ----------------------------------------------------------------------

 -------------------------------------
 CID_133873710_JID_9735_Energie_kation
 -------------------------------------
 Structure from the checkpoint file:  "JID_9735.chk"
 Charge =  1 Multiplicity = 2

 SCF Done:  E(UB3LYP) =  -1214.59664657     A.U. after   27 cycles
 Normal termination of Gaussian 16 at Mon Dec 14 14:42:53 2020.
 Gaussian 16:  ES64L-G16RevA.03 25-Dec-2016

 ----------------------------------------------------------------------
 # B3LYP/6-311++G(d,p) empiricaldispersion=gd3bj scf=xqc pop=npa geom=c
 heck
 ----------------------------------------------------------------------

 ------------------------------------
 CID_133873710_JID_9735_Energie_anion
 ------------------------------------
 Structure from the checkpoint file:  "JID_9735.chk"
 Charge = -1 Multiplicity = 2

                         Standard orientation:
 ---------------------------------------------------------------------
 Center     Atomic      Atomic             Coordinates (Angstroms)
 Number     Number       Type             X           Y           Z
 ---------------------------------------------------------------------
      1          6           0        4.753499    2.404881   -0.335964
      2          6           0        4.141694    1.039894   -0.330096
      3          7           0        4.429493    0.182811   -1.287552
      4          8           0        3.703589   -0.977861   -0.989400
      5          6           0        2.999257   -0.776063    0.147190
      6          6           0        3.230272    0.480891    0.616448
      7          6           0        2.134791   -1.888618    0.605782
      8         16           0        0.452116   -1.874684   -0.183244
      9          6           0       -0.211610   -0.504778    0.684592
     10          7           0        0.235488    0.022410    1.815356
     11          7           0       -0.599382    1.059692    2.092319
     12          7           0       -1.520811    1.171951    1.193630
     13          7           0       -1.294056    0.195806    0.275131
     14          6           0       -2.130218   -0.035489   -0.916638
     15          6           0       -3.118395   -1.188039   -0.661154
     16          6           0       -4.267964   -0.767407    0.260316
     17          6           0       -5.016962    0.437914   -0.322784
     18          6           0       -4.070495    1.627328   -0.532339
     19          6           0       -2.845646    1.244211   -1.378245
     20          1           0        5.405082    2.520902   -1.205253
     21          1           0        3.978292    3.178365   -0.370794
     22          1           0        5.344726    2.570675    0.571457
     23          1           0        2.797357    0.938425    1.492269
     24          1           0        2.555589   -2.856277    0.323134
     25          1           0        1.985319   -1.850033    1.684442
     26          1           0       -1.416415   -0.338494   -1.690962
     27          1           0       -3.520517   -1.493492   -1.636240
     28          1           0       -2.580396   -2.053390   -0.256523
     29          1           0       -3.869508   -0.508683    1.250159
     30          1           0       -4.949321   -1.613852    0.404266
     31          1           0       -5.841765    0.728736    0.338102
     32          1           0       -5.469176    0.148561   -1.283169
     33          1           0       -3.732803    1.999787    0.438630
     34          1           0       -4.598758    2.449832   -1.029300
     35          1           0       -2.127728    2.070010   -1.417944
     36          1           0       -3.167006    1.049722   -2.410018
 ---------------------------------------------------------------------

 SCF Done:  E(UB3LYP) =  -1214.91632112     A.U. after   33 cycles
 SCF Done:  E(UB3LYP) =  -1214.91632112     a.u. after    1 cycles

 The electronic state is 2-A.
 Alpha  occ. eigenvalues --  -88.76153 -19.08186 -14.31046 -14.28118 -14.27178
 Alpha  occ. eigenvalues --  -14.23496 -14.23428 -10.17057 -10.13425 -10.11996
 Alpha  occ. eigenvalues --  -10.10898 -10.10092 -10.08582 -10.08262 -10.07782
 Alpha  occ. eigenvalues --  -10.07312 -10.07100 -10.06924 -10.05703  -7.84776
 Alpha  occ. eigenvalues --   -5.81172  -5.80782  -5.80171  -1.03708  -1.02164
 Alpha  occ. eigenvalues --   -0.85537  -0.79989  -0.76484  -0.74145  -0.71480
 Alpha  occ. eigenvalues --   -0.67107  -0.66110  -0.65654  -0.62757  -0.59398
 Alpha  occ. eigenvalues --   -0.57235  -0.54033  -0.52262  -0.50447  -0.49215
 Alpha  occ. eigenvalues --   -0.47153  -0.44900  -0.41240  -0.40421  -0.39910
 Alpha  occ. eigenvalues --   -0.38657  -0.37011  -0.35820  -0.35764  -0.34642
 Alpha  occ. eigenvalues --   -0.34230  -0.33200  -0.32295  -0.30893  -0.30355
 Alpha  occ. eigenvalues --   -0.30192  -0.29948  -0.29279  -0.28644  -0.27552
 Alpha  occ. eigenvalues --   -0.27001  -0.25929  -0.25163  -0.23359  -0.23200
 Alpha  occ. eigenvalues --   -0.22489  -0.21706  -0.20194  -0.19982  -0.19468
 Alpha  occ. eigenvalues --   -0.19200  -0.18053  -0.15055  -0.13888   0.04020
 Alpha virt. eigenvalues --    0.05815   0.07153   0.07379   0.07529   0.08193
 Alpha virt. eigenvalues --    0.08259   0.09163   0.10060   0.10155   0.10269
 Alpha virt. eigenvalues --    0.10799   0.11155   0.11282   0.11926   0.12065

  Beta  occ. eigenvalues --  -88.76076 -19.08001 -14.31034 -14.28119 -14.27172
  Beta  occ. eigenvalues --  -14.23482 -14.23216 -10.17058 -10.13407 -10.11835
  Beta  occ. eigenvalues --  -10.10737 -10.10096 -10.08583 -10.08248 -10.07744
  Beta  occ. eigenvalues --  -10.07305 -10.07078 -10.06917 -10.05652  -7.84695
  Beta  occ. eigenvalues --   -5.81031  -5.80679  -5.80115  -1.03699  -1.01843
  Beta  occ. eigenvalues --   -0.85512  -0.79934  -0.76225  -0.74102  -0.71115
  Beta  occ. eigenvalues --   -0.66933  -0.65930  -0.65612  -0.62699  -0.59138
  Beta  occ. eigenvalues --   -0.57189  -0.53916  -0.52216  -0.50364  -0.49085
  Beta  occ. eigenvalues --   -0.47060  -0.44674  -0.41190  -0.40313  -0.39797
  Beta  occ. eigenvalues --   -0.38593  -0.36494  -0.35749  -0.35522  -0.34606
  Beta  occ. eigenvalues --   -0.34079  -0.33010  -0.32043  -0.30806  -0.30260
  Beta  occ. eigenvalues --   -0.30137  -0.29797  -0.29229  -0.28498  -0.27404
  Beta  occ. eigenvalues --   -0.26869  -0.25843  -0.24821  -0.23305  -0.23156
  Beta  occ. eigenvalues --   -0.22438  -0.21649  -0.20148  -0.19938  -0.19268
  Beta  occ. eigenvalues --   -0.19074  -0.17335  -0.14319  -0.13436
  Beta virt. eigenvalues --    0.06425   0.07106   0.07623   0.07877   0.08000
  Beta virt. eigenvalues --    0.08369   0.08690   0.09318   0.10080   0.10388
  Beta virt. eigenvalues --    0.10568   0.10925   0.11194   0.11466   0.11995

 Mulliken charges and spin densities:
               1          2
     1  C   -0.643470   0.004046
     2  C    0.442595  -0.047591
     3  N   -0.395664   0.107418
     4  O    0.158671   0.033272
     5  C    0.541683   0.026326
     6  C   -0.242561   0.125524
     7  C   -1.099142   0.144560
     8  S    0.174977  -0.099397
     9  C   -0.473986  -0.157102
    10  N   -0.047643   0.027414
    11  N    0.239530  -0.038669
    12  N   -0.248617   0.018429
    13  N    0.382890  -0.037098
    14  C   -0.035521   0.216548
    15  C    0.308854  -0.814555
    16  C   -0.462040   0.281701
    17  C    0.744440  -1.216378
    18  C   -0.414507   0.142549
    19  C   -0.181040  -0.370917
    20  H    0.142870  -0.000344
    21  H    0.143462   0.000121
    22  H    0.140743  -0.000583
    23  H    0.176891  -0.001500
    24  H    0.259330  -0.003247
    25  H    0.224975   0.007386
    26  H    0.004365   0.211432
    27  H   -0.425921   0.597044
    28  H   -0.204740   0.346076
    29  H    0.128512   0.015381
    30  H   -0.099488   0.283604
    31  H   -0.118674   0.277952
    32  H   -0.116956   0.253598
    33  H    0.192883  -0.029484
    34  H   -0.113770   0.279311
    35  H    0.167294  -0.000395
    36  H   -0.251225   0.417566
 Sum of Mulliken charges =  -1.00000   1.00000

 Dipole moment (field-independent basis, Debye):
    X=              2.8716    Y=              0.9017    Z=              2.6413  Tot=              4.0044
 Quadrupole moment (field-independent basis, Debye-Ang):
   XX=           -213.4349   YY=           -142.3114   ZZ=           -157.8777
   XY=              2.4143   XZ=             -1.4541   YZ=             -6.9633

 Summary of Natural Population Analysis:

                                       Natural Population
                Natural  -----------------------------------------------
    Atom  No    Charge         Core      Valence    Rydberg      Total
 -----------------------------------------------------------------------
      C    1   -0.29711      0.99963     2.29339    0.00409     3.29711
      C    2    0.07054      0.99963     1.91667    0.01316     2.92946
      N    3   -0.06836      0.99966     2.55465    0.01405     3.56836
      O    4   -0.15907      0.99985     3.14908    0.01013     4.15907
      C    5    0.18758      0.99948     1.79900    0.01394     2.81242
      C    6   -0.16570      0.99943     2.15878    0.00748     3.16570
      C    7   -0.24115      0.99952     2.23250    0.00912     3.24115
      S    8    0.15921      4.99955     2.81869    0.02255     7.84079
      C    9    0.10425      0.99956     1.87368    0.02252     2.89575
      N   10   -0.18546      0.99967     2.67275    0.01304     3.68546
      N   11   -0.04207      0.99981     2.52468    0.01758     3.54207
      N   12   -0.04790      0.99977     2.53424    0.01389     3.54790
      N   13   -0.12716      0.99957     2.61204    0.01556     3.62716
      C   14   -0.00633      0.99957     1.99318    0.01359     3.00633
      C   15   -0.19340      0.99960     2.18450    0.00930     3.19340
      C   16   -0.19390      0.99962     2.18547    0.00880     3.19390
      C   17   -0.18954      0.99963     2.18164    0.00827     3.18954
      C   18   -0.19559      0.99962     2.18719    0.00878     3.19559
      C   19   -0.19288      0.99961     2.18424    0.00903     3.19288
      H   20    0.10691      0.00000     0.39207    0.00101     0.39309
      H   21    0.10327      0.00000     0.39579    0.00094     0.39673
      H   22    0.10093      0.00000     0.39809    0.00097     0.39907
      H   23    0.11734      0.00000     0.38164    0.00102     0.38266
      H   24    0.11200      0.00000     0.38699    0.00101     0.38800
      H   25    0.11929      0.00000     0.37951    0.00120     0.38071
      H   26    0.11253      0.00000     0.38537    0.00209     0.38747
      H   27    0.10347      0.00000     0.39446    0.00207     0.39653
      H   28    0.10735      0.00000     0.39122    0.00143     0.39265
      H   29    0.09651      0.00000     0.40183    0.00166     0.40349
      H   30    0.10053      0.00000     0.39857    0.00090     0.39947
      H   31    0.09758      0.00000     0.40158    0.00084     0.40242
      H   32    0.09436      0.00000     0.40399    0.00165     0.40564
      H   33    0.10560      0.00000     0.39224    0.00215     0.39440
      H   34    0.09751      0.00000     0.40162    0.00087     0.40249
      H   35    0.10513      0.00000     0.39380    0.00107     0.39487
      H   36    0.10373      0.00000     0.39506    0.00121     0.39627
 =======================================================================
   * Total *   -0.00000     22.99279    50.75021    0.25700    74.00000

 Normal termination of Gaussian 16 at Mon Dec 14 15:08:22 2020.
