 Gaussian 16, Revision A.03,

 -----------------------------------------------------------
 # opt freq B3LYP/6-31G(d) empiricaldispersion=gd3bj scf=xqc
 -----------------------------------------------------------

 -------------------------------
 CID_87445093_JID_10459_neutraal
 -------------------------------
 Symbolic Z-matrix:
 Charge =  0 Multiplicity = 1

 SCF Done:  E(RB3LYP) =  -898.015416660     A.U. after   15 cycles
 SCF Done:  E(RB3LYP) =  -898.026770218     A.U. after   13 cycles
 SCF Done:  E(RB3LYP) =  -898.028852713     A.U. after   13 cycles
 SCF Done:  E(RB3LYP) =  -898.030174388     A.U. after   13 cycles
 SCF Done:  E(RB3LYP) =  -898.031084120     A.U. after   15 cycles
 SCF Done:  E(RB3LYP) =  -898.031624742     A.U. after   12 cycles
 SCF Done:  E(RB3LYP) =  -898.031968082     A.U. after   12 cycles
 SCF Done:  E(RB3LYP) =  -898.032079083     A.U. after   11 cycles
 SCF Done:  E(RB3LYP) =  -898.032062013     A.U. after   11 cycles
 SCF Done:  E(RB3LYP) =  -898.032091246     A.U. after   12 cycles
 SCF Done:  E(RB3LYP) =  -898.032130466     A.U. after    9 cycles
 SCF Done:  E(RB3LYP) =  -898.032130827     A.U. after    9 cycles
 SCF Done:  E(RB3LYP) =  -898.032131106     A.U. after   10 cycles
 SCF Done:  E(RB3LYP) =  -898.032131218     A.U. after    8 cycles
 SCF Done:  E(RB3LYP) =  -898.032131215     A.U. after    7 cycles
 SCF Done:  E(RB3LYP) =  -898.032131226     A.U. after    7 cycles
 Optimization completed.
    -- Stationary point found.
 Normal termination of Gaussian 16 at Mon Dec 14 13:53:15 2020.

 --------------------------------------------------------------------
 #N Geom=AllCheck Guess=TCheck SCRF=Check GenChk RB3LYP/6-31G(d) Freq
 --------------------------------------------------------------------

 Structure from the checkpoint file:  "JID_10459.chk"
 -------------------------------
 CID_87445093_JID_10459_neutraal
 -------------------------------
 Charge =  0 Multiplicity = 1

 SCF Done:  E(RB3LYP) =  -898.032131226     A.U. after    1 cycles

  Exact polarizability: 284.859  -9.544 184.816  15.786   1.673 111.654
 Approx polarizability: 383.771 -26.382 338.009  30.130   1.666 195.618

                      1                      2                      3
                      A                      A                      A
 Frequencies --     14.7160                18.0033                24.9947
 Red. masses --      4.9371                 5.6845                 4.2152
 Frc consts  --      0.0006                 0.0011                 0.0016
 IR Inten    --      0.0429                 0.6051                 0.1687

                      4                      5                      6
                      A                      A                      A
 Frequencies --     54.7310                73.5288                85.7881
 Red. masses --      7.9346                 5.9584                 5.6389
 Frc consts  --      0.0140                 0.0190                 0.0245
 IR Inten    --      1.5037                 0.1536                 0.0127

                      7                      8                      9
                      A                      A                      A
 Frequencies --    132.5748               138.2498               144.4852
 Red. masses --      4.5653                 5.5804                 3.6262
 Frc consts  --      0.0473                 0.0628                 0.0446
 IR Inten    --      0.5395                 0.1631                 1.2768

                     10                     11                     12
                      A                      A                      A
 Frequencies --    198.1040               242.1638               264.4048
 Red. masses --      8.7358                 4.2825                 4.7700
 Frc consts  --      0.2020                 0.1480                 0.1965
 IR Inten    --      0.3479                 3.4306                 3.6090

                     13                     14                     15
                      A                      A                      A
 Frequencies --    291.9189               319.1590               361.0707
 Red. masses --      4.0664                 7.6988                 6.0366
 Frc consts  --      0.2042                 0.4620                 0.4637
 IR Inten    --      0.2800                 1.3949                 3.6738

                     16                     17                     18
                      A                      A                      A
 Frequencies --    375.5317               395.8808               412.1615
 Red. masses --      1.4821                 2.7888                 2.9239
 Frc consts  --      0.1231                 0.2575                 0.2927
 IR Inten    --    179.1314                55.2409                 0.1800

                     19                     20                     21
                      A                      A                      A
 Frequencies --    436.3949               475.2769               488.8656
 Red. masses --      3.7405                 3.0483                 1.3007
 Frc consts  --      0.4197                 0.4057                 0.1831
 IR Inten    --      3.2423                 3.5283                44.2846

                     22                     23                     24
                      A                      A                      A
 Frequencies --    500.5484               540.2365               549.9372
 Red. masses --      2.8473                 3.2670                 5.3474
 Frc consts  --      0.4203                 0.5618                 0.9528
 IR Inten    --      5.3865                 1.2838                15.8811

                     25                     26                     27
                      A                      A                      A
 Frequencies --    559.1592               590.7192               631.2905
 Red. masses --      6.0468                 6.5319                 6.7437
 Frc consts  --      1.1139                 1.3429                 1.5835
 IR Inten    --     15.1838                22.5740                 5.7065

                     28                     29                     30
                      A                      A                      A
 Frequencies --    635.8326               680.8384               688.4145
 Red. masses --      6.4208                 4.8782                 5.2673
 Frc consts  --      1.5294                 1.3323                 1.4708
 IR Inten    --      0.4735                 2.9552                22.0107

                     31                     32                     33
                      A                      A                      A
 Frequencies --    699.9078               709.7177               756.7253
 Red. masses --      3.8662                 1.9672                 2.7513
 Frc consts  --      1.1159                 0.5838                 0.9283
 IR Inten    --     22.5195                23.3944                43.3265

                     34                     35                     36
                      A                      A                      A
 Frequencies --    774.9177               782.2511               841.2473
 Red. masses --      1.7712                 1.9485                 4.4647
 Frc consts  --      0.6267                 0.7025                 1.8616
 IR Inten    --     48.4426                28.1814                10.3088

                     37                     38                     39
                      A                      A                      A
 Frequencies --    852.9694               856.9214               863.7417
 Red. masses --      1.3413                 1.6279                 4.1414
 Frc consts  --      0.5749                 0.7043                 1.8204
 IR Inten    --      0.5303                10.8617                12.4863

                     40                     41                     42
                      A                      A                      A
 Frequencies --    874.9005               887.3058               903.7946
 Red. masses --      4.1744                 4.3412                 2.8748
 Frc consts  --      1.8826                 2.0137                 1.3836
 IR Inten    --      3.0875                64.1765                11.6094

                     43                     44                     45
                      A                      A                      A
 Frequencies --    934.7688               969.2370               969.6009
 Red. masses --      1.4503                 1.3280                 1.3554
 Frc consts  --      0.7467                 0.7350                 0.7508
 IR Inten    --      0.4092                 1.0338                 0.0950

                     46                     47                     48
                      A                      A                      A
 Frequencies --    984.7076               999.9808              1019.9865
 Red. masses --      1.2729                 1.2662                 6.1332
 Frc consts  --      0.7272                 0.7460                 3.7595
 IR Inten    --      0.4079                 0.8610                80.7603

                     49                     50                     51
                      A                      A                      A
 Frequencies --   1026.0738              1032.6027              1060.6721
 Red. masses --      7.6468                 1.1619                 2.1942
 Frc consts  --      4.7434                 0.7299                 1.4544
 IR Inten    --    780.6055                29.1277                 0.8077

                     52                     53                     54
                      A                      A                      A
 Frequencies --   1066.0949              1092.5201              1116.3793
 Red. masses --      2.0827                 1.8078                 1.6326
 Frc consts  --      1.3947                 1.2713                 1.1988
 IR Inten    --    306.0974                 1.7372                12.0538

                     55                     56                     57
                      A                      A                      A
 Frequencies --   1172.9023              1193.7133              1196.8876
 Red. masses --      1.5005                 2.0940                 1.1077
 Frc consts  --      1.2163                 1.7581                 0.9349
 IR Inten    --    198.0496               479.8462                 9.6108

                     58                     59                     60
                      A                      A                      A
 Frequencies --   1205.2480              1218.7096              1247.6460
 Red. masses --      1.2946                 1.1547                 2.0031
 Frc consts  --      1.1080                 1.0105                 1.8371
 IR Inten    --    201.8545                 7.5238                34.1004

                     61                     62                     63
                      A                      A                      A
 Frequencies --   1279.0557              1305.4094              1306.9978
 Red. masses --      4.0101                 2.0315                 1.9739
 Frc consts  --      3.8653                 2.0397                 1.9866
 IR Inten    --     47.5893                 5.5760                24.5586

                     64                     65                     66
                      A                      A                      A
 Frequencies --   1342.7985              1366.2042              1375.0962
 Red. masses --      1.7162                 1.8397                 3.3062
 Frc consts  --      1.8232                 2.0232                 3.6833
 IR Inten    --      3.6431                78.8175                 3.0649

                     67                     68                     69
                      A                      A                      A
 Frequencies --   1379.1337              1393.5260              1499.8101
 Red. masses --      1.3197                 5.3041                 2.2783
 Frc consts  --      1.4789                 6.0686                 3.0196
 IR Inten    --     11.9869                 7.2180                28.7574

                     70                     71                     72
                      A                      A                      A
 Frequencies --   1510.0997              1540.7039              1548.2323
 Red. masses --      2.7308                 2.4358                 2.2098
 Frc consts  --      3.6691                 3.4067                 3.1209
 IR Inten    --     77.3107                64.5226                 3.2464

                     73                     74                     75
                      A                      A                      A
 Frequencies --   1622.8434              1636.8232              1663.1005
 Red. masses --      4.8278                 5.1297                 5.1378
 Frc consts  --      7.4913                 8.0973                 8.3727
 IR Inten    --     23.7321                 9.7586                16.5921

                     76                     77                     78
                      A                      A                      A
 Frequencies --   1663.1553              1683.7443              1699.4044
 Red. masses --      1.8441                 2.4276                 5.5028
 Frc consts  --      3.0053                 4.0548                 9.3633
 IR Inten    --     80.6300               167.5074               115.1094

                     79                     80                     81
                      A                      A                      A
 Frequencies --   1799.8705              1863.5359              3175.0205
 Red. masses --     12.7473                12.2374                 1.0872
 Frc consts  --     24.3304                25.0389                 6.4574
 IR Inten    --    176.3325               540.7788                10.6864

                     82                     83                     84
                      A                      A                      A
 Frequencies --   3183.5250              3188.5072              3192.5896
 Red. masses --      1.0876                 1.0881                 1.0873
 Frc consts  --      6.4945                 6.5178                 6.5293
 IR Inten    --      1.2899                 8.2960                 0.2304

                     85                     86                     87
                      A                      A                      A
 Frequencies --   3195.8544              3201.9092              3210.4088
 Red. masses --      1.0912                 1.0904                 1.0939
 Frc consts  --      6.5665                 6.5868                 6.6427
 IR Inten    --     19.5048                15.4996                23.0022

                     88                     89                     90
                      A                      A                      A
 Frequencies --   3213.8883              3217.6568              3224.1019
 Red. masses --      1.0918                 1.0972                 1.0899
 Frc consts  --      6.6443                 6.6927                 6.6752
 IR Inten    --     14.1998                12.5079                14.5296

                     91                     92                     93
                      A                      A                      A
 Frequencies --   3231.4917              3597.6224              3714.4689
 Red. masses --      1.0942                 1.0459                 1.1018
 Frc consts  --      6.7319                 7.9761                 8.9570
 IR Inten    --      8.6661                76.9034                88.3247

 - Thermochemistry -
 -------------------
 Temperature   298.150 Kelvin.  Pressure   1.00000 Atm.
 Atom     1 has atomic number  6 and mass  12.00000

 Molecular mass:   267.08954 amu.
 Principal axes and moments of inertia in atomic units:
                           1         2         3
     Eigenvalues --  2514.99990********************
           X            0.99999   0.00423   0.00044
           Y           -0.00423   0.99999  -0.00131
           Z           -0.00045   0.00131   1.00000
 This molecule is an asymmetric top.
 Rotational symmetry number  1.
 Warning -- assumption of classical behavior for rotation
           may cause significant error
 Rotational temperatures (Kelvin)      0.03444     0.00687     0.00618
 Rotational constants (GHZ):           0.71759     0.14311     0.12878
 Zero-point vibrational energy     673878.6 (Joules/Mol)
                                  161.06085 (Kcal/Mol)
 Warning -- explicit consideration of  26 degrees of freedom as
           vibrations may cause significant error
 Vibrational temperatures:     21.17    25.90    35.96    78.75   105.79
          (Kelvin)            123.43   190.75   198.91   207.88   285.03
                              348.42   380.42   420.01   459.20   519.50
                              540.31   569.58   593.01   627.87   683.82
                              703.37   720.18   777.28   791.24   804.51
                              849.91   908.29   914.82   979.57   990.47
                             1007.01  1021.13  1088.76  1114.93  1125.48
                             1210.37  1227.23  1232.92  1242.73  1258.79
                             1276.64  1300.36  1344.92  1394.52  1395.04
                             1416.77  1438.75  1467.53  1476.29  1485.69
                             1526.07  1533.87  1571.89  1606.22  1687.54
                             1717.49  1722.05  1734.08  1753.45  1795.08
                             1840.28  1878.19  1880.48  1931.99  1965.66
                             1978.46  1984.27  2004.97  2157.89  2172.70
                             2216.73  2227.56  2334.91  2355.02  2392.83
                             2392.91  2422.53  2445.06  2589.61  2681.21
                             4568.15  4580.38  4587.55  4593.42  4598.12
                             4606.83  4619.06  4624.07  4629.49  4638.76
                             4649.40  5176.18  5344.29

 Zero-point correction=                           0.256667 (Hartree/Particle)
 Thermal correction to Energy=                    0.273981
 Thermal correction to Enthalpy=                  0.274925
 Thermal correction to Gibbs Free Energy=         0.207867
 Sum of electronic and zero-point Energies=           -897.775464
 Sum of electronic and thermal Energies=              -897.758150
 Sum of electronic and thermal Enthalpies=            -897.757206
 Sum of electronic and thermal Free Energies=         -897.824264

                     E (Thermal)             CV                S
                      KCal/Mol        Cal/Mol-Kelvin    Cal/Mol-Kelvin
 Total                  171.926             66.222            141.135
 Electronic               0.000              0.000              0.000
 Translational            0.889              2.981             42.646
 Rotational               0.889              2.981             34.451
 Vibrational            170.148             60.260             64.037
 Vibration     1          0.593              1.986              7.244
 Vibration     2          0.593              1.986              6.843
 Vibration     3          0.593              1.985              6.192
 Vibration     4          0.596              1.976              4.639
 Vibration     5          0.599              1.966              4.057
 Vibration     6          0.601              1.959              3.754
 Vibration     7          0.613              1.921              2.908
 Vibration     8          0.614              1.915              2.828
 Vibration     9          0.616              1.909              2.744
 Vibration    10          0.637              1.843              2.151
 Vibration    11          0.658              1.776              1.787
 Vibration    12          0.671              1.738              1.633
 Vibration    13          0.687              1.689              1.463
 Vibration    14          0.705              1.637              1.314
 Vibration    15          0.735              1.552              1.117
 Vibration    16          0.746              1.522              1.057
 Vibration    17          0.763              1.479              0.978
 Vibration    18          0.776              1.444              0.919
 Vibration    19          0.797              1.391              0.838
 Vibration    20          0.832              1.305              0.723
 Vibration    21          0.845              1.275              0.687
 Vibration    22          0.856              1.249              0.657
 Vibration    23          0.895              1.161              0.565
 Vibration    24          0.905              1.140              0.544
 Vibration    25          0.915              1.120              0.526
 Vibration    26          0.948              1.052              0.466

                           ! Non-Optimized Parameters !
 Normal termination of Gaussian 16 at Mon Dec 14 14:07:18 2020.

 ----------------------------------------------------------------------
 # B3LYP/6-311++G(d,p) empiricaldispersion=gd3bj scf=xqc pop=npa geom=c
 heck
 ----------------------------------------------------------------------

 ---------------------------------------
 CID_87445093_JID_10459_Energie_neutraal
 ---------------------------------------
 Structure from the checkpoint file:  "JID_10459.chk"
 Charge =  0 Multiplicity = 1

 SCF Done:  E(RB3LYP) =  -898.282629745     A.U. after   17 cycles
 Normal termination of Gaussian 16 at Mon Dec 14 14:13:56 2020.

 ----------------------------------------------------------------------
 # B3LYP/6-311++G(d,p) empiricaldispersion=gd3bj scf=xqc pop=npa geom=c
 heck
 ----------------------------------------------------------------------

 -------------------------------------
 CID_87445093_JID_10459_Energie_kation
 -------------------------------------
 Structure from the checkpoint file:  "JID_10459.chk"
 Charge =  1 Multiplicity = 2

 SCF Done:  E(UB3LYP) =  -897.995278249     A.U. after   27 cycles
 Normal termination of Gaussian 16 at Mon Dec 14 14:29:39 2020.
 Gaussian 16:  ES64L-G16RevA.03 25-Dec-2016

 ----------------------------------------------------------------------
 # B3LYP/6-311++G(d,p) empiricaldispersion=gd3bj scf=xqc pop=npa geom=c
 heck
 ----------------------------------------------------------------------

 ------------------------------------
 CID_87445093_JID_10459_Energie_anion
 ------------------------------------
 Structure from the checkpoint file:  "JID_10459.chk"
 Charge = -1 Multiplicity = 2

                         Standard orientation:
 ---------------------------------------------------------------------
 Center     Atomic      Atomic             Coordinates (Angstroms)
 Number     Number       Type             X           Y           Z
 ---------------------------------------------------------------------
      1          6           0        5.949402   -1.222483   -0.329098
      2          6           0        5.727324    0.037277    0.236512
      3          6           0        4.436555    0.540823    0.342352
      4          6           0        3.335971   -0.206918   -0.116934
      5          6           0        3.575711   -1.471966   -0.681393
      6          6           0        4.869205   -1.976309   -0.788185
      7          6           0        1.957825    0.268767   -0.033214
      8          6           0        1.534719    1.459015    0.435959
      9          6           0        0.129594    1.874692    0.470465
     10          8           0       -0.264557    2.967785    0.783736
     11          8           0       -0.739891    0.815763    0.170182
     12          6           0       -1.942855    1.069988   -0.507205
     13          8           0       -2.037247    1.996607   -1.272282
     14          6           0       -2.980543    0.057960   -0.240547
     15          6           0       -4.130933    0.166522   -1.049372
     16          6           0       -5.194005   -0.709610   -0.936955
     17          6           0       -5.120439   -1.735696    0.016227
     18          6           0       -4.009012   -1.865444    0.829031
     19          6           0       -2.911638   -0.978971    0.733495
     20          7           0       -1.870178   -1.139846    1.615062
     21          1           0        6.960065   -1.611777   -0.410068
     22          1           0        6.565899    0.626683    0.595559
     23          1           0        4.279572    1.519230    0.784904
     24          1           0        2.733664   -2.057964   -1.040886
     25          1           0        5.033804   -2.955011   -1.229130
     26          1           0        1.203203   -0.422441   -0.401558
     27          1           0        2.217125    2.219633    0.800157
     28          1           0       -4.147036    0.972708   -1.774364
     29          1           0       -6.065967   -0.605219   -1.573926
     30          1           0       -5.941099   -2.439926    0.123977
     31          1           0       -3.967605   -2.658491    1.571867
     32          1           0       -1.806601   -2.026370    2.092692
     33          1           0       -1.001501   -0.669263    1.415421
 ---------------------------------------------------------------------

 SCF Done:  E(UB3LYP) =  -898.322926363     A.U. after   23 cycles

 The electronic state is 2-A.
 Alpha  occ. eigenvalues --  -19.04230 -18.98797 -18.95805 -14.22570 -10.18219
 Alpha  occ. eigenvalues --  -10.14775 -10.13403 -10.08804 -10.08398 -10.08082
 Alpha  occ. eigenvalues --  -10.07887 -10.07500 -10.06409 -10.06279 -10.05943
 Alpha  occ. eigenvalues --  -10.05649 -10.05598 -10.05355 -10.03777 -10.03161
 Alpha  occ. eigenvalues --   -0.98768  -0.91899  -0.87869  -0.83369  -0.75063
 Alpha  occ. eigenvalues --   -0.74440  -0.67634  -0.66788  -0.64148  -0.63512
 Alpha  occ. eigenvalues --   -0.62086  -0.56647  -0.52584  -0.51787  -0.50089
 Alpha  occ. eigenvalues --   -0.48961  -0.45788  -0.44370  -0.43288  -0.40299
 Alpha  occ. eigenvalues --   -0.40178  -0.37308  -0.37098  -0.36592  -0.34962
 Alpha  occ. eigenvalues --   -0.34333  -0.33833  -0.33482  -0.32105  -0.31595
 Alpha  occ. eigenvalues --   -0.31026  -0.30700  -0.29912  -0.28034  -0.27257
 Alpha  occ. eigenvalues --   -0.26449  -0.25981  -0.25360  -0.24864  -0.23517
 Alpha  occ. eigenvalues --   -0.22727  -0.22426  -0.19355  -0.18560  -0.16951
 Alpha  occ. eigenvalues --   -0.16400  -0.14770  -0.13638  -0.11944  -0.11385
 Alpha  occ. eigenvalues --    0.01222
 Alpha virt. eigenvalues --    0.04566   0.06317   0.07340   0.07685   0.08664
 Alpha virt. eigenvalues --    0.08875   0.09136   0.09534   0.10043   0.11070
 Alpha virt. eigenvalues --    0.11401   0.11907   0.12025   0.13223   0.13811

  Beta  occ. eigenvalues --  -19.04260 -18.98692 -18.95439 -14.22557 -10.18118
  Beta  occ. eigenvalues --  -10.14612 -10.13375 -10.08726 -10.08402 -10.08081
  Beta  occ. eigenvalues --  -10.07822 -10.07528 -10.06481 -10.06319 -10.05925
  Beta  occ. eigenvalues --  -10.05539 -10.05377 -10.05196 -10.03458 -10.03046
  Beta  occ. eigenvalues --   -0.98623  -0.91568  -0.87481  -0.83323  -0.74991
  Beta  occ. eigenvalues --   -0.74204  -0.67260  -0.66517  -0.64079  -0.63326
  Beta  occ. eigenvalues --   -0.61709  -0.56335  -0.52177  -0.51665  -0.49918
  Beta  occ. eigenvalues --   -0.48809  -0.45530  -0.44206  -0.43249  -0.40208
  Beta  occ. eigenvalues --   -0.40008  -0.37140  -0.36918  -0.36427  -0.34768
  Beta  occ. eigenvalues --   -0.34206  -0.33696  -0.33412  -0.31849  -0.31415
  Beta  occ. eigenvalues --   -0.30877  -0.30482  -0.29632  -0.27636  -0.27085
  Beta  occ. eigenvalues --   -0.25919  -0.25670  -0.25084  -0.24284  -0.23329
  Beta  occ. eigenvalues --   -0.22485  -0.22317  -0.18719  -0.17257  -0.16650
  Beta  occ. eigenvalues --   -0.16070  -0.14237  -0.13310  -0.11803  -0.09968
  Beta virt. eigenvalues --    0.05139   0.06308   0.06845   0.07322   0.07679
  Beta virt. eigenvalues --    0.08699   0.08922   0.09153   0.09792   0.10035
  Beta virt. eigenvalues --    0.11116   0.11393   0.11909   0.13056   0.13548

 Mulliken charges and spin densities:
               1          2
     1  C   -0.405553   0.175480
     2  C   -0.473721  -0.047658
     3  C   -1.081713   0.127113
     4  C    1.132776  -0.015680
     5  C    0.045066   0.103921
     6  C   -0.206206  -0.020276
     7  C    0.038730   0.224979
     8  C   -0.105171   0.062644
     9  C    0.001423   0.121960
    10  O   -0.310433   0.126379
    11  O   -0.074732  -0.012001
    12  C   -0.574854   0.047389
    13  O   -0.249917   0.040229
    14  C    1.740909  -0.039978
    15  C   -0.002648   0.058894
    16  C   -0.472168  -0.021005
    17  C   -0.314667   0.064388
    18  C   -0.481664   0.007460
    19  C   -0.750822   0.052012
    20  N   -0.311004   0.002401
    21  H    0.103138  -0.013293
    22  H    0.139545   0.003681
    23  H    0.055885  -0.008949
    24  H    0.118362  -0.003097
    25  H    0.126039   0.001230
    26  H    0.062161  -0.022164
    27  H    0.143504  -0.007301
    28  H    0.171702  -0.003961
    29  H    0.135129   0.001546
    30  H    0.126804  -0.004513
    31  H    0.117190  -0.000702
    32  H    0.229687   0.001912
    33  H    0.327224  -0.003037
 Sum of Mulliken charges =  -1.00000   1.00000

 Dipole moment (field-independent basis, Debye):
    X=             -2.3595    Y=             -6.7310    Z=              1.0424  Tot=              7.2083
 Quadrupole moment (field-independent basis, Debye-Ang):
   XX=           -172.1745   YY=           -142.3057   ZZ=           -127.8814
   XY=             12.2942   XZ=              0.6605   YZ=             -2.6861

 Summary of Natural Population Analysis:

                                       Natural Population
                Natural  -----------------------------------------------
    Atom  No    Charge         Core      Valence    Rydberg      Total
 -----------------------------------------------------------------------
      C    1   -0.06782      0.99958     2.05857    0.00968     3.06782
      C    2   -0.12400      0.99958     2.11519    0.00924     3.12400
      C    3   -0.05695      0.99953     2.04945    0.00796     3.05695
      C    4   -0.03744      0.99951     2.02906    0.00887     3.03744
      C    5   -0.06737      0.99954     2.05944    0.00840     3.06737
      C    6   -0.12129      0.99957     2.11240    0.00932     3.12129
      C    7   -0.01038      0.99953     2.00254    0.00831     3.01038
      C    8   -0.13283      0.99948     2.12517    0.00817     3.13283
      C    9    0.40520      0.99963     1.57169    0.02348     2.59480
      O   10   -0.25360      0.99987     3.24791    0.00583     4.25360
      O   11   -0.32545      0.99985     3.31478    0.01081     4.32545
      C   12    0.41723      0.99961     1.55978    0.02338     2.58277
      O   13   -0.27910      0.99987     3.27367    0.00557     4.27910
      C   14   -0.10966      0.99943     2.10162    0.00861     3.10966
      C   15   -0.05277      0.99956     2.04462    0.00859     3.05277
      C   16   -0.14128      0.99957     2.13203    0.00968     3.14128
      C   17   -0.07279      0.99958     2.06416    0.00905     3.07279
      C   18   -0.13485      0.99954     2.12660    0.00871     3.13485
      C   19    0.11395      0.99950     1.87627    0.01028     2.88605
      N   20   -0.38759      0.99970     2.88019    0.00770     3.88759
      H   21    0.08963      0.00000     0.40936    0.00101     0.41037
      H   22    0.09321      0.00000     0.40578    0.00101     0.40679
      H   23    0.09559      0.00000     0.40306    0.00136     0.40441
      H   24    0.09335      0.00000     0.40527    0.00138     0.40665
      H   25    0.09298      0.00000     0.40598    0.00104     0.40702
      H   26    0.09184      0.00000     0.40665    0.00151     0.40816
      H   27    0.09522      0.00000     0.40341    0.00137     0.40478
      H   28    0.11111      0.00000     0.38775    0.00114     0.38889
      H   29    0.09703      0.00000     0.40199    0.00098     0.40297
      H   30    0.09391      0.00000     0.40512    0.00097     0.40609
      H   31    0.09303      0.00000     0.40535    0.00162     0.40697
      H   32    0.18179      0.00000     0.31691    0.00130     0.31821
      H   33    0.21014      0.00000     0.28850    0.00136     0.28986
 =======================================================================
   * Total *   -0.00000     19.99202    49.79026    0.21771    70.00000

 Normal termination of Gaussian 16 at Mon Dec 14 14:42:30 2020.
