 Gaussian 16, Revision A.03,

 -----------------------------------------------------------
 # opt freq B3LYP/6-31G(d) empiricaldispersion=gd3bj scf=xqc
 -----------------------------------------------------------

 ------------------------------
 CID_54989549_JID_9043_neutraal
 ------------------------------
 Symbolic Z-matrix:
 Charge =  0 Multiplicity = 1

 SCF Done:  E(RB3LYP) =  -876.947170600     A.U. after   15 cycles
 SCF Done:  E(RB3LYP) =  -876.959333865     A.U. after   12 cycles
 SCF Done:  E(RB3LYP) =  -876.961732657     A.U. after   13 cycles
 SCF Done:  E(RB3LYP) =  -876.963163802     A.U. after   14 cycles
 SCF Done:  E(RB3LYP) =  -876.963439305     A.U. after   12 cycles
 SCF Done:  E(RB3LYP) =  -876.963638696     A.U. after   12 cycles
 SCF Done:  E(RB3LYP) =  -876.964218613     A.U. after   12 cycles
 SCF Done:  E(RB3LYP) =  -876.964395550     A.U. after   11 cycles
 SCF Done:  E(RB3LYP) =  -876.964591492     A.U. after   12 cycles
 SCF Done:  E(RB3LYP) =  -876.964754615     A.U. after   13 cycles
 SCF Done:  E(RB3LYP) =  -876.967772376     A.U. after    7 cycles
 SCF Done:  E(RB3LYP) =  -876.967793252     A.U. after   11 cycles
 SCF Done:  E(RB3LYP) =  -876.967794878     A.U. after    8 cycles
 SCF Done:  E(RB3LYP) =  -876.967795557     A.U. after    8 cycles
 SCF Done:  E(RB3LYP) =  -876.967795661     A.U. after    8 cycles
 Optimization completed.
    -- Stationary point found.
 Normal termination of Gaussian 16 at Sat Dec 12 10:11:49 2020.

 --------------------------------------------------------------------
 #N Geom=AllCheck Guess=TCheck SCRF=Check GenChk RB3LYP/6-31G(d) Freq
 --------------------------------------------------------------------

 Structure from the checkpoint file:  "JID_9043.chk"
 ------------------------------
 CID_54989549_JID_9043_neutraal
 ------------------------------
 Charge =  0 Multiplicity = 1

 SCF Done:  E(RB3LYP) =  -876.967795661     A.U. after    1 cycles

  Exact polarizability: 226.404   7.855 176.979  -9.254  -6.452 111.540
 Approx polarizability: 331.816  20.815 265.520 -24.936 -17.399 170.635

                      1                      2                      3
                      A                      A                      A
 Frequencies --     32.4711                56.8299                62.3171
 Red. masses --      4.3580                 4.7579                 5.2161
 Frc consts  --      0.0027                 0.0091                 0.0119
 IR Inten    --      0.6062                 1.0712                 2.3298

                      4                      5                      6
                      A                      A                      A
 Frequencies --     72.2334                82.0524                87.9631
 Red. masses --      4.2706                 2.9945                 5.1845
 Frc consts  --      0.0131                 0.0119                 0.0236
 IR Inten    --      3.2847                 0.2100                 2.1464

                      7                      8                      9
                      A                      A                      A
 Frequencies --    110.2118               149.9349               160.0765
 Red. masses --      3.3063                 3.8385                 2.9712
 Frc consts  --      0.0237                 0.0508                 0.0449
 IR Inten    --      5.7242                 1.0081                 1.6194

                     10                     11                     12
                      A                      A                      A
 Frequencies --    190.2257               195.5787               228.6380
 Red. masses --      2.1238                 1.6352                 3.1718
 Frc consts  --      0.0453                 0.0369                 0.0977
 IR Inten    --      0.3914                 4.7435                 4.4130

                     13                     14                     15
                      A                      A                      A
 Frequencies --    249.4637               264.3884               265.5224
 Red. masses --      1.1166                 3.0194                 2.3411
 Frc consts  --      0.0409                 0.1244                 0.0972
 IR Inten    --     34.2007                 1.6218                 1.2912

                     16                     17                     18
                      A                      A                      A
 Frequencies --    274.1381               284.6765               361.2059
 Red. masses --      3.4428                 4.1091                 4.4242
 Frc consts  --      0.1524                 0.1962                 0.3401
 IR Inten    --      4.9090                 4.6674                 7.8356

                     19                     20                     21
                      A                      A                      A
 Frequencies --    365.0101               426.6171               442.5204
 Red. masses --      3.8075                 3.3911                 3.8728
 Frc consts  --      0.2989                 0.3636                 0.4468
 IR Inten    --      3.7986                17.2430                10.7965

                     22                     23                     24
                      A                      A                      A
 Frequencies --    459.4444               468.2026               497.7712
 Red. masses --      3.0865                 2.6235                 1.8112
 Frc consts  --      0.3839                 0.3388                 0.2644
 IR Inten    --      9.1614                11.4737                68.6041

                     25                     26                     27
                      A                      A                      A
 Frequencies --    539.0886               553.6078               558.4257
 Red. masses --      2.3412                 2.4406                 3.0907
 Frc consts  --      0.4009                 0.4407                 0.5678
 IR Inten    --     63.9133                69.8044                 2.6953

                     28                     29                     30
                      A                      A                      A
 Frequencies --    580.4391               600.1729               626.4686
 Red. masses --      2.9704                 2.7733                 3.3319
 Frc consts  --      0.5896                 0.5886                 0.7705
 IR Inten    --      3.7699                44.0213                 6.9878

                     31                     32                     33
                      A                      A                      A
 Frequencies --    659.1263               675.2923               694.8399
 Red. masses --      1.6080                 3.7671                 2.3962
 Frc consts  --      0.4116                 1.0122                 0.6816
 IR Inten    --     12.6315                25.5080                97.5093

                     34                     35                     36
                      A                      A                      A
 Frequencies --    718.5091               743.4226               785.0213
 Red. masses --      1.8777                 4.7404                 3.3398
 Frc consts  --      0.5711                 1.5436                 1.2126
 IR Inten    --    235.4424                66.3462                 2.2831

                     37                     38                     39
                      A                      A                      A
 Frequencies --    797.6588               812.3319               839.7738
 Red. masses --      1.9632                 1.4776                 3.2545
 Frc consts  --      0.7360                 0.5745                 1.3522
 IR Inten    --      9.3730                35.0115                 7.1101

                     40                     41                     42
                      A                      A                      A
 Frequencies --    854.0085               869.5514               879.5458
 Red. masses --      2.1790                 2.2191                 4.3126
 Frc consts  --      0.9363                 0.9886                 1.9656
 IR Inten    --      1.8163                 2.9405                 5.3429

                     43                     44                     45
                      A                      A                      A
 Frequencies --    910.3419               933.4100               943.6790
 Red. masses --      2.4839                 1.2854                 1.8066
 Frc consts  --      1.2128                 0.6598                 0.9479
 IR Inten    --      0.7006                 4.0898                 3.4446

                     46                     47                     48
                      A                      A                      A
 Frequencies --    955.0185               974.9183               990.0656
 Red. masses --      3.9092                 1.5035                 2.2301
 Frc consts  --      2.1007                 0.8419                 1.2880
 IR Inten    --      1.6906                 4.4011                 8.3199

                     49                     50                     51
                      A                      A                      A
 Frequencies --   1039.9309              1052.9153              1060.7580
 Red. masses --      1.5568                 1.7872                 3.8856
 Frc consts  --      0.9920                 1.1674                 2.5760
 IR Inten    --      1.1792                12.1770                40.8649

                     52                     53                     54
                      A                      A                      A
 Frequencies --   1084.5945              1102.2646              1116.8436
 Red. masses --      2.3761                 3.6190                 1.8868
 Frc consts  --      1.6468                 2.5907                 1.3866
 IR Inten    --     40.0857                 5.3612                13.5274

                     55                     56                     57
                      A                      A                      A
 Frequencies --   1158.3748              1182.7486              1185.3997
 Red. masses --      1.9949                 1.2759                 1.4796
 Frc consts  --      1.5771                 1.0516                 1.2250
 IR Inten    --     40.5703                 0.8148                 3.5538

                     58                     59                     60
                      A                      A                      A
 Frequencies --   1191.7942              1201.0269              1209.1636
 Red. masses --      1.5132                 1.5258                 1.6744
 Frc consts  --      1.2663                 1.2967                 1.4424
 IR Inten    --     48.3233                26.9964                33.4356

                     61                     62                     63
                      A                      A                      A
 Frequencies --   1225.3479              1255.1730              1265.9062
 Red. masses --      1.4563                 1.4309                 2.3358
 Frc consts  --      1.2883                 1.3282                 2.2054
 IR Inten    --     21.1006                 0.3861                79.9228

                     64                     65                     66
                      A                      A                      A
 Frequencies --   1268.9845              1302.9138              1319.1916
 Red. masses --      1.2996                 2.8119                 2.0715
 Frc consts  --      1.2331                 2.8124                 2.1240
 IR Inten    --      8.7147               199.0857               126.9527

                     67                     68                     69
                      A                      A                      A
 Frequencies --   1323.1777              1342.7456              1350.8394
 Red. masses --      1.3660                 1.2641                 1.7303
 Frc consts  --      1.4091                 1.3428                 1.8603
 IR Inten    --     20.4642                 7.4810                40.4618

                     70                     71                     72
                      A                      A                      A
 Frequencies --   1358.2633              1361.0107              1365.6439
 Red. masses --      1.5324                 1.3456                 1.4273
 Frc consts  --      1.6657                 1.4686                 1.5684
 IR Inten    --     20.8895                 3.9607                 1.5775

                     73                     74                     75
                      A                      A                      A
 Frequencies --   1376.6166              1398.4244              1410.0977
 Red. masses --      1.9419                 2.3609                 2.1519
 Frc consts  --      2.1682                 2.7202                 2.5209
 IR Inten    --     10.4942                23.7798                35.6686

                     76                     77                     78
                      A                      A                      A
 Frequencies --   1463.2182              1482.7230              1491.8423
 Red. masses --      2.0934                 1.4898                 1.6027
 Frc consts  --      2.6407                 1.9297                 2.1016
 IR Inten    --     47.9844                 9.0989               164.6120

                     79                     80                     81
                      A                      A                      A
 Frequencies --   1511.9083              1521.4040              1523.7742
 Red. masses --      1.1098                 1.1887                 1.0939
 Frc consts  --      1.4947                 1.6211                 1.4965
 IR Inten    --     38.0741                12.0552                 0.4413

                     82                     83                     84
                      A                      A                      A
 Frequencies --   1525.0491              1527.2674              1533.1814
 Red. masses --      1.3755                 1.0911                 1.0915
 Frc consts  --      1.8849                 1.4995                 1.5116
 IR Inten    --     45.7246                80.8126                 9.5382

                     85                     86                     87
                      A                      A                      A
 Frequencies --   1544.1140              1551.4116              1638.2940
 Red. masses --      1.7513                 1.2012                 5.2083
 Frc consts  --      2.4602                 1.7034                 8.2363
 IR Inten    --    313.5913                45.4915                97.8727

                     88                     89                     90
                      A                      A                      A
 Frequencies --   1643.9082              1667.2758              1691.9106
 Red. masses --      1.2646                 1.7274                 2.2793
 Frc consts  --      2.0136                 2.8292                 3.8442
 IR Inten    --     92.1899               103.2413                 6.1652

                     91                     92                     93
                      A                      A                      A
 Frequencies --   1802.0899              3041.3377              3047.6935
 Red. masses --      8.7098                 1.0720                 1.0634
 Frc consts  --     16.6653                 5.8419                 5.8198
 IR Inten    --    328.0029                14.9287                44.5105

                     94                     95                     96
                      A                      A                      A
 Frequencies --   3059.2092              3071.0400              3075.0354
 Red. masses --      1.0306                 1.0698                 1.0639
 Frc consts  --      5.6830                 5.9446                 5.9275
 IR Inten    --     44.2190                25.1899                10.7679

                     97                     98                     99
                      A                      A                      A
 Frequencies --   3099.9339              3100.9775              3104.8497
 Red. masses --      1.0761                 1.0835                 1.0984
 Frc consts  --      6.0929                 6.1389                 6.2384
 IR Inten    --     11.9115                40.2589                56.7274

                    100                    101                    102
                      A                      A                      A
 Frequencies --   3108.9692              3125.3395              3125.9006
 Red. masses --      1.0798                 1.1064                 1.1015
 Frc consts  --      6.1493                 6.3676                 6.3413
 IR Inten    --     10.7599                29.8362                 8.7051

                    103                    104                    105
                      A                      A                      A
 Frequencies --   3132.2229              3164.1931              3166.3201
 Red. masses --      1.1003                 1.1057                 1.1052
 Frc consts  --      6.3603                 6.5228                 6.5281
 IR Inten    --     59.4991                10.2642                28.2176

                    106                    107                    108
                      A                      A                      A
 Frequencies --   3184.8347              3281.1592              3510.4454
 Red. masses --      1.0903                 1.0901                 1.0498
 Frc consts  --      6.5159                 6.9148                 7.6220
 IR Inten    --     19.2137                 2.8287               117.8326

                    109                    110                    111
                      A                      A                      A
 Frequencies --   3532.4513              3634.2691              3661.6663
 Red. masses --      1.0480                 1.0969                 1.1005
 Frc consts  --      7.7051                 8.5358                 8.6935
 IR Inten    --     10.0286                13.1046                74.4491

 - Thermochemistry -
 -------------------
 Temperature   298.150 Kelvin.  Pressure   1.00000 Atm.
 Atom     1 has atomic number  6 and mass  12.00000

 Molecular mass:   264.15863 amu.
 Principal axes and moments of inertia in atomic units:
                           1         2         3
     Eigenvalues --  3433.902506256.646598759.73303
           X            0.99912  -0.04201   0.00187
           Y            0.04202   0.99910  -0.00543
           Z           -0.00164   0.00551   0.99998
 This molecule is an asymmetric top.
 Rotational symmetry number  1.
 Warning -- assumption of classical behavior for rotation
           may cause significant error
 Rotational temperatures (Kelvin)      0.02522     0.01384     0.00989
 Rotational constants (GHZ):           0.52557     0.28845     0.20603
 Zero-point vibrational energy     880090.1 (Joules/Mol)
                                  210.34659 (Kcal/Mol)
 Warning -- explicit consideration of  29 degrees of freedom as
           vibrations may cause significant error
 Vibrational temperatures:     46.72    81.77    89.66   103.93   118.06
          (Kelvin)            126.56   158.57   215.72   230.31   273.69
                              281.39   328.96   358.92   380.40   382.03
                              394.42   409.59   519.69   525.17   613.81
                              636.69   661.04   673.64   716.18   775.63
                              796.52   803.45   835.12   863.51   901.35
                              948.34   971.59   999.72  1033.77  1069.62
                             1129.47  1147.65  1168.76  1208.25  1228.73
                             1251.09  1265.47  1309.78  1342.97  1357.74
                             1374.06  1402.69  1424.48  1496.23  1514.91
                             1526.19  1560.49  1585.91  1606.89  1666.64
                             1701.71  1705.53  1714.73  1728.01  1739.72
                             1763.00  1805.91  1821.36  1825.79  1874.60
                             1898.02  1903.76  1931.91  1943.56  1954.24
                             1958.19  1964.86  1980.64  2012.02  2028.82
                             2105.24  2133.31  2146.43  2175.30  2188.96
                             2192.37  2194.21  2197.40  2205.91  2221.64
                             2232.14  2357.14  2365.22  2398.84  2434.28
                             2592.81  4375.81  4384.95  4401.52  4418.54
                             4424.29  4460.11  4461.61  4467.19  4473.11
                             4496.67  4497.47  4506.57  4552.57  4555.63
                             4582.27  4720.86  5050.75  5082.41  5228.90
                             5268.32

 Zero-point correction=                           0.335209 (Hartree/Particle)
 Thermal correction to Energy=                    0.353654
 Thermal correction to Enthalpy=                  0.354598
 Thermal correction to Gibbs Free Energy=         0.288517
 Sum of electronic and zero-point Energies=           -876.632587
 Sum of electronic and thermal Energies=              -876.614142
 Sum of electronic and thermal Enthalpies=            -876.613198
 Sum of electronic and thermal Free Energies=         -876.679279

                     E (Thermal)             CV                S
                      KCal/Mol        Cal/Mol-Kelvin    Cal/Mol-Kelvin
 Total                  221.921             71.052            139.079
 Electronic               0.000              0.000              0.000
 Translational            0.889              2.981             42.613
 Rotational               0.889              2.981             33.598
 Vibrational            220.144             65.090             62.868
 Vibration     1          0.594              1.983              5.672
 Vibration     2          0.596              1.975              4.564
 Vibration     3          0.597              1.972              4.382
 Vibration     4          0.598              1.967              4.092
 Vibration     5          0.600              1.961              3.841
 Vibration     6          0.601              1.958              3.705
 Vibration     7          0.606              1.941              3.265
 Vibration     8          0.618              1.903              2.673
 Vibration     9          0.622              1.891              2.549
 Vibration    10          0.634              1.853              2.226
 Vibration    11          0.636              1.846              2.174
 Vibration    12          0.651              1.797              1.890
 Vibration    13          0.662              1.764              1.734
 Vibration    14          0.671              1.738              1.633
 Vibration    15          0.671              1.736              1.625
 Vibration    16          0.676              1.721              1.570
 Vibration    17          0.683              1.702              1.505
 Vibration    18          0.735              1.552              1.117
 Vibration    19          0.738              1.544              1.101
 Vibration    20          0.788              1.412              0.870
 Vibration    21          0.802              1.377              0.819
 Vibration    22          0.817              1.340              0.768
 Vibration    23          0.825              1.321              0.743
 Vibration    24          0.853              1.255              0.664
 Vibration    25          0.894              1.164              0.567
 Vibration    26          0.909              1.132              0.537
 Vibration    27          0.914              1.121              0.527
 Vibration    28          0.937              1.074              0.485
 Vibration    29          0.958              1.031              0.449

 Optimization completed.
    -- Stationary point found.
 Normal termination of Gaussian 16 at Sat Dec 12 10:31:00 2020.

 ----------------------------------------------------------------------
 # B3LYP/6-311++G(d,p) empiricaldispersion=gd3bj scf=xqc pop=npa geom=c
 heck
 ----------------------------------------------------------------------

 --------------------------------------
 CID_54989549_JID_9043_Energie_neutraal
 --------------------------------------
 Structure from the checkpoint file:  "JID_9043.chk"
 Charge =  0 Multiplicity = 1

 SCF Done:  E(RB3LYP) =  -877.223308931     A.U. after   15 cycles
 Normal termination of Gaussian 16 at Sat Dec 12 10:38:21 2020.

 ----------------------------------------------------------------------
 # B3LYP/6-311++G(d,p) empiricaldispersion=gd3bj scf=xqc pop=npa geom=c
 heck
 ----------------------------------------------------------------------

 ------------------------------------
 CID_54989549_JID_9043_Energie_kation
 ------------------------------------
 Structure from the checkpoint file:  "JID_9043.chk"
 Charge =  1 Multiplicity = 2

 SCF Done:  E(UB3LYP) =  -876.978880477     A.U. after   22 cycles
 Normal termination of Gaussian 16 at Sat Dec 12 10:52:52 2020.
 Gaussian 16:  ES64L-G16RevA.03 25-Dec-2016

 ----------------------------------------------------------------------
 # B3LYP/6-311++G(d,p) empiricaldispersion=gd3bj scf=xqc pop=npa geom=c
 heck
 ----------------------------------------------------------------------

 -----------------------------------
 CID_54989549_JID_9043_Energie_anion
 -----------------------------------
 Structure from the checkpoint file:  "JID_9043.chk"
 Charge = -1 Multiplicity = 2

                         Standard orientation:
 ---------------------------------------------------------------------
 Center     Atomic      Atomic             Coordinates (Angstroms)
 Number     Number       Type             X           Y           Z
 ---------------------------------------------------------------------
      1          6           0       -3.674899    1.735687   -0.461373
      2          8           0       -3.696841    0.375453   -0.034593
      3          6           0       -2.515069   -0.302632   -0.046772
      4          6           0       -2.594218   -1.671480    0.268274
      5          6           0       -1.379553   -2.353568    0.245005
      6          6           0       -0.190125   -1.706346   -0.085473
      7          6           0       -0.220796   -0.333433   -0.384500
      8          7           0       -1.394612    0.340472   -0.334371
      9          7           0        0.899456    0.395333   -0.764919
     10          6           0        0.750278    1.819688   -1.055926
     11          6           0        0.947739    2.665548    0.210485
     12          8           0        2.014071    3.208065    0.472772
     13          7           0       -0.149660    2.711694    1.022237
     14          6           0        2.266798   -0.037752   -0.451283
     15          6           0        2.559519   -0.334767    1.039257
     16          6           0        3.777286   -1.265988    0.984268
     17          6           0        3.467303   -2.193346   -0.207166
     18          6           0        2.790743   -1.275870   -1.250818
     19          7           0       -3.815363   -2.252883    0.645350
     20          1           0       -4.716740    2.059947   -0.453080
     21          1           0       -3.255268    1.825591   -1.468279
     22          1           0       -3.086572    2.360142    0.218789
     23          1           0       -1.361015   -3.414422    0.483051
     24          1           0        0.728798   -2.270867   -0.114745
     25          1           0        1.521423    2.114714   -1.770484
     26          1           0       -0.234090    1.987490   -1.493242
     27          1           0       -0.893130    2.042023    0.848480
     28          1           0       -0.013569    3.061029    1.961777
     29          1           0        2.887872    0.817247   -0.723599
     30          1           0        2.733477    0.590185    1.596085
     31          1           0        1.710386   -0.850305    1.500543
     32          1           0        3.944919   -1.812138    1.918406
     33          1           0        4.685104   -0.683428    0.778522
     34          1           0        2.774750   -2.980523    0.118603
     35          1           0        4.355889   -2.697337   -0.600396
     36          1           0        1.986509   -1.773426   -1.797886
     37          1           0        3.516408   -0.942436   -1.999877
     38          1           0       -4.610374   -1.714035    0.321416
     39          1           0       -3.901401   -3.224348    0.368541
 ---------------------------------------------------------------------

 SCF Done:  E(UB3LYP) =  -877.212401373     A.U. after   33 cycles
 SCF Done:  E(UB3LYP) =  -877.212401374     a.u. after    1 cycles

 The electronic state is 2-A.
 Alpha  occ. eigenvalues --  -19.06925 -19.00789 -14.24679 -14.24259 -14.21807
 Alpha  occ. eigenvalues --  -14.21708 -10.18781 -10.16963 -10.15272 -10.13199
 Alpha  occ. eigenvalues --  -10.12184 -10.12137 -10.11480 -10.08858 -10.08229
 Alpha  occ. eigenvalues --  -10.08181 -10.08102 -10.07747 -10.07558  -0.99061
 Alpha  occ. eigenvalues --   -0.95492  -0.88656  -0.83288  -0.81821  -0.81061
 Alpha  occ. eigenvalues --   -0.74665  -0.69953  -0.67095  -0.64656  -0.62825
 Alpha  occ. eigenvalues --   -0.62622  -0.58743  -0.53837  -0.52989  -0.50090
 Alpha  occ. eigenvalues --   -0.49420  -0.48750  -0.45722  -0.44776  -0.43509
 Alpha  occ. eigenvalues --   -0.41546  -0.41269  -0.40100  -0.39307  -0.38651
 Alpha  occ. eigenvalues --   -0.38328  -0.36864  -0.35196  -0.34431  -0.33978
 Alpha  occ. eigenvalues --   -0.33733  -0.32447  -0.32012  -0.31684  -0.30530
 Alpha  occ. eigenvalues --   -0.29839  -0.28384  -0.27461  -0.26354  -0.26034
 Alpha  occ. eigenvalues --   -0.25516  -0.25174  -0.24406  -0.23855  -0.23675
 Alpha  occ. eigenvalues --   -0.19589  -0.19173  -0.18526  -0.17424  -0.15890
 Alpha  occ. eigenvalues --   -0.09054   0.03883
 Alpha virt. eigenvalues --    0.05499   0.05854   0.06906   0.07073   0.07441
 Alpha virt. eigenvalues --    0.07671   0.08292   0.08753   0.09180   0.09360
 Alpha virt. eigenvalues --    0.10004   0.10315   0.10848   0.11172   0.11490

  Beta  occ. eigenvalues --  -19.06918 -19.00787 -14.24678 -14.24242 -14.21762
  Beta  occ. eigenvalues --  -14.21700 -10.18779 -10.16961 -10.15269 -10.13163
  Beta  occ. eigenvalues --  -10.12183 -10.12130 -10.11477 -10.08835 -10.08219
  Beta  occ. eigenvalues --  -10.08163 -10.08093 -10.07742 -10.07552  -0.99049
  Beta  occ. eigenvalues --   -0.95487  -0.88649  -0.83269  -0.81800  -0.81015
  Beta  occ. eigenvalues --   -0.74650  -0.69924  -0.67063  -0.64635  -0.62802
  Beta  occ. eigenvalues --   -0.62588  -0.58709  -0.53808  -0.52943  -0.50062
  Beta  occ. eigenvalues --   -0.49394  -0.48714  -0.45706  -0.44745  -0.43484
  Beta  occ. eigenvalues --   -0.41493  -0.41244  -0.40075  -0.39286  -0.38625
  Beta  occ. eigenvalues --   -0.38302  -0.36817  -0.35164  -0.34416  -0.33957
  Beta  occ. eigenvalues --   -0.33718  -0.32425  -0.31990  -0.31665  -0.30512
  Beta  occ. eigenvalues --   -0.29805  -0.28368  -0.27443  -0.26323  -0.26012
  Beta  occ. eigenvalues --   -0.25493  -0.25150  -0.24385  -0.23831  -0.23655
  Beta  occ. eigenvalues --   -0.19573  -0.19153  -0.18514  -0.17401  -0.15873
  Beta  occ. eigenvalues --   -0.09030
  Beta virt. eigenvalues --    0.05752   0.06273   0.06848   0.07087   0.07311
  Beta virt. eigenvalues --    0.07908   0.08065   0.08482   0.08892   0.09632
  Beta virt. eigenvalues --    0.09699   0.10063   0.10426   0.11135   0.11267

 Mulliken charges and spin densities:
               1          2
     1  C    0.960827  -1.258372
     2  O   -0.207608   0.039361
     3  C   -0.792890   0.507704
     4  C   -0.203711   0.290507
     5  C    1.039815  -1.077792
     6  C    0.453616  -0.484996
     7  C   -0.299721   0.029420
     8  N   -0.200671   0.026913
     9  N    0.528089  -0.026653
    10  C    0.400571  -0.475439
    11  C   -0.104969   0.026845
    12  O   -0.307360   0.012835
    13  N   -0.331052   0.026524
    14  C   -0.353539  -0.375267
    15  C   -0.220497   0.244666
    16  C   -0.172460  -0.518916
    17  C    0.319819  -0.532013
    18  C   -0.644007   0.278358
    19  N   -0.380481  -0.006629
    20  H   -0.448178   0.619590
    21  H   -0.165088   0.341656
    22  H   -0.151937   0.289134
    23  H   -1.034022   1.242532
    24  H    0.799973  -0.729668
    25  H    0.117973   0.074948
    26  H    0.278972  -0.078277
    27  H    0.376434  -0.052759
    28  H    0.085128   0.185927
    29  H    0.200166  -0.012695
    30  H    0.104582   0.082412
    31  H    0.045568   0.105934
    32  H   -0.073077   0.248558
    33  H    0.153182  -0.025012
    34  H   -0.119563   0.250798
    35  H   -0.278100   0.460649
    36  H   -0.117970   0.316695
    37  H   -0.011825   0.183190
    38  H   -0.048003   0.322275
    39  H   -0.197986   0.447056
 Sum of Mulliken charges =  -1.00000   1.00000

 Dipole moment (field-independent basis, Debye):
    X=              4.3504    Y=              3.4309    Z=             -1.0007  Tot=              5.6301
 Quadrupole moment (field-independent basis, Debye-Ang):
   XX=           -203.4490   YY=           -188.9632   ZZ=           -142.2828
   XY=             -7.9031   XZ=              0.2498   YZ=              1.6607

 Summary of Natural Population Analysis:

                                       Natural Population
                Natural  -----------------------------------------------
    Atom  No    Charge         Core      Valence    Rydberg      Total
 -----------------------------------------------------------------------
      C    1   -0.09873      0.99959     2.09014    0.00900     3.09873
      O    2   -0.27823      0.99986     3.26803    0.01034     4.27823
      C    3    0.26529      0.99940     1.71881    0.01650     2.73471
      C    4    0.03484      0.99944     1.95363    0.01209     2.96516
      C    5   -0.08650      0.99954     2.07654    0.01042     3.08650
      C    6   -0.15186      0.99953     2.14359    0.00874     3.15186
      C    7    0.20308      0.99951     1.78305    0.01437     2.79692
      N    8   -0.30426      0.99962     2.79493    0.00970     3.80426
      N    9   -0.25157      0.99964     2.74003    0.01190     3.75157
      C   10   -0.12305      0.99957     2.11361    0.00988     3.12305
      C   11    0.33081      0.99971     1.64712    0.02236     2.66919
      O   12   -0.32456      0.99988     3.31858    0.00611     4.32456
      N   13   -0.40742      0.99969     2.89982    0.00791     3.90742
      C   14   -0.00299      0.99958     1.99176    0.01165     3.00299
      C   15   -0.20189      0.99961     2.19488    0.00739     3.20189
      C   16   -0.19175      0.99964     2.18400    0.00811     3.19175
      C   17   -0.19356      0.99964     2.18636    0.00756     3.19356
      C   18   -0.19931      0.99962     2.19099    0.00870     3.19931
      N   19   -0.39861      0.99972     2.88804    0.01085     3.89861
      H   20    0.09327      0.00000     0.40522    0.00151     0.40673
      H   21    0.08912      0.00000     0.40947    0.00141     0.41088
      H   22    0.08509      0.00000     0.41325    0.00166     0.41491
      H   23    0.10487      0.00000     0.39340    0.00173     0.39513
      H   24    0.10622      0.00000     0.39129    0.00249     0.39378
      H   25    0.10283      0.00000     0.39621    0.00096     0.39717
      H   26    0.11590      0.00000     0.38271    0.00139     0.38410
      H   27    0.20631      0.00000     0.29091    0.00278     0.29369
      H   28    0.19152      0.00000     0.30662    0.00186     0.30848
      H   29    0.10418      0.00000     0.39435    0.00147     0.39582
      H   30    0.10641      0.00000     0.39260    0.00099     0.39359
      H   31    0.10265      0.00000     0.39586    0.00149     0.39735
      H   32    0.10105      0.00000     0.39817    0.00078     0.39895
      H   33    0.09258      0.00000     0.40643    0.00099     0.40742
      H   34    0.09545      0.00000     0.40287    0.00168     0.40455
      H   35    0.10022      0.00000     0.39877    0.00102     0.39978
      H   36    0.10640      0.00000     0.39233    0.00127     0.39360
      H   37    0.09835      0.00000     0.40076    0.00090     0.40165
      H   38    0.19131      0.00000     0.30581    0.00288     0.30869
      H   39    0.18654      0.00000     0.30877    0.00469     0.31346
 =======================================================================
   * Total *   -0.00000     18.99278    51.76969    0.23753    71.00000

 Normal termination of Gaussian 16 at Sat Dec 12 11:14:53 2020.
