 Gaussian 16, Revision A.03,

 -----------------------------------------------------------
 # opt freq B3LYP/6-31G(d) empiricaldispersion=gd3bj scf=xqc
 -----------------------------------------------------------

 -------------------------------
 CID_104096113_JID_9774_neutraal
 -------------------------------
 Symbolic Z-matrix:
 Charge =  0 Multiplicity = 1

 SCF Done:  E(RB3LYP) =  -824.989677504     A.U. after   15 cycles
 SCF Done:  E(RB3LYP) =  -824.996502911     A.U. after   12 cycles
 SCF Done:  E(RB3LYP) =  -824.996380817     A.U. after   12 cycles
 SCF Done:  E(RB3LYP) =  -824.996913619     A.U. after   12 cycles
 SCF Done:  E(RB3LYP) =  -824.997927468     A.U. after   12 cycles
 SCF Done:  E(RB3LYP) =  -824.998389752     A.U. after   11 cycles
 SCF Done:  E(RB3LYP) =  -824.998667151     A.U. after   11 cycles
 SCF Done:  E(RB3LYP) =  -824.998815647     A.U. after   11 cycles
 SCF Done:  E(RB3LYP) =  -824.998880576     A.U. after   11 cycles
 SCF Done:  E(RB3LYP) =  -824.998968448     A.U. after   11 cycles
 SCF Done:  E(RB3LYP) =  -824.999102656     A.U. after   11 cycles
 SCF Done:  E(RB3LYP) =  -824.999185316     A.U. after   11 cycles
 SCF Done:  E(RB3LYP) =  -824.999189390     A.U. after   10 cycles
 SCF Done:  E(RB3LYP) =  -824.999190134     A.U. after    8 cycles
 SCF Done:  E(RB3LYP) =  -824.999190217     A.U. after    7 cycles
 Optimization completed.
    -- Stationary point found.
 Normal termination of Gaussian 16 at Sun Dec 13 20:48:36 2020.

 --------------------------------------------------------------------
 #N Geom=AllCheck Guess=TCheck SCRF=Check GenChk RB3LYP/6-31G(d) Freq
 --------------------------------------------------------------------

 Structure from the checkpoint file:  "JID_9774.chk"
 -------------------------------
 CID_104096113_JID_9774_neutraal
 -------------------------------
 Charge =  0 Multiplicity = 1

 SCF Done:  E(RB3LYP) =  -824.999190217     A.U. after    1 cycles

  Exact polarizability: 244.183   1.110 183.591  -7.200  -6.049 122.666
 Approx polarizability: 341.254   2.511 286.922 -14.279 -14.393 181.260

                      1                      2                      3
                      A                      A                      A
 Frequencies --     34.7375                44.7212                51.8284
 Red. masses --      3.2006                 2.4256                 3.8442
 Frc consts  --      0.0023                 0.0029                 0.0061
 IR Inten    --      1.0339                 0.8883                 0.5876

                      4                      5                      6
                      A                      A                      A
 Frequencies --     65.0100                79.0842                98.6711
 Red. masses --      2.6535                 2.1665                 2.9123
 Frc consts  --      0.0066                 0.0080                 0.0167
 IR Inten    --      1.4742                 2.1292                 1.0608

                      7                      8                      9
                      A                      A                      A
 Frequencies --    126.0996               156.7831               180.2758
 Red. masses --      3.1044                 2.6946                 1.2456
 Frc consts  --      0.0291                 0.0390                 0.0239
 IR Inten    --      0.8116                 5.3575                 0.3317

                     10                     11                     12
                      A                      A                      A
 Frequencies --    190.6798               203.8079               218.5960
 Red. masses --      2.3484                 1.8633                 1.5766
 Frc consts  --      0.0503                 0.0456                 0.0444
 IR Inten    --      1.2998                 6.5164                 0.1517

                     13                     14                     15
                      A                      A                      A
 Frequencies --    223.1092               237.0219               267.4191
 Red. masses --      1.5993                 2.6315                 1.4248
 Frc consts  --      0.0469                 0.0871                 0.0600
 IR Inten    --      1.7978                 0.5666                20.9090

                     16                     17                     18
                      A                      A                      A
 Frequencies --    269.8965               282.0833               302.1699
 Red. masses --      1.4428                 2.2559                 3.4801
 Frc consts  --      0.0619                 0.1058                 0.1872
 IR Inten    --     23.2884                 0.5967                 1.4750

                     19                     20                     21
                      A                      A                      A
 Frequencies --    326.5646               340.8871               356.2255
 Red. masses --      2.8716                 2.6133                 3.3605
 Frc consts  --      0.1804                 0.1789                 0.2512
 IR Inten    --      8.2512                24.1617                 1.5426

                     22                     23                     24
                      A                      A                      A
 Frequencies --    381.2077               399.0286               409.7064
 Red. masses --      2.4860                 1.6992                 2.0812
 Frc consts  --      0.2128                 0.1594                 0.2058
 IR Inten    --      6.8356                 1.9154                 1.2340

                     25                     26                     27
                      A                      A                      A
 Frequencies --    418.5234               457.2450               460.7705
 Red. masses --      2.8514                 2.9405                 2.7792
 Frc consts  --      0.2943                 0.3622                 0.3476
 IR Inten    --      3.9471                 5.0536                 1.5815

                     28                     29                     30
                      A                      A                      A
 Frequencies --    490.1528               504.3727               540.6050
 Red. masses --      3.5797                 3.8009                 3.7249
 Frc consts  --      0.5067                 0.5697                 0.6414
 IR Inten    --      4.0426                20.4885                 3.5209

                     31                     32                     33
                      A                      A                      A
 Frequencies --    565.8272               604.5520               635.2770
 Red. masses --      3.8344                 3.4106                 3.8070
 Frc consts  --      0.7233                 0.7344                 0.9052
 IR Inten    --      0.7387                 6.3091                10.0904

                     34                     35                     36
                      A                      A                      A
 Frequencies --    673.7648               709.5592               768.4859
 Red. masses --      5.6698                 4.3775                 4.4506
 Frc consts  --      1.5165                 1.2985                 1.5486
 IR Inten    --      1.5344                 1.1115                 4.2990

                     37                     38                     39
                      A                      A                      A
 Frequencies --    777.4820               792.2757               805.0378
 Red. masses --      5.1088                 2.5322                 1.9285
 Frc consts  --      1.8195                 0.9365                 0.7364
 IR Inten    --      6.2562                 8.4456                19.0039

                     40                     41                     42
                      A                      A                      A
 Frequencies --    828.5690               846.2631               874.0575
 Red. masses --      3.0995                 3.1167                 1.2818
 Frc consts  --      1.2537                 1.3151                 0.5769
 IR Inten    --      2.3040                10.2245                99.6087

                     43                     44                     45
                      A                      A                      A
 Frequencies --    909.2855               929.0285               934.5309
 Red. masses --      3.4515                 1.3264                 1.4023
 Frc consts  --      1.6814                 0.6745                 0.7216
 IR Inten    --     25.1389                12.4671                 2.9186

                     46                     47                     48
                      A                      A                      A
 Frequencies --    938.6103               948.8390               973.9033
 Red. masses --      1.5911                 1.6531                 2.8587
 Frc consts  --      0.8259                 0.8768                 1.5976
 IR Inten    --      0.3403                 1.5725                11.2616

                     49                     50                     51
                      A                      A                      A
 Frequencies --    989.6411              1012.6328              1026.7808
 Red. masses --      1.2057                 2.3676                 1.9222
 Frc consts  --      0.6957                 1.4304                 1.1940
 IR Inten    --      0.2092                28.4862                10.0414

                     52                     53                     54
                      A                      A                      A
 Frequencies --   1067.0145              1070.3488              1072.9409
 Red. masses --      1.7872                 1.8131                 2.3403
 Frc consts  --      1.1989                 1.2238                 1.5873
 IR Inten    --      1.9115                12.0449                 3.0265

                     55                     56                     57
                      A                      A                      A
 Frequencies --   1078.9665              1100.8967              1123.6221
 Red. masses --      1.4743                 2.5879                 3.3653
 Frc consts  --      1.0112                 1.8479                 2.5033
 IR Inten    --      2.1174                33.5993                43.8475

                     58                     59                     60
                      A                      A                      A
 Frequencies --   1164.9206              1176.4744              1193.3875
 Red. masses --      3.0279                 1.8152                 1.2809
 Frc consts  --      2.4210                 1.4803                 1.0748
 IR Inten    --    127.5446                 4.4448                 3.0545

                     61                     62                     63
                      A                      A                      A
 Frequencies --   1195.6817              1197.7342              1225.0687
 Red. masses --      1.4881                 1.5213                 1.7206
 Frc consts  --      1.2534                 1.2859                 1.5214
 IR Inten    --     21.6232                 3.0642                34.9379

                     64                     65                     66
                      A                      A                      A
 Frequencies --   1233.5202              1261.7298              1265.7067
 Red. masses --      1.5525                 2.4759                 2.7552
 Frc consts  --      1.3918                 2.3223                 2.6005
 IR Inten    --     11.6429                20.3203                11.8853

                     67                     68                     69
                      A                      A                      A
 Frequencies --   1285.1192              1294.0420              1317.7413
 Red. masses --      2.3758                 1.7583                 3.3736
 Frc consts  --      2.3118                 1.7347                 3.4514
 IR Inten    --      5.7276                 3.4868                78.2557

                     70                     71                     72
                      A                      A                      A
 Frequencies --   1331.4402              1345.5391              1391.7787
 Red. masses --      4.2019                 1.4324                 2.8050
 Frc consts  --      4.3887                 1.5280                 3.2013
 IR Inten    --     75.7923                12.4252                11.2493

                     73                     74                     75
                      A                      A                      A
 Frequencies --   1405.8069              1424.0401              1429.8555
 Red. masses --      1.4938                 1.7237                 1.2840
 Frc consts  --      1.7394                 2.0594                 1.5467
 IR Inten    --      3.4559                18.5522                 9.1623

                     76                     77                     78
                      A                      A                      A
 Frequencies --   1437.8129              1442.8971              1447.5757
 Red. masses --      1.3128                 1.2451                 1.5950
 Frc consts  --      1.5990                 1.5273                 1.9692
 IR Inten    --      8.9397                 8.3567                94.4124

                     79                     80                     81
                      A                      A                      A
 Frequencies --   1469.4501              1482.2557              1498.1070
 Red. masses --      1.2468                 2.7693                 1.1370
 Frc consts  --      1.5862                 3.5848                 1.5035
 IR Inten    --     14.5819                31.8564                 0.2313

                     82                     83                     84
                      A                      A                      A
 Frequencies --   1511.6609              1513.2825              1514.8843
 Red. masses --      1.0468                 1.0531                 1.0576
 Frc consts  --      1.4093                 1.4209                 1.4300
 IR Inten    --      2.6374                 0.4163                 2.7547

                     85                     86                     87
                      A                      A                      A
 Frequencies --   1519.5415              1523.5876              1528.8453
 Red. masses --      1.1068                 1.7121                 1.1772
 Frc consts  --      1.5057                 2.3417                 1.6211
 IR Inten    --      4.4947                 9.9042                11.0315

                     88                     89                     90
                      A                      A                      A
 Frequencies --   1533.5232              1537.6049              1540.0419
 Red. masses --      1.1222                 1.0638                 1.2768
 Frc consts  --      1.5548                 1.4819                 1.7841
 IR Inten    --      2.6019                 7.2388                 1.6923

                     91                     92                     93
                      A                      A                      A
 Frequencies --   1541.9054              1544.8484              1560.2186
 Red. masses --      1.0550                 1.0610                 1.3916
 Frc consts  --      1.4777                 1.4920                 1.9959
 IR Inten    --     12.7211                 1.9650                 0.8863

                     94                     95                     96
                      A                      A                      A
 Frequencies --   1564.3845              1624.6020              1677.5089
 Red. masses --      2.5291                 6.5420                 4.3349
 Frc consts  --      3.6467                10.1732                 7.1871
 IR Inten    --     24.2961                 7.7257                 6.1183

                     97                     98                     99
                      A                      A                      A
 Frequencies --   1691.4926              2953.1044              3033.3399
 Red. masses --      1.2023                 1.0738                 1.0868
 Frc consts  --      2.0268                 5.5174                 5.8918
 IR Inten    --     30.1146                84.1518                38.2847

                    100                    101                    102
                      A                      A                      A
 Frequencies --   3036.4788              3061.9625              3065.0550
 Red. masses --      1.0344                 1.0412                 1.0383
 Frc consts  --      5.6190                 5.7514                 5.7470
 IR Inten    --     53.2459                21.8493                12.7737

                    103                    104                    105
                      A                      A                      A
 Frequencies --   3068.0098              3074.3874              3099.0699
 Red. masses --      1.0376                 1.0368                 1.1019
 Frc consts  --      5.7545                 5.7737                 6.2354
 IR Inten    --     18.1213                19.7730                40.7751

                    106                    107                    108
                      A                      A                      A
 Frequencies --   3121.9179              3128.1388              3132.5706
 Red. masses --      1.1024                 1.1027                 1.1023
 Frc consts  --      6.3305                 6.3576                 6.3729
 IR Inten    --     13.8927                 9.8640                24.5563

                    109                    110                    111
                      A                      A                      A
 Frequencies --   3138.8538              3139.8569              3142.1378
 Red. masses --      1.0915                 1.0996                 1.1033
 Frc consts  --      6.3359                 6.3872                 6.4179
 IR Inten    --     18.0752                73.6286                34.1076

                    112                    113                    114
                      A                      A                      A
 Frequencies --   3158.6911              3165.7984              3175.5662
 Red. masses --      1.1044                 1.0954                 1.0970
 Frc consts  --      6.4920                 6.4681                 6.5180
 IR Inten    --     19.6880                14.7387                25.7494

                    115                    116                    117
                      A                      A                      A
 Frequencies --   3175.7417              3201.1405              3231.6218
 Red. masses --      1.0897                 1.0949                 1.0909
 Frc consts  --      6.4751                 6.6106                 6.7124
 IR Inten    --     13.8332                 1.5936                 0.3035

                    118                    119                    120
                      A                      A                      A
 Frequencies --   3287.3080              3467.3626              3556.5106
 Red. masses --      1.0898                 1.0496                 1.0929
 Frc consts  --      6.9389                 7.4347                 8.1451
 IR Inten    --      9.7416                 3.0836                 1.6156

 - Thermochemistry -
 -------------------
 Temperature   298.150 Kelvin.  Pressure   1.00000 Atm.
 Atom     1 has atomic number  6 and mass  12.00000

 Molecular mass:   261.18411 amu.
 Principal axes and moments of inertia in atomic units:
                           1         2         3
     Eigenvalues --  3165.944367174.995799178.39026
           X            0.99997  -0.00692  -0.00225
           Y            0.00692   0.99998  -0.00110
           Z            0.00226   0.00108   1.00000
 This molecule is an asymmetric top.
 Rotational symmetry number  1.
 Warning -- assumption of classical behavior for rotation
           may cause significant error
 Rotational temperatures (Kelvin)      0.02736     0.01207     0.00944
 Rotational constants (GHZ):           0.57005     0.25153     0.19663
 Zero-point vibrational energy     966796.3 (Joules/Mol)
                                  231.06986 (Kcal/Mol)
 Warning -- explicit consideration of  32 degrees of freedom as
           vibrations may cause significant error
 Vibrational temperatures:     49.98    64.34    74.57    93.53   113.78
          (Kelvin)            141.97   181.43   225.58   259.38   274.35
                              293.23   314.51   321.00   341.02   384.76
                              388.32   405.85   434.76   469.85   490.46
                              512.53   548.47   574.11   589.48   602.16
                              657.87   662.95   705.22   725.68   777.81
                              814.10   869.82   914.02   969.40  1020.90
                             1105.68  1118.62  1139.91  1158.27  1192.13
                             1217.58  1257.57  1308.26  1336.66  1344.58
                             1350.45  1365.17  1401.23  1423.87  1456.95
                             1477.31  1535.20  1539.99  1543.72  1552.39
                             1583.94  1616.64  1676.06  1692.68  1717.02
                             1720.32  1723.27  1762.60  1774.76  1815.35
                             1821.07  1849.00  1861.84  1895.94  1915.65
                             1935.93  2002.46  2022.64  2048.88  2057.24
                             2068.69  2076.01  2082.74  2114.21  2132.64
                             2155.44  2174.94  2177.28  2179.58  2186.28
                             2192.10  2199.67  2206.40  2212.27  2215.78
                             2218.46  2222.69  2244.81  2250.80  2337.44
                             2413.56  2433.68  4248.86  4364.30  4368.82
                             4405.48  4409.93  4414.18  4423.36  4458.87
                             4491.74  4500.69  4507.07  4516.11  4517.55
                             4520.84  4544.65  4554.88  4568.93  4569.18
                             4605.73  4649.58  4729.70  4988.76  5117.03

 Zero-point correction=                           0.368233 (Hartree/Particle)
 Thermal correction to Energy=                    0.387923
 Thermal correction to Enthalpy=                  0.388867
 Thermal correction to Gibbs Free Energy=         0.320531
 Sum of electronic and zero-point Energies=           -824.630957
 Sum of electronic and thermal Energies=              -824.611267
 Sum of electronic and thermal Enthalpies=            -824.610323
 Sum of electronic and thermal Free Energies=         -824.678659

                     E (Thermal)             CV                S
                      KCal/Mol        Cal/Mol-Kelvin    Cal/Mol-Kelvin
 Total                  243.425             75.545            143.826
 Electronic               0.000              0.000              0.000
 Translational            0.889              2.981             42.580
 Rotational               0.889              2.981             33.699
 Vibrational            241.648             69.584             67.547
 Vibration     1          0.594              1.983              5.539
 Vibration     2          0.595              1.980              5.038
 Vibration     3          0.596              1.977              4.746
 Vibration     4          0.597              1.971              4.299
 Vibration     5          0.600              1.963              3.913
 Vibration     6          0.604              1.950              3.480
 Vibration     7          0.611              1.927              3.005
 Vibration     8          0.620              1.895              2.588
 Vibration     9          0.629              1.866              2.326
 Vibration    10          0.634              1.853              2.221
 Vibration    11          0.639              1.834              2.098
 Vibration    12          0.646              1.813              1.971
 Vibration    13          0.649              1.806              1.934
 Vibration    14          0.656              1.784              1.825
 Vibration    15          0.673              1.733              1.613
 Vibration    16          0.674              1.729              1.597
 Vibration    17          0.681              1.707              1.521
 Vibration    18          0.694              1.670              1.405
 Vibration    19          0.710              1.622              1.277
 Vibration    20          0.720              1.594              1.208
 Vibration    21          0.732              1.562              1.139
 Vibration    22          0.751              1.510              1.034
 Vibration    23          0.765              1.472              0.966
 Vibration    24          0.774              1.449              0.928
 Vibration    25          0.781              1.430              0.897
 Vibration    26          0.815              1.345              0.774
 Vibration    27          0.819              1.337              0.764
 Vibration    28          0.846              1.272              0.683
 Vibration    29          0.860              1.240              0.647
 Vibration    30          0.896              1.160              0.564
 Vibration    31          0.922              1.105              0.512
 Vibration    32          0.963              1.022              0.442

                           ! Non-Optimized Parameters !
 Normal termination of Gaussian 16 at Sun Dec 13 21:10:58 2020.

 ----------------------------------------------------------------------
 # B3LYP/6-311++G(d,p) empiricaldispersion=gd3bj scf=xqc pop=npa geom=c
 heck
 ----------------------------------------------------------------------

 ---------------------------------------
 CID_104096113_JID_9774_Energie_neutraal
 ---------------------------------------
 Structure from the checkpoint file:  "JID_9774.chk"
 Charge =  0 Multiplicity = 1

 SCF Done:  E(RB3LYP) =  -825.226229706     A.U. after   16 cycles
 Normal termination of Gaussian 16 at Sun Dec 13 21:22:23 2020.

 ----------------------------------------------------------------------
 # B3LYP/6-311++G(d,p) empiricaldispersion=gd3bj scf=xqc pop=npa geom=c
 heck
 ----------------------------------------------------------------------

 -------------------------------------
 CID_104096113_JID_9774_Energie_kation
 -------------------------------------
 Structure from the checkpoint file:  "JID_9774.chk"
 Charge =  1 Multiplicity = 2

 SCF Done:  E(UB3LYP) =  -824.947157458     A.U. after   29 cycles
 Normal termination of Gaussian 16 at Sun Dec 13 21:51:14 2020.
 Gaussian 16:  ES64L-G16RevA.03 25-Dec-2016

 ----------------------------------------------------------------------
 # B3LYP/6-311++G(d,p) empiricaldispersion=gd3bj scf=xqc pop=npa geom=c
 heck
 ----------------------------------------------------------------------

 ------------------------------------
 CID_104096113_JID_9774_Energie_anion
 ------------------------------------
 Structure from the checkpoint file:  "JID_9774.chk"
 Charge = -1 Multiplicity = 2

                         Standard orientation:
 ---------------------------------------------------------------------
 Center     Atomic      Atomic             Coordinates (Angstroms)
 Number     Number       Type             X           Y           Z
 ---------------------------------------------------------------------
      1          6           0       -2.400889   -2.512103    1.388524
      2          6           0       -2.450073   -1.295482    0.464297
      3          6           0       -1.080934   -0.660439    0.324457
      4          7           0       -0.007147   -1.416964    0.337886
      5          6           0        1.057095   -0.570681    0.106947
      6          6           0        0.599474    0.763226   -0.050091
      7          7           0       -0.798129    0.691674    0.085261
      8          6           0       -1.802413    1.803033    0.108012
      9          6           0       -2.877655    1.555385   -0.966439
     10          6           0       -2.394981    1.919967    1.526239
     11          6           0       -1.155606    3.156136   -0.217542
     12          6           0        1.538684    1.781698   -0.286692
     13          6           0        2.882162    1.428966   -0.356274
     14          6           0        3.338118    0.103093   -0.210502
     15          6           0        2.412405   -0.905977    0.025560
     16          6           0        4.816396   -0.204620   -0.337584
     17          7           0        5.200890   -1.352826    0.488854
     18          8           0       -3.026381   -1.599203   -0.814442
     19          6           0       -2.314296   -2.525412   -1.622842
     20          1           0       -1.631665   -3.219778    1.076489
     21          1           0       -3.380295   -3.000636    1.389670
     22          1           0       -2.161497   -2.195177    2.408817
     23          1           0       -3.161352   -0.582738    0.879020
     24          1           0       -3.373949    0.590609   -0.880706
     25          1           0       -3.632439    2.347191   -0.909434
     26          1           0       -2.417076    1.593943   -1.959450
     27          1           0       -1.592600    2.089812    2.251467
     28          1           0       -3.084198    2.769962    1.569514
     29          1           0       -2.946849    1.031492    1.836518
     30          1           0       -0.434911    3.462716    0.543803
     31          1           0       -0.672941    3.150317   -1.197640
     32          1           0       -1.950206    3.907731   -0.242799
     33          1           0        1.271781    2.818643   -0.412911
     34          1           0        3.611451    2.216670   -0.531540
     35          1           0        2.732832   -1.933967    0.151612
     36          1           0        5.047842   -0.468193   -1.379564
     37          1           0        5.385946    0.717777   -0.123409
     38          1           0        6.191973   -1.550305    0.364686
     39          1           0        5.068077   -1.121135    1.472248
     40          1           0       -1.286689   -2.198346   -1.817819
     41          1           0       -2.280321   -3.524380   -1.169086
     42          1           0       -2.866078   -2.582515   -2.564378
 ---------------------------------------------------------------------

 SCF Done:  E(UB3LYP) =  -825.214946032     A.U. after   33 cycles
 SCF Done:  E(UB3LYP) =  -825.214946032     a.u. after    1 cycles

 The electronic state is 2-A.
 Alpha  occ. eigenvalues --  -19.04254 -14.27426 -14.20102 -14.19926 -10.14768
 Alpha  occ. eigenvalues --  -10.14567 -10.14097 -10.12448 -10.11547 -10.10200
 Alpha  occ. eigenvalues --  -10.09458 -10.07975 -10.07764 -10.07674 -10.07644
 Alpha  occ. eigenvalues --  -10.07581 -10.07426 -10.06858 -10.06594  -0.95278
 Alpha  occ. eigenvalues --   -0.91659  -0.80401  -0.79400  -0.74847  -0.71358
 Alpha  occ. eigenvalues --   -0.69419  -0.65476  -0.63683  -0.61062  -0.60940
 Alpha  occ. eigenvalues --   -0.60231  -0.57478  -0.54575  -0.52378  -0.49984
 Alpha  occ. eigenvalues --   -0.48307  -0.46200  -0.42361  -0.41650  -0.40520
 Alpha  occ. eigenvalues --   -0.40186  -0.37839  -0.37374  -0.37177  -0.36399
 Alpha  occ. eigenvalues --   -0.35276  -0.34826  -0.33913  -0.33549  -0.33327
 Alpha  occ. eigenvalues --   -0.32128  -0.31524  -0.31006  -0.30368  -0.29919
 Alpha  occ. eigenvalues --   -0.29659  -0.29108  -0.28479  -0.27831  -0.26471
 Alpha  occ. eigenvalues --   -0.26412  -0.25200  -0.24349  -0.23433  -0.23069
 Alpha  occ. eigenvalues --   -0.20434  -0.18827  -0.17559  -0.15501  -0.13293
 Alpha  occ. eigenvalues --   -0.12696   0.03932
 Alpha virt. eigenvalues --    0.05248   0.06319   0.06500   0.07174   0.07524
 Alpha virt. eigenvalues --    0.08462   0.08588   0.08629   0.08879   0.09563
 Alpha virt. eigenvalues --    0.10192   0.10510   0.10716   0.11078   0.11206

  Beta  occ. eigenvalues --  -19.04246 -14.27425 -14.20070 -14.19914 -10.14763
  Beta  occ. eigenvalues --  -10.14564 -10.14060 -10.12444 -10.11549 -10.10180
  Beta  occ. eigenvalues --  -10.09458 -10.07947 -10.07769 -10.07668 -10.07614
  Beta  occ. eigenvalues --  -10.07546 -10.07417 -10.06837 -10.06548  -0.95259
  Beta  occ. eigenvalues --   -0.91636  -0.80380  -0.79344  -0.74807  -0.71332
  Beta  occ. eigenvalues --   -0.69389  -0.65427  -0.63637  -0.61035  -0.60884
  Beta  occ. eigenvalues --   -0.60194  -0.57411  -0.54532  -0.52332  -0.49948
  Beta  occ. eigenvalues --   -0.48269  -0.46167  -0.42322  -0.41620  -0.40485
  Beta  occ. eigenvalues --   -0.40148  -0.37806  -0.37345  -0.37139  -0.36366
  Beta  occ. eigenvalues --   -0.35244  -0.34787  -0.33884  -0.33515  -0.33296
  Beta  occ. eigenvalues --   -0.32087  -0.31509  -0.30966  -0.30326  -0.29880
  Beta  occ. eigenvalues --   -0.29633  -0.29073  -0.28450  -0.27806  -0.26436
  Beta  occ. eigenvalues --   -0.26380  -0.25175  -0.24323  -0.23368  -0.23024
  Beta  occ. eigenvalues --   -0.20361  -0.18812  -0.17540  -0.15462  -0.13167
  Beta  occ. eigenvalues --   -0.12594
  Beta virt. eigenvalues --    0.05935   0.06288   0.06630   0.06878   0.07461
  Beta virt. eigenvalues --    0.07957   0.08700   0.08774   0.08926   0.09293
  Beta virt. eigenvalues --    0.09849   0.10487   0.10775   0.10812   0.11138

 Mulliken charges and spin densities:
               1          2
     1  C   -0.112113  -0.502630
     2  C   -1.985262   1.069727
     3  C    0.217137  -0.163547
     4  N    0.194348  -0.027015
     5  C   -0.161018   0.091805
     6  C    0.934573  -0.900259
     7  N    0.511296  -0.087685
     8  C   -1.973401   1.842215
     9  C    0.501150  -0.877273
    10  C    1.469130  -1.885382
    11  C   -0.242680  -0.279880
    12  C    0.282584  -0.572507
    13  C    0.408369  -1.272062
    14  C   -0.848200   1.548481
    15  C   -0.986773   0.857299
    16  C    2.193380  -2.647948
    17  N   -0.449009   0.108547
    18  O    0.048137  -0.001248
    19  C   -0.082363  -0.160061
    20  H    0.166257   0.013785
    21  H    0.044032   0.114400
    22  H    0.108353   0.051470
    23  H   -0.068808   0.299066
    24  H    0.069924   0.178607
    25  H   -0.127584   0.280146
    26  H    0.054891   0.095907
    27  H   -0.045076   0.219128
    28  H   -0.376010   0.547378
    29  H   -0.090730   0.189765
    30  H    0.078627   0.070013
    31  H    0.014563   0.143236
    32  H   -0.616424   0.810547
    33  H   -0.223318   0.347811
    34  H   -0.028761   0.175801
    35  H    0.164417   0.036857
    36  H    0.060784   0.099138
    37  H   -0.450310   0.628143
    38  H   -0.069799   0.317424
    39  H    0.067780   0.132523
    40  H    0.136675   0.051567
    41  H    0.103715   0.017434
    42  H    0.107519   0.039273
 Sum of Mulliken charges =  -1.00000   1.00000

 Dipole moment (field-independent basis, Debye):
    X=             -2.6495    Y=             -3.7664    Z=             -1.3148  Tot=              4.7890
 Quadrupole moment (field-independent basis, Debye-Ang):
   XX=           -221.7927   YY=           -172.3279   ZZ=           -145.1885
   XY=             20.8675   XZ=              1.4130   YZ=             -0.9951

 Summary of Natural Population Analysis:

                                       Natural Population
                Natural  -----------------------------------------------
    Atom  No    Charge         Core      Valence    Rydberg      Total
 -----------------------------------------------------------------------
      C    1   -0.29527      0.99965     2.29096    0.00466     3.29527
      C    2    0.04123      0.99950     1.94423    0.01503     2.95877
      C    3    0.20687      0.99958     1.77694    0.01661     2.79313
      N    4   -0.25889      0.99967     2.74990    0.00931     3.75889
      C    5    0.05682      0.99948     1.93084    0.01286     2.94318
      C    6    0.06978      0.99944     1.92068    0.01010     2.93022
      N    7   -0.22111      0.99959     2.70989    0.01163     3.72111
      C    8    0.06869      0.99957     1.91887    0.01287     2.93131
      C    9   -0.29132      0.99961     2.28438    0.00733     3.29132
      C   10   -0.28557      0.99961     2.27919    0.00677     3.28557
      C   11   -0.29111      0.99962     2.28370    0.00778     3.29111
      C   12   -0.11329      0.99953     2.10524    0.00852     3.11329
      C   13   -0.09943      0.99953     2.09024    0.00966     3.09943
      C   14   -0.03318      0.99952     2.02333    0.01034     3.03318
      C   15   -0.09043      0.99947     2.08252    0.00845     3.09043
      C   16   -0.09201      0.99960     2.08046    0.01195     3.09201
      N   17   -0.42121      0.99978     2.91089    0.01054     3.92121
      O   18   -0.29972      0.99989     3.29090    0.00894     4.29972
      C   19   -0.10163      0.99960     2.09371    0.00833     3.10163
      H   20    0.11023      0.00000     0.38861    0.00116     0.38977
      H   21    0.09908      0.00000     0.40007    0.00086     0.40092
      H   22    0.10494      0.00000     0.39423    0.00083     0.39506
      H   23    0.09904      0.00000     0.39857    0.00239     0.40096
      H   24    0.11279      0.00000     0.38529    0.00192     0.38721
      H   25    0.10210      0.00000     0.39678    0.00112     0.39790
      H   26    0.10150      0.00000     0.39749    0.00101     0.39850
      H   27    0.10379      0.00000     0.39515    0.00106     0.39621
      H   28    0.10601      0.00000     0.39254    0.00145     0.39399
      H   29    0.09838      0.00000     0.40028    0.00134     0.40162
      H   30    0.10301      0.00000     0.39557    0.00142     0.39699
      H   31    0.10467      0.00000     0.39409    0.00125     0.39533
      H   32    0.10904      0.00000     0.38958    0.00138     0.39096
      H   33    0.10460      0.00000     0.39386    0.00155     0.39540
      H   34    0.09847      0.00000     0.40039    0.00114     0.40153
      H   35    0.11272      0.00000     0.38557    0.00171     0.38728
      H   36    0.09352      0.00000     0.40535    0.00113     0.40648
      H   37    0.08227      0.00000     0.41557    0.00215     0.41773
      H   38    0.17613      0.00000     0.32159    0.00228     0.32387
      H   39    0.17328      0.00000     0.32498    0.00174     0.32672
      H   40    0.08953      0.00000     0.40925    0.00122     0.41047
      H   41    0.07843      0.00000     0.42036    0.00121     0.42157
      H   42    0.08728      0.00000     0.41184    0.00087     0.41272
 =======================================================================
   * Total *   -0.00000     18.99224    51.78387    0.22389    71.00000

 Normal termination of Gaussian 16 at Sun Dec 13 22:23:19 2020.
