 Gaussian 16, Revision A.03,

 -----------------------------------------------------------
 # opt freq B3LYP/6-31G(d) empiricaldispersion=gd3bj scf=xqc
 -----------------------------------------------------------

 -------------------------------
 CID_131072011_JID_4815_neutraal
 -------------------------------
 Symbolic Z-matrix:
 Charge =  0 Multiplicity = 1

 SCF Done:  E(RB3LYP) =  -669.324504152     A.U. after   14 cycles
 SCF Done:  E(RB3LYP) =  -669.328615728     A.U. after   12 cycles
 SCF Done:  E(RB3LYP) =  -669.328900827     A.U. after   11 cycles
 SCF Done:  E(RB3LYP) =  -669.329044066     A.U. after   11 cycles
 SCF Done:  E(RB3LYP) =  -669.329092046     A.U. after   10 cycles
 SCF Done:  E(RB3LYP) =  -669.329160739     A.U. after   10 cycles
 SCF Done:  E(RB3LYP) =  -669.329215097     A.U. after   11 cycles
 SCF Done:  E(RB3LYP) =  -669.329230856     A.U. after    9 cycles
 SCF Done:  E(RB3LYP) =  -669.329235027     A.U. after    9 cycles
 SCF Done:  E(RB3LYP) =  -669.329235606     A.U. after    8 cycles
 Optimization completed.
    -- Stationary point found.
 Normal termination of Gaussian 16 at Thu Dec 10 10:36:50 2020.

 --------------------------------------------------------------------
 #N Geom=AllCheck Guess=TCheck SCRF=Check GenChk RB3LYP/6-31G(d) Freq
 --------------------------------------------------------------------

 Structure from the checkpoint file:  "JID_4815.chk"
 -------------------------------
 CID_131072011_JID_4815_neutraal
 -------------------------------
 Charge =  0 Multiplicity = 1

 SCF Done:  E(RB3LYP) =  -669.329235606     A.U. after    1 cycles

  Exact polarizability: 181.974  -7.712 119.572   4.638   3.046  74.285
 Approx polarizability: 227.466 -19.619 206.893  10.672   8.043 109.541

                      1                      2                      3
                      A                      A                      A
 Frequencies --     35.9515                49.7022                79.8974
 Red. masses --      3.5451                 4.2107                 5.1410
 Frc consts  --      0.0027                 0.0061                 0.0193
 IR Inten    --      0.1358                 1.0023                 1.9087

                      4                      5                      6
                      A                      A                      A
 Frequencies --     84.8577               120.9485               171.6989
 Red. masses --      4.8207                 5.2921                 4.8819
 Frc consts  --      0.0205                 0.0456                 0.0848
 IR Inten    --      0.4333                 6.2667                 6.4375

                      7                      8                      9
                      A                      A                      A
 Frequencies --    186.1124               228.7608               269.2646
 Red. masses --      4.8731                 1.1084                 1.2301
 Frc consts  --      0.0995                 0.0342                 0.0525
 IR Inten    --      1.5341                 0.0258                 0.1932

                     10                     11                     12
                      A                      A                      A
 Frequencies --    280.0799               317.2581               340.6659
 Red. masses --      2.7916                 1.8559                 4.6033
 Frc consts  --      0.1290                 0.1101                 0.3148
 IR Inten    --      0.6248                 0.2788                10.2464

                     13                     14                     15
                      A                      A                      A
 Frequencies --    360.6581               395.3536               418.7033
 Red. masses --      3.1239                 2.9550                 1.9371
 Frc consts  --      0.2394                 0.2721                 0.2001
 IR Inten    --      2.1682                 0.4110                 4.5818

                     16                     17                     18
                      A                      A                      A
 Frequencies --    477.4175               487.9720               534.4554
 Red. masses --      4.0295                 6.1627                 1.3351
 Frc consts  --      0.5411                 0.8646                 0.2247
 IR Inten    --     19.8467                 1.4960                69.7109

                     19                     20                     21
                      A                      A                      A
 Frequencies --    573.2294               613.4220               680.7235
 Red. masses --      4.7025                 3.1347                 3.7039
 Frc consts  --      0.9104                 0.6950                 1.0112
 IR Inten    --      6.4770                24.3914                26.8229

                     22                     23                     24
                      A                      A                      A
 Frequencies --    695.2493               705.4490               743.6653
 Red. masses --      4.4615                 4.0344                 1.5842
 Frc consts  --      1.2706                 1.1829                 0.5162
 IR Inten    --      7.1202                32.2762                78.0250

                     25                     26                     27
                      A                      A                      A
 Frequencies --    747.2850               868.1469               883.8735
 Red. masses --      4.1642                 4.6400                 1.3301
 Frc consts  --      1.3701                 2.0604                 0.6122
 IR Inten    --      2.8771                 2.8999                 3.5975

                     28                     29                     30
                      A                      A                      A
 Frequencies --    885.1486               932.1162               949.7231
 Red. masses --      2.1652                 2.0411                 1.2612
 Frc consts  --      0.9995                 1.0448                 0.6702
 IR Inten    --      0.1068                 3.4235                 0.3626

                     31                     32                     33
                      A                      A                      A
 Frequencies --    961.9084               968.2785               982.4949
 Red. masses --      7.4797                 2.2791                 1.6869
 Frc consts  --      4.0776                 1.2590                 0.9594
 IR Inten    --     11.2063                 4.7190                 0.9408

                     34                     35                     36
                      A                      A                      A
 Frequencies --   1007.4450              1045.9023              1068.6887
 Red. masses --      1.7714                 1.3168                 1.4046
 Frc consts  --      1.0593                 0.8487                 0.9452
 IR Inten    --      8.6502                43.9415                 1.7339

                     37                     38                     39
                      A                      A                      A
 Frequencies --   1090.7002              1120.3137              1153.3308
 Red. masses --      3.1331                 4.1700                 1.1748
 Frc consts  --      2.1960                 3.0836                 0.9207
 IR Inten    --    114.6010               408.2424                13.7930

                     40                     41                     42
                      A                      A                      A
 Frequencies --   1160.7039              1177.9517              1230.4613
 Red. masses --      4.1411                 1.3304                 2.3931
 Frc consts  --      3.2871                 1.0876                 2.1348
 IR Inten    --     75.7284                29.9774                 1.4644

                     43                     44                     45
                      A                      A                      A
 Frequencies --   1243.9502              1262.3006              1271.9875
 Red. masses --      1.5980                 2.4829                 2.1970
 Frc consts  --      1.4569                 2.3309                 2.0943
 IR Inten    --     35.5095                78.0520                 1.2610

                     46                     47                     48
                      A                      A                      A
 Frequencies --   1306.6944              1312.2879              1366.4941
 Red. masses --      1.3884                 2.4713                 1.9406
 Frc consts  --      1.3967                 2.5075                 2.1350
 IR Inten    --      0.5914                 2.7255                28.0828

                     49                     50                     51
                      A                      A                      A
 Frequencies --   1374.7889              1414.2157              1433.4490
 Red. masses --      4.7160                 3.7267                 1.3153
 Frc consts  --      5.2517                 4.3914                 1.5923
 IR Inten    --     15.5638               110.6992                 9.4781

                     52                     53                     54
                      A                      A                      A
 Frequencies --   1435.2647              1451.0287              1516.5280
 Red. masses --      4.5121                 1.2374                 1.0458
 Frc consts  --      5.4763                 1.5350                 1.4171
 IR Inten    --     17.2514                 4.0260                 0.0177

                     55                     56                     57
                      A                      A                      A
 Frequencies --   1518.1449              1530.2835              1533.2202
 Red. masses --      1.0519                 1.0627                 1.0619
 Frc consts  --      1.4284                 1.4662                 1.4708
 IR Inten    --      2.9147                 3.1367                 5.2827

                     58                     59                     60
                      A                      A                      A
 Frequencies --   1542.7327              1553.9637              1600.8500
 Red. masses --      1.0661                 1.1535                 6.9013
 Frc consts  --      1.4950                 1.6412                10.4203
 IR Inten    --      5.1501               133.4504               595.9840

                     61                     62                     63
                      A                      A                      A
 Frequencies --   1648.8793              1819.4904              3022.1656
 Red. masses --      7.4706                 9.3806                 1.0613
 Frc consts  --     11.9669                18.2969                 5.7113
 IR Inten    --    366.9625               457.6005                53.9227

                     64                     65                     66
                      A                      A                      A
 Frequencies --   3040.8275              3044.1751              3049.7502
 Red. masses --      1.0355                 1.0438                 1.0524
 Frc consts  --      5.6414                 5.6989                 5.7669
 IR Inten    --     18.9391                17.5631                52.1708

                     67                     68                     69
                      A                      A                      A
 Frequencies --   3085.7419              3104.3127              3107.9800
 Red. masses --      1.1033                 1.1052                 1.1035
 Frc consts  --      6.1894                 6.2749                 6.2803
 IR Inten    --     35.0702                15.3435                 3.2344

                     70                     71                     72
                      A                      A                      A
 Frequencies --   3112.5885              3115.7772              3118.8957
 Red. masses --      1.1019                 1.1031                 1.1027
 Frc consts  --      6.2900                 6.3093                 6.3199
 IR Inten    --     49.4566                40.3709                33.7393

                     73                     74                     75
                      A                      A                      A
 Frequencies --   3275.7630              3288.2438              3709.3666
 Red. masses --      1.0924                 1.1011                 1.0642
 Frc consts  --      6.9066                 7.0146                 8.6270
 IR Inten    --      4.6442                 0.5651                87.5770

 - Thermochemistry -
 -------------------
 Temperature   298.150 Kelvin.  Pressure   1.00000 Atm.
 Atom     1 has atomic number  6 and mass  12.00000

 Molecular mass:   195.08954 amu.
 Principal axes and moments of inertia in atomic units:
                           1         2         3
     Eigenvalues --   961.106945821.710626321.15537
           X            0.99995   0.01010  -0.00120
           Y           -0.01009   0.99995   0.00155
           Z            0.00121  -0.00154   1.00000
 This molecule is an asymmetric top.
 Rotational symmetry number  1.
 Warning -- assumption of classical behavior for rotation
           may cause significant error
 Rotational temperatures (Kelvin)      0.09012     0.01488     0.01370
 Rotational constants (GHZ):           1.87777     0.31000     0.28551
 Zero-point vibrational energy     581971.9 (Joules/Mol)
                                  139.09463 (Kcal/Mol)
 Warning -- explicit consideration of  20 degrees of freedom as
           vibrations may cause significant error
 Vibrational temperatures:     51.73    71.51   114.95   122.09   174.02
          (Kelvin)            247.04   267.77   329.14   387.41   402.97
                              456.46   490.14   518.91   568.83   602.42
                              686.90   702.08   768.96   824.75   882.58
                              979.41  1000.31  1014.98  1069.97  1075.18
                             1249.07  1271.70  1273.53  1341.11  1366.44
                             1383.97  1393.14  1413.59  1449.49  1504.82
                             1537.60  1569.27  1611.88  1659.39  1669.99
                             1694.81  1770.36  1789.77  1816.17  1830.11
                             1880.04  1888.09  1966.08  1978.01  2034.74
                             2062.41  2065.03  2087.71  2181.95  2184.27
                             2201.74  2205.96  2219.65  2235.81  2303.27
                             2372.37  2617.84  4348.22  4375.07  4379.89
                             4387.91  4439.69  4466.41  4471.69  4478.32
                             4482.91  4487.40  4713.09  4731.05  5336.95

 Zero-point correction=                           0.221661 (Hartree/Particle)
 Thermal correction to Energy=                    0.235050
 Thermal correction to Enthalpy=                  0.235994
 Thermal correction to Gibbs Free Energy=         0.180793
 Sum of electronic and zero-point Energies=           -669.107574
 Sum of electronic and thermal Energies=              -669.094186
 Sum of electronic and thermal Enthalpies=            -669.093242
 Sum of electronic and thermal Free Energies=         -669.148442

                     E (Thermal)             CV                S
                      KCal/Mol        Cal/Mol-Kelvin    Cal/Mol-Kelvin
 Total                  147.496             50.378            116.179
 Electronic               0.000              0.000              0.000
 Translational            0.889              2.981             41.710
 Rotational               0.889              2.981             31.937
 Vibrational            145.718             44.416             42.533
 Vibration     1          0.594              1.982              5.471
 Vibration     2          0.595              1.978              4.829
 Vibration     3          0.600              1.963              3.893
 Vibration     4          0.601              1.960              3.775
 Vibration     5          0.609              1.932              3.085
 Vibration     6          0.626              1.877              2.417
 Vibration     7          0.632              1.859              2.266
 Vibration     8          0.651              1.797              1.889
 Vibration     9          0.674              1.730              1.601
 Vibration    10          0.680              1.710              1.533
 Vibration    11          0.704              1.641              1.324
 Vibration    12          0.720              1.594              1.209
 Vibration    13          0.735              1.553              1.119
 Vibration    14          0.762              1.480              0.980
 Vibration    15          0.782              1.430              0.896
 Vibration    16          0.834              1.300              0.717
 Vibration    17          0.844              1.277              0.689
 Vibration    18          0.889              1.174              0.577
 Vibration    19          0.929              1.089              0.498
 Vibration    20          0.973              1.003              0.427

                           ! Non-Optimized Parameters !
 Normal termination of Gaussian 16 at Thu Dec 10 10:43:16 2020.

 ----------------------------------------------------------------------
 # B3LYP/6-311++G(d,p) empiricaldispersion=gd3bj scf=xqc pop=npa geom=c
 heck
 ----------------------------------------------------------------------

 ---------------------------------------
 CID_131072011_JID_4815_Energie_neutraal
 ---------------------------------------
 Structure from the checkpoint file:  "JID_4815.chk"
 Charge =  0 Multiplicity = 1

 SCF Done:  E(RB3LYP) =  -669.524855583     A.U. after   14 cycles
 Normal termination of Gaussian 16 at Thu Dec 10 10:46:17 2020.

 ----------------------------------------------------------------------
 # B3LYP/6-311++G(d,p) empiricaldispersion=gd3bj scf=xqc pop=npa geom=c
 heck
 ----------------------------------------------------------------------

 -------------------------------------
 CID_131072011_JID_4815_Energie_kation
 -------------------------------------
 Structure from the checkpoint file:  "JID_4815.chk"
 Charge =  1 Multiplicity = 2

 SCF Done:  E(UB3LYP) =  -669.252646189     A.U. after   20 cycles
 Normal termination of Gaussian 16 at Thu Dec 10 10:54:25 2020.
 Gaussian 16:  ES64L-G16RevA.03 25-Dec-2016

 ----------------------------------------------------------------------
 # B3LYP/6-311++G(d,p) empiricaldispersion=gd3bj scf=xqc pop=npa geom=c
 heck
 ----------------------------------------------------------------------

 ------------------------------------
 CID_131072011_JID_4815_Energie_anion
 ------------------------------------
 Structure from the checkpoint file:  "JID_4815.chk"
 Charge = -1 Multiplicity = 2

                         Standard orientation:
 ---------------------------------------------------------------------
 Center     Atomic      Atomic             Coordinates (Angstroms)
 Number     Number       Type             X           Y           Z
 ---------------------------------------------------------------------
      1          6           0       -4.104898   -0.473617   -1.044860
      2          6           0       -3.133106   -0.268101    0.115540
      3          6           0       -1.773226   -1.002905   -0.102733
      4          7           0       -1.172307    0.291372   -0.473808
      5          6           0       -2.330028    1.065327   -0.004043
      6          6           0        0.120498    0.642068   -0.239406
      7          6           0        0.733057    1.863607   -0.021350
      8          6           0        2.115396    1.573517    0.115823
      9          6           0        2.267494    0.216189   -0.017611
     10          8           0        1.024124   -0.361041   -0.236469
     11          6           0        3.402414   -0.678198    0.033661
     12          8           0        3.372987   -1.888329   -0.091787
     13          8           0        4.563299    0.011176    0.249458
     14          6           0       -3.796685   -0.511128    1.465157
     15          1           0       -4.957440    0.211466   -0.966010
     16          1           0       -4.495016   -1.498237   -1.048496
     17          1           0       -3.611622   -0.294596   -2.006589
     18          1           0       -1.340819   -1.428440    0.811909
     19          1           0       -1.738471   -1.753584   -0.898616
     20          1           0       -2.701417    1.801077   -0.726368
     21          1           0       -2.147316    1.563251    0.959139
     22          1           0        0.247331    2.826784    0.021971
     23          1           0        2.917866    2.274239    0.296496
     24          1           0        5.258714   -0.670792    0.267807
     25          1           0       -4.641707    0.171986    1.613492
     26          1           0       -4.180958   -1.536016    1.530710
     27          1           0       -3.091781   -0.361728    2.290510
 ---------------------------------------------------------------------

 SCF Done:  E(UB3LYP) =  -669.519115715     A.U. after   33 cycles
 SCF Done:  E(UB3LYP) =  -669.519115715     a.u. after    1 cycles

 The electronic state is 2-A.
 Alpha  occ. eigenvalues --  -19.06906 -19.05047 -18.97892 -14.23015 -10.17049
 Alpha  occ. eigenvalues --  -10.14987 -10.10291 -10.10141 -10.10082 -10.09314
 Alpha  occ. eigenvalues --  -10.06313 -10.06148 -10.06031 -10.05669  -1.00581
 Alpha  occ. eigenvalues --   -0.98286  -0.89142  -0.86464  -0.71473  -0.69449
 Alpha  occ. eigenvalues --   -0.64655  -0.59411  -0.59231  -0.58649  -0.51408
 Alpha  occ. eigenvalues --   -0.49467  -0.44470  -0.43890  -0.42999  -0.39149
 Alpha  occ. eigenvalues --   -0.38266  -0.36604  -0.35710  -0.35405  -0.33345
 Alpha  occ. eigenvalues --   -0.32167  -0.31846  -0.31563  -0.31171  -0.28676
 Alpha  occ. eigenvalues --   -0.28565  -0.28287  -0.27590  -0.26590  -0.24632
 Alpha  occ. eigenvalues --   -0.23189  -0.21494  -0.20884  -0.18593  -0.17573
 Alpha  occ. eigenvalues --   -0.16177  -0.08869   0.04297
 Alpha virt. eigenvalues --    0.06217   0.07733   0.08106   0.08197   0.08917
 Alpha virt. eigenvalues --    0.10069   0.10636   0.10949   0.11487   0.11679
 Alpha virt. eigenvalues --    0.12637   0.13960   0.14199   0.14518   0.14878

  Beta  occ. eigenvalues --  -19.06802 -19.05014 -18.97723 -14.23011 -10.16877
  Beta  occ. eigenvalues --  -10.14869 -10.10257 -10.10117 -10.10064 -10.09317
  Beta  occ. eigenvalues --  -10.06151 -10.06104 -10.05981 -10.05723  -1.00405
  Beta  occ. eigenvalues --   -0.98119  -0.88895  -0.86418  -0.71404  -0.69268
  Beta  occ. eigenvalues --   -0.64484  -0.59342  -0.59143  -0.58462  -0.51200
  Beta  occ. eigenvalues --   -0.49362  -0.44359  -0.43810  -0.42896  -0.39025
  Beta  occ. eigenvalues --   -0.38125  -0.36441  -0.35620  -0.34917  -0.33254
  Beta  occ. eigenvalues --   -0.32079  -0.31580  -0.31326  -0.31006  -0.28568
  Beta  occ. eigenvalues --   -0.28475  -0.28214  -0.27540  -0.26480  -0.24570
  Beta  occ. eigenvalues --   -0.23126  -0.21452  -0.20268  -0.18246  -0.16950
  Beta  occ. eigenvalues --   -0.16025  -0.08464
  Beta virt. eigenvalues --    0.06807   0.07750   0.08243   0.08409   0.08816
  Beta virt. eigenvalues --    0.09527   0.10359   0.10966   0.11336   0.11790
  Beta virt. eigenvalues --    0.11936   0.12823   0.14175   0.14339   0.14731

 Mulliken charges and spin densities:
               1          2
     1  C    1.322792  -1.928073
     2  C   -1.866522   2.542010
     3  C    0.262645  -0.799569
     4  N   -0.018065   0.072411
     5  C    0.721574  -1.190515
     6  C   -0.041633  -0.007444
     7  C   -0.131957  -0.082144
     8  C   -0.148018   0.228081
     9  C   -0.227497  -0.079318
    10  O   -0.104208   0.017496
    11  C    0.401594  -0.006973
    12  O   -0.378767   0.057260
    13  O   -0.227042   0.005378
    14  C    0.594293  -1.121438
    15  H   -0.300712   0.444639
    16  H   -0.218908   0.358675
    17  H   -0.120456   0.271363
    18  H    0.095538   0.079402
    19  H    0.070150   0.116563
    20  H   -0.098789   0.284721
    21  H   -0.136363   0.292187
    22  H   -0.006528   0.145385
    23  H    0.137886   0.023642
    24  H    0.267790   0.001079
    25  H   -0.424983   0.570644
    26  H   -0.223764   0.362048
    27  H   -0.200052   0.342490
 Sum of Mulliken charges =  -1.00000   1.00000

 Dipole moment (field-independent basis, Debye):
    X=              5.1578    Y=              1.8802    Z=             -0.6119  Tot=              5.5238
 Quadrupole moment (field-independent basis, Debye-Ang):
   XX=           -166.2993   YY=           -112.6885   ZZ=           -108.3146
   XY=              4.7812   XZ=              5.3123   YZ=             -1.0935

 Summary of Natural Population Analysis:

                                       Natural Population
                Natural  -----------------------------------------------
    Atom  No    Charge         Core      Valence    Rydberg      Total
 -----------------------------------------------------------------------
      C    1   -0.28352      0.99962     2.27702    0.00688     3.28352
      C    2   -0.05191      0.99957     2.04017    0.01217     3.05191
      C    3   -0.06473      0.99960     2.05573    0.00940     3.06473
      N    4   -0.25823      0.99964     2.74844    0.01014     3.75823
      C    5   -0.06706      0.99960     2.05643    0.01103     3.06706
      C    6    0.29355      0.99947     1.69197    0.01501     2.70645
      C    7   -0.20439      0.99954     2.19664    0.00822     3.20439
      C    8   -0.07838      0.99954     2.07010    0.00874     3.07838
      C    9    0.06321      0.99941     1.92355    0.01384     2.93679
      O   10   -0.22270      0.99985     3.21581    0.00704     4.22270
      C   11    0.38359      0.99963     1.59057    0.02621     2.61641
      O   12   -0.30608      0.99987     3.29967    0.00654     4.30608
      O   13   -0.35454      0.99988     3.34935    0.00531     4.35454
      C   14   -0.28462      0.99962     2.27807    0.00694     3.28462
      H   15    0.10250      0.00000     0.39601    0.00149     0.39750
      H   16    0.10098      0.00000     0.39780    0.00121     0.39902
      H   17    0.10118      0.00000     0.39757    0.00125     0.39882
      H   18    0.09561      0.00000     0.40300    0.00138     0.40439
      H   19    0.09478      0.00000     0.40380    0.00142     0.40522
      H   20    0.09289      0.00000     0.40580    0.00131     0.40711
      H   21    0.09424      0.00000     0.40400    0.00175     0.40576
      H   22    0.10741      0.00000     0.39174    0.00086     0.39259
      H   23    0.10613      0.00000     0.39290    0.00097     0.39387
      H   24    0.23365      0.00000     0.26376    0.00259     0.26635
      H   25    0.10352      0.00000     0.39462    0.00186     0.39648
      H   26    0.10158      0.00000     0.39716    0.00127     0.39842
      H   27    0.10135      0.00000     0.39725    0.00140     0.39865
 =======================================================================
   * Total *    0.00000     13.99484    37.83895    0.16621    52.00000

 Normal termination of Gaussian 16 at Thu Dec 10 11:03:08 2020.
