 Gaussian 16, Revision A.03,

 -----------------------------------------------------------
 # opt freq B3LYP/6-31G(d) empiricaldispersion=gd3bj scf=xqc
 -----------------------------------------------------------

 -----------------------------
 CID_55288359_JID_456_neutraal
 -----------------------------
 Symbolic Z-matrix:
 Charge =  0 Multiplicity = 1

 SCF Done:  E(RB3LYP) =  -479.770499632     A.U. after   14 cycles
 SCF Done:  E(RB3LYP) =  -479.776838136     A.U. after   13 cycles
 SCF Done:  E(RB3LYP) =  -479.775709542     A.U. after   13 cycles
 SCF Done:  E(RB3LYP) =  -479.777885331     A.U. after   13 cycles
 SCF Done:  E(RB3LYP) =  -479.778217286     A.U. after   11 cycles
 SCF Done:  E(RB3LYP) =  -479.778493889     A.U. after   12 cycles
 SCF Done:  E(RB3LYP) =  -479.778610078     A.U. after   12 cycles
 SCF Done:  E(RB3LYP) =  -479.778696594     A.U. after   12 cycles
 SCF Done:  E(RB3LYP) =  -479.778733163     A.U. after   11 cycles
 SCF Done:  E(RB3LYP) =  -479.778742231     A.U. after   11 cycles
 SCF Done:  E(RB3LYP) =  -479.779448812     A.U. after   11 cycles
 SCF Done:  E(RB3LYP) =  -479.779455432     A.U. after   11 cycles
 SCF Done:  E(RB3LYP) =  -479.779465275     A.U. after   10 cycles
 SCF Done:  E(RB3LYP) =  -479.779465719     A.U. after    8 cycles
 SCF Done:  E(RB3LYP) =  -479.779465798     A.U. after    7 cycles
 SCF Done:  E(RB3LYP) =  -479.779465819     A.U. after    7 cycles
 Optimization completed.
    -- Stationary point found.
 Normal termination of Gaussian 16 at Tue Dec  8 10:56:41 2020.

 --------------------------------------------------------------------
 #N Geom=AllCheck Guess=TCheck SCRF=Check GenChk RB3LYP/6-31G(d) Freq
 --------------------------------------------------------------------

 Structure from the checkpoint file:  "JID_456.chk"
 -----------------------------
 CID_55288359_JID_456_neutraal
 -----------------------------
 Charge =  0 Multiplicity = 1

 SCF Done:  E(RB3LYP) =  -479.779465819     A.U. after    1 cycles

  Exact polarizability:  94.529   0.308  80.782   0.578   0.268  73.103
 Approx polarizability: 115.516  -4.265 122.754   1.259   1.261 103.751

                      1                      2                      3
                      A                      A                      A
 Frequencies --     24.8470                73.0443                97.8963
 Red. masses --      3.8068                 3.7514                 3.6210
 Frc consts  --      0.0014                 0.0118                 0.0204
 IR Inten    --      0.7893                 3.5342                 1.8748

                      4                      5                      6
                      A                      A                      A
 Frequencies --    102.3210               185.0156               221.8271
 Red. masses --      2.8475                 1.8719                 1.1910
 Frc consts  --      0.0176                 0.0378                 0.0345
 IR Inten    --      3.5350                 0.2193                 0.0118

                      7                      8                      9
                      A                      A                      A
 Frequencies --    244.4225               263.5215               326.0799
 Red. masses --      1.3561                 2.0688                 2.4461
 Frc consts  --      0.0477                 0.0846                 0.1532
 IR Inten    --      1.4617                 0.0278                 1.9192

                     10                     11                     12
                      A                      A                      A
 Frequencies --    349.2797               353.1834               430.5118
 Red. masses --      2.8246                 2.4874                 3.6910
 Frc consts  --      0.2030                 0.1828                 0.4031
 IR Inten    --      7.7013                 7.1693                 6.3007

                     13                     14                     15
                      A                      A                      A
 Frequencies --    461.3810               537.7992               663.0675
 Red. masses --      5.0055                 3.1874                 1.9696
 Frc consts  --      0.6278                 0.5432                 0.5102
 IR Inten    --      8.1438                 8.1691                65.8399

                     16                     17                     18
                      A                      A                      A
 Frequencies --    758.5737               767.5250               817.8529
 Red. masses --      4.9993                 2.4392                 1.4069
 Frc consts  --      1.6949                 0.8466                 0.5544
 IR Inten    --      4.0159                 5.2421                16.3220

                     19                     20                     21
                      A                      A                      A
 Frequencies --    878.7615               895.2363               909.1142
 Red. masses --      2.7919                 1.6830                 2.4327
 Frc consts  --      1.2703                 0.7947                 1.1846
 IR Inten    --     16.2814                 1.0712                16.2802

                     22                     23                     24
                      A                      A                      A
 Frequencies --    932.0401               984.2037               997.2585
 Red. masses --      1.9249                 1.7743                 1.4680
 Frc consts  --      0.9852                 1.0126                 0.8602
 IR Inten    --      5.3321                 0.8105                 0.0678

                     25                     26                     27
                      A                      A                      A
 Frequencies --   1016.6738              1055.7990              1061.8299
 Red. masses --      2.4383                 3.5458                 2.7327
 Frc consts  --      1.4849                 2.3288                 1.8153
 IR Inten    --      0.6923                24.7041                13.7164

                     28                     29                     30
                      A                      A                      A
 Frequencies --   1133.0240              1140.4840              1178.0864
 Red. masses --      1.9542                 1.3486                 1.8395
 Frc consts  --      1.4781                 1.0335                 1.5042
 IR Inten    --     19.4771                12.7204                 2.7627

                     31                     32                     33
                      A                      A                      A
 Frequencies --   1181.6033              1206.1708              1221.1300
 Red. masses --      1.8315                 1.6162                 2.7618
 Frc consts  --      1.5066                 1.3853                 2.4264
 IR Inten    --     63.9646                44.7428               257.2055

                     34                     35                     36
                      A                      A                      A
 Frequencies --   1243.4944              1301.2354              1336.6073
 Red. masses --      3.1195                 1.2513                 2.3152
 Frc consts  --      2.8420                 1.2483                 2.4369
 IR Inten    --      1.4175                 7.9837                75.9517

                     37                     38                     39
                      A                      A                      A
 Frequencies --   1343.5766              1383.1031              1396.8898
 Red. masses --      1.1752                 1.6219                 1.2709
 Frc consts  --      1.2500                 1.8280                 1.4611
 IR Inten    --     28.0954                16.0635                13.9539

                     40                     41                     42
                      A                      A                      A
 Frequencies --   1420.7802              1443.7667              1443.9944
 Red. masses --      1.3266                 1.3419                 1.2528
 Frc consts  --      1.5778                 1.6480                 1.5390
 IR Inten    --      7.8538                11.0045                 4.4969

                     43                     44                     45
                      A                      A                      A
 Frequencies --   1516.1942              1518.7308              1518.9925
 Red. masses --      1.0544                 1.0495                 1.0745
 Frc consts  --      1.4282                 1.4262                 1.4607
 IR Inten    --      7.9687                 3.5505                 2.2992

                     46                     47                     48
                      A                      A                      A
 Frequencies --   1521.0514              1532.8584              1538.0431
 Red. masses --      1.0547                 1.0780                 1.0569
 Frc consts  --      1.4377                 1.4924                 1.4730
 IR Inten    --      7.4154                 2.1485                 5.7364

                     49                     50                     51
                      A                      A                      A
 Frequencies --   1556.2027              1805.1684              3020.3804
 Red. masses --      1.1114                11.4535                 1.0623
 Frc consts  --      1.5859                21.9899                 5.7098
 IR Inten    --     11.5992               208.1701                89.4432

                     52                     53                     54
                      A                      A                      A
 Frequencies --   3026.3555              3059.9242              3061.1350
 Red. masses --      1.0666                 1.0359                 1.0360
 Frc consts  --      5.7555                 5.7147                 5.7198
 IR Inten    --     36.0441                28.3102                13.2215

                     55                     56                     57
                      A                      A                      A
 Frequencies --   3085.4829              3093.4377              3094.2999
 Red. masses --      1.1018                 1.0998                 1.0597
 Frc consts  --      6.1804                 6.2006                 5.9780
 IR Inten    --     40.4401                46.3358                17.1966

                     58                     59                     60
                      A                      A                      A
 Frequencies --   3127.7893              3129.3569              3136.6769
 Red. masses --      1.1013                 1.1030                 1.1024
 Frc consts  --      6.3480                 6.3642                 6.3902
 IR Inten    --     27.1925                26.5236                16.7940

                     61                     62                     63
                      A                      A                      A
 Frequencies --   3138.7863              3158.9922              3515.4379
 Red. masses --      1.1044                 1.1078                 1.0763
 Frc consts  --      6.4107                 6.5134                 7.8369
 IR Inten    --      6.8372                28.5614                 2.7776

 - Thermochemistry -
 -------------------
 Temperature   298.150 Kelvin.  Pressure   1.00000 Atm.
 Atom     1 has atomic number  6 and mass  12.00000

 Molecular mass:   143.09463 amu.
 Principal axes and moments of inertia in atomic units:
                           1         2         3
     Eigenvalues --   828.438021897.478282288.69287
           X            0.99959   0.02817  -0.00561
           Y           -0.02816   0.99960   0.00218
           Z            0.00567  -0.00203   0.99998
 This molecule is an asymmetric top.
 Rotational symmetry number  1.
 Warning -- assumption of classical behavior for rotation
           may cause significant error
 Rotational temperatures (Kelvin)      0.10455     0.04565     0.03784
 Rotational constants (GHZ):           2.17849     0.95113     0.78855
 Zero-point vibrational energy     525987.9 (Joules/Mol)
                                  125.71412 (Kcal/Mol)
 Warning -- explicit consideration of  14 degrees of freedom as
           vibrations may cause significant error
 Vibrational temperatures:     35.75   105.09   140.85   147.22   266.20
          (Kelvin)            319.16   351.67   379.15   469.16   502.54
                              508.15   619.41   663.82   773.77   954.01
                             1091.42  1104.30  1176.71  1264.34  1288.05
                             1308.01  1341.00  1416.05  1434.83  1462.77
                             1519.06  1527.74  1630.17  1640.90  1695.00
                             1700.06  1735.41  1756.93  1789.11  1872.19
                             1923.08  1933.11  1989.98  2009.81  2044.19
                             2077.26  2077.59  2181.47  2185.11  2185.49
                             2188.45  2205.44  2212.90  2239.03  2597.23
                             4345.65  4354.25  4402.55  4404.29  4439.32
                             4450.77  4452.01  4500.19  4502.45  4512.98
                             4516.01  4545.09  5057.93

 Zero-point correction=                           0.200338 (Hartree/Particle)
 Thermal correction to Energy=                    0.211217
 Thermal correction to Enthalpy=                  0.212162
 Thermal correction to Gibbs Free Energy=         0.162938
 Sum of electronic and zero-point Energies=           -479.579128
 Sum of electronic and thermal Energies=              -479.568248
 Sum of electronic and thermal Enthalpies=            -479.567304
 Sum of electronic and thermal Free Energies=         -479.616528

                     E (Thermal)             CV                S
                      KCal/Mol        Cal/Mol-Kelvin    Cal/Mol-Kelvin
 Total                  132.541             39.281            103.600
 Electronic               0.000              0.000              0.000
 Translational            0.889              2.981             40.786
 Rotational               0.889              2.981             29.666
 Vibrational            130.764             33.319             33.148
 Vibration     1          0.593              1.985              6.203
 Vibration     2          0.599              1.967              4.070
 Vibration     3          0.603              1.951              3.496
 Vibration     4          0.604              1.947              3.410
 Vibration     5          0.631              1.860              2.277
 Vibration     6          0.648              1.808              1.944
 Vibration     7          0.660              1.772              1.770
 Vibration     8          0.670              1.740              1.638
 Vibration     9          0.710              1.623              1.279
 Vibration    10          0.727              1.577              1.169
 Vibration    11          0.729              1.569              1.152
 Vibration    12          0.792              1.404              0.857
 Vibration    13          0.819              1.336              0.762
 Vibration    14          0.893              1.166              0.570

 Optimization completed.
    -- Stationary point found.
 Normal termination of Gaussian 16 at Tue Dec  8 11:02:29 2020.

 ----------------------------------------------------------------------
 # B3LYP/6-311++G(d,p) empiricaldispersion=gd3bj scf=xqc pop=npa geom=c
 heck
 ----------------------------------------------------------------------

 -------------------------------------
 CID_55288359_JID_456_Energie_neutraal
 -------------------------------------
 Structure from the checkpoint file:  "JID_456.chk"
 Charge =  0 Multiplicity = 1

 SCF Done:  E(RB3LYP) =  -479.922040981     A.U. after   14 cycles
 Normal termination of Gaussian 16 at Tue Dec  8 11:05:41 2020.

 ----------------------------------------------------------------------
 # B3LYP/6-311++G(d,p) empiricaldispersion=gd3bj scf=xqc pop=npa geom=c
 heck
 ----------------------------------------------------------------------

 -----------------------------------
 CID_55288359_JID_456_Energie_kation
 -----------------------------------
 Structure from the checkpoint file:  "JID_456.chk"
 Charge =  1 Multiplicity = 2

 SCF Done:  E(UB3LYP) =  -479.601237747     A.U. after   22 cycles
 Normal termination of Gaussian 16 at Tue Dec  8 11:09:51 2020.
 Gaussian 16:  ES64L-G16RevA.03 25-Dec-2016

 ----------------------------------------------------------------------
 # B3LYP/6-311++G(d,p) empiricaldispersion=gd3bj scf=xqc pop=npa geom=c
 heck
 ----------------------------------------------------------------------

 ----------------------------------
 CID_55288359_JID_456_Energie_anion
 ----------------------------------
 Structure from the checkpoint file:  "JID_456.chk"
 Charge = -1 Multiplicity = 2

                         Standard orientation:
 ---------------------------------------------------------------------
 Center     Atomic      Atomic             Coordinates (Angstroms)
 Number     Number       Type             X           Y           Z
 ---------------------------------------------------------------------
      1          6           0       -3.147638   -0.373575    0.731432
      2          6           0       -2.430482   -0.409735   -0.608354
      3          8           0       -1.001119   -0.524698   -0.428685
      4          6           0       -0.330386    0.620255   -0.183682
      5          8           0       -0.857808    1.713554   -0.139238
      6          6           0        1.149583    0.367725    0.037697
      7          6           0        1.429100   -0.736186    1.111026
      8          7           0        1.778603   -1.704669    0.048794
      9          6           0        1.785274   -0.637075   -0.976396
     10          6           0        1.888536    1.684815    0.228710
     11          1           0       -2.891756   -1.254143    1.329517
     12          1           0       -4.232336   -0.364489    0.575637
     13          1           0       -2.872133    0.526879    1.286969
     14          1           0       -2.701016   -1.296195   -1.186313
     15          1           0       -2.641212    0.487950   -1.194711
     16          1           0        2.254389   -0.446107    1.776471
     17          1           0        0.574403   -1.045246    1.722904
     18          1           0        2.674425   -2.166687    0.180316
     19          1           0        1.186962   -0.876041   -1.861759
     20          1           0        2.780784   -0.301570   -1.299669
     21          1           0        1.783427    2.324199   -0.653464
     22          1           0        1.487406    2.237330    1.083636
     23          1           0        2.953927    1.498613    0.399694
 ---------------------------------------------------------------------

 SCF Done:  E(UB3LYP) =  -479.905265853     A.U. after   32 cycles

 The electronic state is 2-A.
 Alpha  occ. eigenvalues --  -19.06308 -19.01014 -14.18836 -10.19718 -10.12736
 Alpha  occ. eigenvalues --  -10.09409 -10.09342 -10.09185 -10.06608 -10.05900
 Alpha  occ. eigenvalues --   -1.00534  -0.91879  -0.82622  -0.68699  -0.66131
 Alpha  occ. eigenvalues --   -0.57926  -0.57613  -0.54503  -0.48649  -0.44406
 Alpha  occ. eigenvalues --   -0.41182  -0.39831  -0.37864  -0.36520  -0.35844
 Alpha  occ. eigenvalues --   -0.33532  -0.30933  -0.29920  -0.29500  -0.28893
 Alpha  occ. eigenvalues --   -0.27809  -0.27611  -0.26189  -0.25024  -0.23649
 Alpha  occ. eigenvalues --   -0.21081  -0.20493  -0.17478  -0.12325   0.04717
 Alpha virt. eigenvalues --    0.06272   0.08127   0.08249   0.09039   0.09519
 Alpha virt. eigenvalues --    0.10097   0.10175   0.11357   0.11668   0.12143
 Alpha virt. eigenvalues --    0.12906   0.13552   0.14252   0.14921   0.15962

  Beta  occ. eigenvalues --  -19.06308 -19.01004 -14.18811 -10.19708 -10.12718
  Beta  occ. eigenvalues --  -10.09410 -10.09319 -10.09156 -10.06573 -10.05872
  Beta  occ. eigenvalues --   -1.00523  -0.91867  -0.82591  -0.68667  -0.66094
  Beta  occ. eigenvalues --   -0.57870  -0.57550  -0.54432  -0.48586  -0.44378
  Beta  occ. eigenvalues --   -0.41104  -0.39791  -0.37824  -0.36489  -0.35817
  Beta  occ. eigenvalues --   -0.33501  -0.30893  -0.29880  -0.29461  -0.28849
  Beta  occ. eigenvalues --   -0.27765  -0.27573  -0.26147  -0.24993  -0.23622
  Beta  occ. eigenvalues --   -0.21051  -0.20475  -0.17463  -0.12286
  Beta virt. eigenvalues --    0.07079   0.07860   0.08621   0.08817   0.09391
  Beta virt. eigenvalues --    0.10175   0.10586   0.10667   0.11779   0.11933
  Beta virt. eigenvalues --    0.12757   0.13431   0.13842   0.14447   0.15252

 Mulliken charges and spin densities:
               1          2
     1  C    0.726453  -1.110835
     2  C    0.014916  -0.133965
     3  O   -0.010333   0.047638
     4  C   -0.717933   0.252231
     5  O   -0.261687  -0.001182
     6  C   -2.230516   2.572820
     7  C    1.455899  -1.850911
     8  N   -0.514399   0.331765
     9  C    1.263264  -1.594037
    10  C    1.789157  -2.225523
    11  H   -0.024838   0.170308
    12  H   -0.519332   0.666550
    13  H   -0.084067   0.246971
    14  H   -0.344140   0.508759
    15  H    0.086922   0.075260
    16  H   -0.686052   0.829796
    17  H    0.223441  -0.030502
    18  H   -0.213911   0.468406
    19  H    0.103880   0.103023
    20  H   -0.732070   0.878401
    21  H    0.004810   0.152798
    22  H    0.010706   0.153697
    23  H   -0.340167   0.488533
 Sum of Mulliken charges =  -1.00000   1.00000

 Dipole moment (field-independent basis, Debye):
    X=             -2.5117    Y=              1.7816    Z=             -0.6156  Tot=              3.1403
 Quadrupole moment (field-independent basis, Debye-Ang):
   XX=           -141.0802   YY=            -99.1677   ZZ=            -88.6186
   XY=              1.0447   XZ=             -0.9493   YZ=             -0.8342

 Summary of Natural Population Analysis:

                                       Natural Population
                Natural  -----------------------------------------------
    Atom  No    Charge         Core      Valence    Rydberg      Total
 -----------------------------------------------------------------------
      C    1   -0.29977      0.99966     2.29507    0.00504     3.29977
      C    2   -0.01675      0.99958     2.00503    0.01215     3.01675
      O    3   -0.27881      0.99986     3.27025    0.00870     4.27881
      C    4    0.41794      0.99961     1.55723    0.02522     2.58206
      O    5   -0.31103      0.99987     3.30567    0.00550     4.31103
      C    6   -0.09538      0.99952     2.08186    0.01400     3.09538
      C    7   -0.06774      0.99961     2.05712    0.01101     3.06774
      N    8   -0.34117      0.99976     2.82824    0.01317     3.84117
      C    9   -0.06879      0.99962     2.05793    0.01125     3.06879
      C   10   -0.28153      0.99963     2.27462    0.00727     3.28153
      H   11    0.10104      0.00000     0.39788    0.00108     0.39896
      H   12    0.10354      0.00000     0.39443    0.00203     0.39646
      H   13    0.10455      0.00000     0.39442    0.00103     0.39545
      H   14    0.09155      0.00000     0.40715    0.00130     0.40845
      H   15    0.09319      0.00000     0.40557    0.00125     0.40681
      H   16    0.08995      0.00000     0.40759    0.00246     0.41005
      H   17    0.09064      0.00000     0.40747    0.00189     0.40936
      H   18    0.17604      0.00000     0.31930    0.00466     0.32396
      H   19    0.09128      0.00000     0.40688    0.00184     0.40872
      H   20    0.09078      0.00000     0.40623    0.00299     0.40922
      H   21    0.10322      0.00000     0.39576    0.00103     0.39678
      H   22    0.10455      0.00000     0.39440    0.00105     0.39545
      H   23    0.10270      0.00000     0.39554    0.00177     0.39730
 =======================================================================
   * Total *    0.00000      9.99672    28.86561    0.13767    39.00000

 Normal termination of Gaussian 16 at Tue Dec  8 11:15:57 2020.
