 Gaussian 16, Revision A.03,

 -----------------------------------------------------------
 # opt freq B3LYP/6-31G(d) empiricaldispersion=gd3bj scf=xqc
 -----------------------------------------------------------

 ------------------------------
 CID_20305678_JID_3466_neutraal
 ------------------------------
 Symbolic Z-matrix:
 Charge =  0 Multiplicity = 1

 SCF Done:  E(RB3LYP) =  -559.427613690     A.U. after   13 cycles
 SCF Done:  E(RB3LYP) =  -559.430523280     A.U. after   12 cycles
 SCF Done:  E(RB3LYP) =  -559.430854395     A.U. after   11 cycles
 SCF Done:  E(RB3LYP) =  -559.431039150     A.U. after   11 cycles
 SCF Done:  E(RB3LYP) =  -559.431130169     A.U. after   11 cycles
 SCF Done:  E(RB3LYP) =  -559.431194888     A.U. after   11 cycles
 SCF Done:  E(RB3LYP) =  -559.431224103     A.U. after    9 cycles
 SCF Done:  E(RB3LYP) =  -559.431226938     A.U. after    8 cycles
 SCF Done:  E(RB3LYP) =  -559.431228071     A.U. after    8 cycles
 SCF Done:  E(RB3LYP) =  -559.431228237     A.U. after    7 cycles
 SCF Done:  E(RB3LYP) =  -559.431228294     A.U. after    7 cycles
 Optimization completed.
    -- Stationary point found.
 Normal termination of Gaussian 16 at Wed Dec  9 23:22:22 2020.

 --------------------------------------------------------------------
 #N Geom=AllCheck Guess=TCheck SCRF=Check GenChk RB3LYP/6-31G(d) Freq
 --------------------------------------------------------------------

 Structure from the checkpoint file:  "JID_3466.chk"
 ------------------------------
 CID_20305678_JID_3466_neutraal
 ------------------------------
 Charge =  0 Multiplicity = 1

 SCF Done:  E(RB3LYP) =  -559.431228294     A.U. after    1 cycles

  Exact polarizability: 159.497  -0.093 138.165   9.135   7.955  78.554
 Approx polarizability: 225.219   2.878 213.433  15.467  17.967 117.839

                      1                      2                      3
                      A                      A                      A
 Frequencies --     42.0032                63.1512                92.2393
 Red. masses --      4.3087                 4.0292                 2.6547
 Frc consts  --      0.0045                 0.0095                 0.0133
 IR Inten    --      0.7037                 1.2348                 0.0289

                      4                      5                      6
                      A                      A                      A
 Frequencies --    101.7744               130.0755               178.1398
 Red. masses --      3.6533                 2.6836                 2.7972
 Frc consts  --      0.0223                 0.0268                 0.0523
 IR Inten    --      2.1209                 0.5442                 3.7330

                      7                      8                      9
                      A                      A                      A
 Frequencies --    186.1725               216.7579               224.8123
 Red. masses --      1.2137                 2.3757                 1.1016
 Frc consts  --      0.0248                 0.0658                 0.0328
 IR Inten    --      0.9377                 0.8208                 0.1496

                     10                     11                     12
                      A                      A                      A
 Frequencies --    268.7747               279.5253               360.1006
 Red. masses --      2.7028                 3.9307                 2.8095
 Frc consts  --      0.1150                 0.1810                 0.2146
 IR Inten    --      2.9780                 3.4517                12.9199

                     13                     14                     15
                      A                      A                      A
 Frequencies --    376.3686               400.8548               435.5521
 Red. masses --      2.6646                 2.1644                 1.3452
 Frc consts  --      0.2224                 0.2049                 0.1504
 IR Inten    --      4.4504                 8.2833               113.1149

                     16                     17                     18
                      A                      A                      A
 Frequencies --    480.6117               509.7674               536.6714
 Red. masses --      3.1702                 2.5624                 2.1982
 Frc consts  --      0.4314                 0.3923                 0.3730
 IR Inten    --      4.2424                 8.5693                13.5228

                     19                     20                     21
                      A                      A                      A
 Frequencies --    546.8143               563.1068               580.0516
 Red. masses --      2.1345                 3.3402                 3.5817
 Frc consts  --      0.3760                 0.6240                 0.7100
 IR Inten    --     30.0188                 6.4825                 0.4094

                     22                     23                     24
                      A                      A                      A
 Frequencies --    621.5912               723.9798               751.6758
 Red. masses --      2.5571                 2.7138                 2.1748
 Frc consts  --      0.5821                 0.8381                 0.7240
 IR Inten    --     31.1327                 8.9583                 7.9363

                     25                     26                     27
                      A                      A                      A
 Frequencies --    785.1444               800.1382               810.1259
 Red. masses --      1.7556                 1.2972                 3.3727
 Frc consts  --      0.6376                 0.4893                 1.3042
 IR Inten    --     33.1031                 3.1785                 2.2779

                     28                     29                     30
                      A                      A                      A
 Frequencies --    867.3918               869.4875               896.4607
 Red. masses --      1.6590                 1.8006                 2.3902
 Frc consts  --      0.7354                 0.8020                 1.1318
 IR Inten    --      4.7881                 3.3316                 7.2423

                     31                     32                     33
                      A                      A                      A
 Frequencies --    952.2521               955.7899               978.2870
 Red. masses --      1.9683                 1.2456                 2.3955
 Frc consts  --      1.0516                 0.6704                 1.3508
 IR Inten    --      6.9778                 0.4193                 1.5255

                     34                     35                     36
                      A                      A                      A
 Frequencies --   1034.7061              1068.9721              1076.9103
 Red. masses --      1.5188                 1.5132                 2.1645
 Frc consts  --      0.9580                 1.0188                 1.4790
 IR Inten    --      4.4130                 2.2010                52.1889

                     37                     38                     39
                      A                      A                      A
 Frequencies --   1094.6667              1107.5427              1119.0984
 Red. masses --      1.9323                 2.1285                 2.2275
 Frc consts  --      1.3642                 1.5383                 1.6436
 IR Inten    --      7.7462                35.0100                16.1116

                     40                     41                     42
                      A                      A                      A
 Frequencies --   1145.5754              1166.6885              1207.1976
 Red. masses --      1.9026                 2.7504                 1.7337
 Frc consts  --      1.4711                 2.2058                 1.4886
 IR Inten    --      3.0410                31.3508                 0.8880

                     43                     44                     45
                      A                      A                      A
 Frequencies --   1217.3150              1224.1717              1282.3463
 Red. masses --      1.3413                 1.3898                 1.6019
 Frc consts  --      1.1711                 1.2271                 1.5520
 IR Inten    --      5.6460                39.2329                 2.5263

                     46                     47                     48
                      A                      A                      A
 Frequencies --   1287.6534              1301.8151              1334.0223
 Red. masses --      1.4093                 1.6949                 1.9815
 Frc consts  --      1.3767                 1.6924                 2.0776
 IR Inten    --      7.9063                11.9950                57.7257

                     49                     50                     51
                      A                      A                      A
 Frequencies --   1369.8480              1373.3390              1401.9333
 Red. masses --      2.4871                 1.6024                 1.2441
 Frc consts  --      2.7497                 1.7806                 1.4406
 IR Inten    --     43.9811                20.0568                 4.1796

                     52                     53                     54
                      A                      A                      A
 Frequencies --   1408.3042              1433.1443              1444.7103
 Red. masses --      1.2978                 1.2307                 1.2447
 Frc consts  --      1.5166                 1.4893                 1.5307
 IR Inten    --     29.3640                 0.9342                 2.5093

                     55                     56                     57
                      A                      A                      A
 Frequencies --   1449.3764              1469.8325              1510.7115
 Red. masses --      1.3032                 1.8682                 1.2659
 Frc consts  --      1.6130                 2.3780                 1.7021
 IR Inten    --     65.4489                 3.0918                14.4368

                     58                     59                     60
                      A                      A                      A
 Frequencies --   1515.3773              1519.9727              1522.7329
 Red. masses --      1.1513                 1.0663                 1.2535
 Frc consts  --      1.5577                 1.4514                 1.7125
 IR Inten    --      1.8485                 9.5198                29.4900

                     61                     62                     63
                      A                      A                      A
 Frequencies --   1529.8381              1535.4191              1538.8034
 Red. masses --      1.3990                 1.0520                 1.1116
 Frc consts  --      1.9292                 1.4613                 1.5508
 IR Inten    --      7.5423                 2.7865                 3.4427

                     64                     65                     66
                      A                      A                      A
 Frequencies --   1548.1008              1567.7092              1651.7103
 Red. masses --      1.4261                 1.3129                 5.7514
 Frc consts  --      2.0138                 1.9011                 9.2447
 IR Inten    --     53.7657                21.1691                83.4360

                     67                     68                     69
                      A                      A                      A
 Frequencies --   1659.1544              3007.3975              3009.1002
 Red. masses --      4.9840                 1.0703                 1.0748
 Frc consts  --      8.0835                 5.7037                 5.7339
 IR Inten    --      9.5276                32.4364                58.7020

                     70                     71                     72
                      A                      A                      A
 Frequencies --   3027.8832              3042.0378              3053.0103
 Red. masses --      1.0672                 1.0391                 1.0350
 Frc consts  --      5.7645                 5.6657                 5.6839
 IR Inten    --     46.0473                27.8814                33.8336

                     73                     74                     75
                      A                      A                      A
 Frequencies --   3092.6326              3096.6150              3107.7731
 Red. masses --      1.0999                 1.0936                 1.0976
 Frc consts  --      6.1979                 6.1784                 6.2461
 IR Inten    --     20.9720                31.4745                60.0558

                     76                     77                     78
                      A                      A                      A
 Frequencies --   3108.0549              3120.6578              3127.6838
 Red. masses --      1.0898                 1.1025                 1.1002
 Frc consts  --      6.2026                 6.3258                 6.3409
 IR Inten    --      3.4488                39.9901                27.6845

                     79                     80                     81
                      A                      A                      A
 Frequencies --   3132.6836              3182.2986              3199.5186
 Red. masses --      1.0996                 1.0862                 1.0938
 Frc consts  --      6.3579                 6.4812                 6.5970
 IR Inten    --     35.5637                 5.9399                32.0586

                     82                     83                     84
                      A                      A                      A
 Frequencies --   3229.8709              3614.4255              3674.1635
 Red. masses --      1.0913                 1.0755                 1.0646
 Frc consts  --      6.7076                 8.2782                 8.4675
 IR Inten    --     16.5824                10.1161                45.4595

 - Thermochemistry -
 -------------------
 Temperature   298.150 Kelvin.  Pressure   1.00000 Atm.
 Atom     1 has atomic number  6 and mass  12.00000

 Molecular mass:   179.13101 amu.
 Principal axes and moments of inertia in atomic units:
                           1         2         3
     Eigenvalues --  1479.988883447.330004479.76962
           X            0.99964  -0.02548   0.00892
           Y            0.02547   0.99967   0.00166
           Z           -0.00896  -0.00143   0.99996
 This molecule is an asymmetric top.
 Rotational symmetry number  1.
 Warning -- assumption of classical behavior for rotation
           may cause significant error
 Rotational temperatures (Kelvin)      0.05852     0.02512     0.01933
 Rotational constants (GHZ):           1.21943     0.52352     0.40286
 Zero-point vibrational energy     697005.1 (Joules/Mol)
                                  166.58822 (Kcal/Mol)
 Warning -- explicit consideration of  21 degrees of freedom as
           vibrations may cause significant error
 Vibrational temperatures:     60.43    90.86   132.71   146.43   187.15
          (Kelvin)            256.30   267.86   311.87   323.45   386.71
                              402.17   518.10   541.51   576.74   626.66
                              691.49   733.44   772.15   786.74   810.19
                              834.56   894.33  1041.65  1081.49  1129.65
                             1151.22  1165.59  1247.98  1251.00  1289.81
                             1370.08  1375.17  1407.54  1488.71  1538.01
                             1549.43  1574.98  1593.51  1610.13  1648.23
                             1678.60  1736.89  1751.44  1761.31  1845.01
                             1852.65  1873.02  1919.36  1970.91  1975.93
                             2017.07  2026.24  2061.98  2078.62  2085.33
                             2114.76  2173.58  2180.29  2186.90  2190.87
                             2201.10  2209.13  2213.99  2227.37  2255.58
                             2376.44  2387.15  4326.97  4329.42  4356.45
                             4376.81  4392.60  4449.61  4455.34  4471.39
                             4471.80  4489.93  4500.04  4507.23  4578.62
                             4603.39  4647.06  5200.35  5286.30

 Zero-point correction=                           0.265475 (Hartree/Particle)
 Thermal correction to Energy=                    0.279015
 Thermal correction to Enthalpy=                  0.279959
 Thermal correction to Gibbs Free Energy=         0.225376
 Sum of electronic and zero-point Energies=           -559.165753
 Sum of electronic and thermal Energies=              -559.152213
 Sum of electronic and thermal Enthalpies=            -559.151269
 Sum of electronic and thermal Free Energies=         -559.205852

                     E (Thermal)             CV                S
                      KCal/Mol        Cal/Mol-Kelvin    Cal/Mol-Kelvin
 Total                  175.084             51.714            114.879
 Electronic               0.000              0.000              0.000
 Translational            0.889              2.981             41.456
 Rotational               0.889              2.981             31.503
 Vibrational            173.307             45.752             41.920
 Vibration     1          0.595              1.980              5.162
 Vibration     2          0.597              1.972              4.356
 Vibration     3          0.602              1.955              3.612
 Vibration     4          0.604              1.948              3.420
 Vibration     5          0.612              1.923              2.945
 Vibration     6          0.629              1.869              2.348
 Vibration     7          0.632              1.859              2.266
 Vibration     8          0.646              1.816              1.986
 Vibration     9          0.649              1.803              1.920
 Vibration    10          0.673              1.731              1.604
 Vibration    11          0.680              1.711              1.537
 Vibration    12          0.735              1.554              1.122
 Vibration    13          0.747              1.520              1.054
 Vibration    14          0.767              1.468              0.960
 Vibration    15          0.796              1.393              0.841
 Vibration    16          0.837              1.293              0.708
 Vibration    17          0.865              1.228              0.634
 Vibration    18          0.892              1.169              0.572
 Vibration    19          0.902              1.147              0.551
 Vibration    20          0.919              1.111              0.518
 Vibration    21          0.937              1.074              0.485

 Optimization completed.
    -- Stationary point found.
 Normal termination of Gaussian 16 at Wed Dec  9 23:30:56 2020.

 ----------------------------------------------------------------------
 # B3LYP/6-311++G(d,p) empiricaldispersion=gd3bj scf=xqc pop=npa geom=c
 heck
 ----------------------------------------------------------------------

 --------------------------------------
 CID_20305678_JID_3466_Energie_neutraal
 --------------------------------------
 Structure from the checkpoint file:  "JID_3466.chk"
 Charge =  0 Multiplicity = 1

 SCF Done:  E(RB3LYP) =  -559.596536102     A.U. after   14 cycles
 Normal termination of Gaussian 16 at Wed Dec  9 23:34:51 2020.

 ----------------------------------------------------------------------
 # B3LYP/6-311++G(d,p) empiricaldispersion=gd3bj scf=xqc pop=npa geom=c
 heck
 ----------------------------------------------------------------------

 ------------------------------------
 CID_20305678_JID_3466_Energie_kation
 ------------------------------------
 Structure from the checkpoint file:  "JID_3466.chk"
 Charge =  1 Multiplicity = 2

 SCF Done:  E(UB3LYP) =  -559.321010140     A.U. after   22 cycles
 Normal termination of Gaussian 16 at Wed Dec  9 23:43:41 2020.
 Gaussian 16:  ES64L-G16RevA.03 25-Dec-2016

 ----------------------------------------------------------------------
 # B3LYP/6-311++G(d,p) empiricaldispersion=gd3bj scf=xqc pop=npa geom=c
 heck
 ----------------------------------------------------------------------

 -----------------------------------
 CID_20305678_JID_3466_Energie_anion
 -----------------------------------
 Structure from the checkpoint file:  "JID_3466.chk"
 Charge = -1 Multiplicity = 2

                         Standard orientation:
 ---------------------------------------------------------------------
 Center     Atomic      Atomic             Coordinates (Angstroms)
 Number     Number       Type             X           Y           Z
 ---------------------------------------------------------------------
      1          6           0       -0.759602    2.678402   -0.628251
      2          6           0       -1.185949    1.820684    0.576070
      3          6           0       -1.119203    0.334169    0.292030
      4          6           0       -2.280693   -0.385422   -0.039919
      5          6           0       -2.198583   -1.752113   -0.331911
      6          6           0       -0.971358   -2.404835   -0.299832
      7          6           0        0.188638   -1.707099    0.019632
      8          6           0        0.129406   -0.336047    0.313229
      9          7           0        1.297921    0.391594    0.593085
     10          6           0        2.545632   -0.266331    0.979226
     11          6           0        3.417515   -0.535816   -0.252474
     12          8           0        3.628581    0.658354   -0.981600
     13          6           0       -3.632360    0.291987   -0.091110
     14          1           0        0.262224    2.438143   -0.938773
     15          1           0       -0.804604    3.747185   -0.390370
     16          1           0       -1.417019    2.489973   -1.483629
     17          1           0       -2.201145    2.097423    0.871279
     18          1           0       -0.563630    2.078384    1.446483
     19          1           0       -3.101747   -2.298276   -0.588999
     20          1           0       -0.910810   -3.465274   -0.528872
     21          1           0        1.138390   -2.227696    0.027358
     22          1           0        1.121772    1.240542    1.110099
     23          1           0        3.087298    0.424038    1.633219
     24          1           0        2.361744   -1.190287    1.546202
     25          1           0        4.400379   -0.903991    0.060069
     26          1           0        2.954628   -1.309591   -0.884916
     27          1           0        2.738451    1.040906   -1.083567
     28          1           0       -3.638512    1.148292   -0.775881
     29          1           0       -4.399812   -0.408958   -0.431637
     30          1           0       -3.942353    0.665725    0.893004
 ---------------------------------------------------------------------

 SCF Done:  E(UB3LYP) =  -559.583443713     A.U. after   33 cycles
 SCF Done:  E(UB3LYP) =  -559.583443713     a.u. after    1 cycles

 The electronic state is 2-A.
 Alpha  occ. eigenvalues --  -19.02217 -14.22515 -10.12045 -10.11214 -10.10577
 Alpha  occ. eigenvalues --  -10.07973 -10.07204 -10.07187 -10.06753 -10.06677
 Alpha  occ. eigenvalues --  -10.06643 -10.06204 -10.05524  -0.92788  -0.83615
 Alpha  occ. eigenvalues --   -0.75066  -0.68789  -0.66779  -0.64003  -0.61152
 Alpha  occ. eigenvalues --   -0.58586  -0.53692  -0.52889  -0.48219  -0.46956
 Alpha  occ. eigenvalues --   -0.43197  -0.40539  -0.40335  -0.37556  -0.36338
 Alpha  occ. eigenvalues --   -0.35461  -0.33873  -0.32547  -0.31952  -0.31622
 Alpha  occ. eigenvalues --   -0.31044  -0.29162  -0.28401  -0.27825  -0.27385
 Alpha  occ. eigenvalues --   -0.26051  -0.25803  -0.23904  -0.23373  -0.22523
 Alpha  occ. eigenvalues --   -0.20368  -0.17873  -0.14074  -0.10750   0.04493
 Alpha virt. eigenvalues --    0.06556   0.06789   0.08035   0.08343   0.08879
 Alpha virt. eigenvalues --    0.08936   0.09666   0.10253   0.10455   0.10923
 Alpha virt. eigenvalues --    0.11258   0.11928   0.12824   0.12879   0.13978

  Beta  occ. eigenvalues --  -19.02203 -14.22492 -10.12036 -10.11205 -10.10546
  Beta  occ. eigenvalues --  -10.07966 -10.07180 -10.07171 -10.06721 -10.06676
  Beta  occ. eigenvalues --  -10.06612 -10.06199 -10.05484  -0.92759  -0.83572
  Beta  occ. eigenvalues --   -0.75032  -0.68740  -0.66741  -0.63951  -0.61107
  Beta  occ. eigenvalues --   -0.58539  -0.53631  -0.52819  -0.48156  -0.46908
  Beta  occ. eigenvalues --   -0.43145  -0.40511  -0.40293  -0.37511  -0.36304
  Beta  occ. eigenvalues --   -0.35428  -0.33813  -0.32513  -0.31917  -0.31583
  Beta  occ. eigenvalues --   -0.31004  -0.29115  -0.28361  -0.27772  -0.27338
  Beta  occ. eigenvalues --   -0.25999  -0.25766  -0.23869  -0.23335  -0.22487
  Beta  occ. eigenvalues --   -0.20316  -0.17840  -0.13996  -0.10699
  Beta virt. eigenvalues --    0.06578   0.07213   0.07498   0.08395   0.08906
  Beta virt. eigenvalues --    0.09077   0.09373   0.09906   0.10575   0.10780
  Beta virt. eigenvalues --    0.11402   0.11645   0.12196   0.13155   0.13274

 Mulliken charges and spin densities:
               1          2
     1  C    1.451647  -2.073486
     2  C   -1.801194   1.416291
     3  C    0.350434   0.026303
     4  C   -0.730965   1.156102
     5  C   -0.231182  -0.282307
     6  C    0.513347  -0.886549
     7  C    0.428650  -0.471102
     8  C   -1.085262   0.952320
     9  N   -0.163102   0.080217
    10  C    0.239991  -0.515121
    11  C    0.229784  -0.515730
    12  O   -0.268910   0.016435
    13  C    2.417326  -2.998137
    14  H    0.082228   0.053687
    15  H   -0.491567   0.637847
    16  H   -0.085724   0.209242
    17  H   -0.396561   0.569971
    18  H   -0.873944   1.034516
    19  H   -0.083130   0.181748
    20  H    0.020321   0.123756
    21  H    0.162825  -0.066509
    22  H    0.491465  -0.189674
    23  H   -0.824004   1.035156
    24  H   -0.109955   0.247693
    25  H   -0.051444   0.197646
    26  H   -0.019322   0.155386
    27  H    0.202591   0.056277
    28  H   -0.200529   0.366024
    29  H   -0.078149   0.217696
    30  H   -0.095664   0.264303
 Sum of Mulliken charges =  -1.00000   1.00000

 Dipole moment (field-independent basis, Debye):
    X=             -0.1385    Y=             -6.4425    Z=             -2.4796  Tot=              6.9046
 Quadrupole moment (field-independent basis, Debye-Ang):
   XX=           -148.8741   YY=           -128.6056   ZZ=           -116.3484
   XY=             -0.2406   XZ=             -2.8309   YZ=             -4.8080

 Summary of Natural Population Analysis:

                                       Natural Population
                Natural  -----------------------------------------------
    Atom  No    Charge         Core      Valence    Rydberg      Total
 -----------------------------------------------------------------------
      C    1   -0.28090      0.99965     2.27526    0.00598     3.28090
      C    2   -0.20302      0.99961     2.19347    0.00993     3.20302
      C    3   -0.02890      0.99944     2.01819    0.01126     3.02890
      C    4   -0.00583      0.99948     1.99608    0.01027     3.00583
      C    5   -0.12116      0.99951     2.11273    0.00891     3.12116
      C    6   -0.09090      0.99957     2.08191    0.00941     3.09090
      C    7   -0.13537      0.99952     2.12815    0.00771     3.13537
      C    8    0.09699      0.99944     1.89144    0.01212     2.90301
      N    9   -0.33260      0.99968     2.82018    0.01274     3.83260
      C   10   -0.10336      0.99962     2.09131    0.01242     3.10336
      C   11   -0.01192      0.99960     2.00136    0.01096     3.01192
      O   12   -0.37063      0.99990     3.36389    0.00684     4.37063
      C   13   -0.29489      0.99964     2.28961    0.00565     3.29489
      H   14    0.09676      0.00000     0.40168    0.00157     0.40324
      H   15    0.10085      0.00000     0.39748    0.00167     0.39915
      H   16    0.09614      0.00000     0.40279    0.00107     0.40386
      H   17    0.10577      0.00000     0.39239    0.00185     0.39423
      H   18    0.09914      0.00000     0.39785    0.00300     0.40086
      H   19    0.09566      0.00000     0.40320    0.00114     0.40434
      H   20    0.09569      0.00000     0.40351    0.00079     0.40431
      H   21    0.09824      0.00000     0.39984    0.00192     0.40176
      H   22    0.19706      0.00000     0.29868    0.00425     0.30294
      H   23    0.10346      0.00000     0.39410    0.00244     0.39654
      H   24    0.09222      0.00000     0.40612    0.00166     0.40778
      H   25    0.08444      0.00000     0.41427    0.00129     0.41556
      H   26    0.07337      0.00000     0.42499    0.00163     0.42663
      H   27    0.23235      0.00000     0.26403    0.00361     0.26765
      H   28    0.10620      0.00000     0.39264    0.00117     0.39380
      H   29    0.10030      0.00000     0.39873    0.00097     0.39970
      H   30    0.10482      0.00000     0.39411    0.00107     0.39518
 =======================================================================
   * Total *    0.00000     12.99468    35.85000    0.15533    49.00000

 Normal termination of Gaussian 16 at Wed Dec  9 23:56:36 2020.
