 Gaussian 16, Revision A.03,

 -----------------------------------------------------------
 # opt freq B3LYP/6-31G(d) empiricaldispersion=gd3bj scf=xqc
 -----------------------------------------------------------

 -------------------------------
 CID_121448920_JID_5455_neutraal
 -------------------------------
 Symbolic Z-matrix:
 Charge =  0 Multiplicity = 1

 SCF Done:  E(RB3LYP) =  -760.647266713     A.U. after   15 cycles
 SCF Done:  E(RB3LYP) =  -760.655074021     A.U. after   13 cycles
 SCF Done:  E(RB3LYP) =  -760.654049558     A.U. after   13 cycles
 SCF Done:  E(RB3LYP) =  -760.656309675     A.U. after   13 cycles
 SCF Done:  E(RB3LYP) =  -760.656851113     A.U. after   12 cycles
 SCF Done:  E(RB3LYP) =  -760.657117654     A.U. after   11 cycles
 SCF Done:  E(RB3LYP) =  -760.657238695     A.U. after   11 cycles
 SCF Done:  E(RB3LYP) =  -760.657337825     A.U. after   11 cycles
 SCF Done:  E(RB3LYP) =  -760.657397902     A.U. after   11 cycles
 SCF Done:  E(RB3LYP) =  -760.657432840     A.U. after   10 cycles
 SCF Done:  E(RB3LYP) =  -760.657447836     A.U. after    8 cycles
 SCF Done:  E(RB3LYP) =  -760.657448070     A.U. after    8 cycles
 SCF Done:  E(RB3LYP) =  -760.657448210     A.U. after    8 cycles
 SCF Done:  E(RB3LYP) =  -760.657448277     A.U. after    7 cycles
 SCF Done:  E(RB3LYP) =  -760.657448297     A.U. after    7 cycles
 Optimization completed.
    -- Stationary point found.
 Normal termination of Gaussian 16 at Thu Dec 10 16:13:36 2020.

 --------------------------------------------------------------------
 #N Geom=AllCheck Guess=TCheck SCRF=Check GenChk RB3LYP/6-31G(d) Freq
 --------------------------------------------------------------------

 Structure from the checkpoint file:  "JID_5455.chk"
 -------------------------------
 CID_121448920_JID_5455_neutraal
 -------------------------------
 Charge =  0 Multiplicity = 1

 SCF Done:  E(RB3LYP) =  -760.657448297     A.U. after    1 cycles

  Exact polarizability: 110.480   0.930 117.844  -1.292  -7.574  95.834
 Approx polarizability: 152.662   5.500 180.344  -5.447 -19.823 151.650

                      1                      2                      3
                      A                      A                      A
 Frequencies --     34.5838                54.2644                60.2782
 Red. masses --      7.5126                 7.3670                 4.6392
 Frc consts  --      0.0053                 0.0128                 0.0099
 IR Inten    --      0.4090                 0.6354                 0.0612

                      4                      5                      6
                      A                      A                      A
 Frequencies --     89.2970               119.2810               148.4623
 Red. masses --      4.5081                 5.8424                10.3488
 Frc consts  --      0.0212                 0.0490                 0.1344
 IR Inten    --      0.4266                 0.2777                 1.5147

                      7                      8                      9
                      A                      A                      A
 Frequencies --    157.1154               176.2110               198.2626
 Red. masses --      5.8361                 3.2080                 5.3611
 Frc consts  --      0.0849                 0.0587                 0.1242
 IR Inten    --      0.2283                 0.5888                 0.7036

                     10                     11                     12
                      A                      A                      A
 Frequencies --    251.5371               320.1830               348.8849
 Red. masses --      2.7111                 5.7166                 3.3983
 Frc consts  --      0.1011                 0.3453                 0.2437
 IR Inten    --      1.6345                 8.8481                 0.8738

                     13                     14                     15
                      A                      A                      A
 Frequencies --    388.6999               407.2095               440.8535
 Red. masses --      3.0344                 6.9710                 2.3687
 Frc consts  --      0.2701                 0.6811                 0.2712
 IR Inten    --      0.4549                 6.3895                 7.4789

                     16                     17                     18
                      A                      A                      A
 Frequencies --    478.3108               513.5411               560.9872
 Red. masses --      3.0073                 1.2608                 3.4021
 Frc consts  --      0.4054                 0.1959                 0.6308
 IR Inten    --      1.1009               143.5287                41.0309

                     19                     20                     21
                      A                      A                      A
 Frequencies --    587.2757               594.9652               638.0830
 Red. masses --      1.3726                 2.1655                 9.8402
 Frc consts  --      0.2789                 0.4516                 2.3605
 IR Inten    --    138.3703                71.7060                 7.3104

                     22                     23                     24
                      A                      A                      A
 Frequencies --    651.2134               666.5202               725.7009
 Red. masses --      2.7963                 1.5894                 3.7083
 Frc consts  --      0.6987                 0.4160                 1.1506
 IR Inten    --     16.7456                29.7936                 9.1309

                     25                     26                     27
                      A                      A                      A
 Frequencies --    739.0664               754.9905               780.1516
 Red. masses --      4.0876                 5.6170                 3.2741
 Frc consts  --      1.3155                 1.8864                 1.1741
 IR Inten    --     19.6186                34.0958                31.5167

                     28                     29                     30
                      A                      A                      A
 Frequencies --    804.4681               818.7059               855.3818
 Red. masses --      1.1753                 2.7438                 1.2771
 Frc consts  --      0.4482                 1.0836                 0.5505
 IR Inten    --      2.5781                14.4905                 9.8391

                     31                     32                     33
                      A                      A                      A
 Frequencies --    894.9856               940.4867               950.3932
 Red. masses --      2.5540                 2.6770                 3.7993
 Frc consts  --      1.2053                 1.3951                 2.0219
 IR Inten    --      2.4335                10.4728                 7.8872

                     34                     35                     36
                      A                      A                      A
 Frequencies --    986.3065               997.2755              1002.2937
 Red. masses --      2.5795                 2.9580                 2.6000
 Frc consts  --      1.4784                 1.7333                 1.5389
 IR Inten    --      2.6053                10.7104                21.6581

                     37                     38                     39
                      A                      A                      A
 Frequencies --   1053.1056              1070.8954              1096.5186
 Red. masses --      2.3042                 1.3264                 2.0068
 Frc consts  --      1.5056                 0.8962                 1.4216
 IR Inten    --     34.6499                 6.9242                29.6147

                     40                     41                     42
                      A                      A                      A
 Frequencies --   1100.8499              1140.0477              1161.6504
 Red. masses --      1.4262                 1.8308                 1.1392
 Frc consts  --      1.0183                 1.4020                 0.9057
 IR Inten    --     15.9462                46.6081                17.2385

                     43                     44                     45
                      A                      A                      A
 Frequencies --   1167.4365              1191.0530              1215.7487
 Red. masses --      3.0472                 2.6892                 1.4206
 Frc consts  --      2.4469                 2.2477                 1.2371
 IR Inten    --     69.2220                79.5647                 0.9205

                     46                     47                     48
                      A                      A                      A
 Frequencies --   1245.5113              1254.9878              1267.2859
 Red. masses --      2.1007                 1.5680                 1.6299
 Frc consts  --      1.9200                 1.4550                 1.5423
 IR Inten    --     18.8259                26.1008                12.6559

                     49                     50                     51
                      A                      A                      A
 Frequencies --   1300.7314              1335.5314              1359.6128
 Red. masses --      1.6683                 1.5442                 2.1154
 Frc consts  --      1.6630                 1.6228                 2.3040
 IR Inten    --     38.0924                 6.7597                75.1946

                     52                     53                     54
                      A                      A                      A
 Frequencies --   1387.5611              1400.0502              1405.1643
 Red. masses --      2.0898                 1.9761                 2.0667
 Frc consts  --      2.3706                 2.2822                 2.4043
 IR Inten    --    110.4799                13.1033                68.3368

                     55                     56                     57
                      A                      A                      A
 Frequencies --   1412.1761              1438.6943              1494.4408
 Red. masses --      1.9569                 1.6406                 1.0919
 Frc consts  --      2.2993                 2.0008                 1.4367
 IR Inten    --     41.1010                 8.0312                 4.1456

                     58                     59                     60
                      A                      A                      A
 Frequencies --   1506.8932              1516.7241              1537.7979
 Red. masses --      1.0812                 1.1165                 1.3560
 Frc consts  --      1.4465                 1.5134                 1.8893
 IR Inten    --      8.8093                12.9051                 2.0196

                     61                     62                     63
                      A                      A                      A
 Frequencies --   1840.0323              1863.1839              1888.9856
 Red. masses --     10.0074                 9.5146                11.0209
 Frc consts  --     19.9629                19.4604                23.1700
 IR Inten    --    579.1935               280.5588               386.4010

                     64                     65                     66
                      A                      A                      A
 Frequencies --   3074.0901              3094.8680              3125.8556
 Red. masses --      1.0615                 1.0599                 1.1023
 Frc consts  --      5.9103                 5.9815                 6.3456
 IR Inten    --      9.7699                 5.6168                 8.3410

                     67                     68                     69
                      A                      A                      A
 Frequencies --   3145.4291              3156.2973              3158.3509
 Red. masses --      1.1055                 1.0523                 1.0598
 Frc consts  --      6.4441                 6.1764                 6.2289
 IR Inten    --     12.8540                13.1552                 9.5991

                     70                     71                     72
                      A                      A                      A
 Frequencies --   3165.9452              3233.0276              3249.0479
 Red. masses --      1.0870                 1.1188                 1.1161
 Frc consts  --      6.4196                 6.8901                 6.9417
 IR Inten    --      7.2180                 5.2285                 7.3620

                     73                     74                     75
                      A                      A                      A
 Frequencies --   3644.0642              3646.2988              3669.8596
 Red. masses --      1.0778                 1.0804                 1.0640
 Frc consts  --      8.4323                 8.4630                 8.4425
 IR Inten    --     89.2639                53.7094                50.3083

 - Thermochemistry -
 -------------------
 Temperature   298.150 Kelvin.  Pressure   1.00000 Atm.
 Atom     1 has atomic number  6 and mass  12.00000

 Molecular mass:   212.07971 amu.
 Principal axes and moments of inertia in atomic units:
                           1         2         3
     Eigenvalues --  2298.823723549.376724413.94870
           X            0.99990   0.00981   0.01019
           Y           -0.01001   0.99975   0.02010
           Z           -0.00999  -0.02021   0.99975
 This molecule is an asymmetric top.
 Rotational symmetry number  1.
 Warning -- assumption of classical behavior for rotation
           may cause significant error
 Rotational temperatures (Kelvin)      0.03768     0.02440     0.01962
 Rotational constants (GHZ):           0.78507     0.50847     0.40887
 Zero-point vibrational energy     569135.5 (Joules/Mol)
                                  136.02666 (Kcal/Mol)
 Warning -- explicit consideration of  20 degrees of freedom as
           vibrations may cause significant error
 Vibrational temperatures:     49.76    78.07    86.73   128.48   171.62
          (Kelvin)            213.60   226.05   253.53   285.26   361.91
                              460.67   501.97   559.25   585.88   634.29
                              688.18   738.87   807.14   844.96   856.02
                              918.06   936.95   958.97  1044.12  1063.35
                             1086.26  1122.46  1157.45  1177.94  1230.70
                             1287.68  1353.15  1367.40  1419.08  1434.86
                             1442.08  1515.18  1540.78  1577.65  1583.88
                             1640.27  1671.36  1679.68  1713.66  1749.19
                             1792.01  1805.65  1823.34  1871.46  1921.53
                             1956.18  1996.39  2014.36  2021.72  2031.81
                             2069.96  2150.17  2168.08  2182.23  2212.55
                             2647.40  2680.71  2717.83  4422.93  4452.82
                             4497.41  4525.57  4541.21  4544.16  4555.09
                             4651.61  4674.66  5243.00  5246.21  5280.11

 Zero-point correction=                           0.216772 (Hartree/Particle)
 Thermal correction to Energy=                    0.230689
 Thermal correction to Enthalpy=                  0.231633
 Thermal correction to Gibbs Free Energy=         0.175066
 Sum of electronic and zero-point Energies=           -760.440676
 Sum of electronic and thermal Energies=              -760.426759
 Sum of electronic and thermal Enthalpies=            -760.425815
 Sum of electronic and thermal Free Energies=         -760.482382

                     E (Thermal)             CV                S
                      KCal/Mol        Cal/Mol-Kelvin    Cal/Mol-Kelvin
 Total                  144.760             52.496            119.056
 Electronic               0.000              0.000              0.000
 Translational            0.889              2.981             41.959
 Rotational               0.889              2.981             31.955
 Vibrational            142.982             46.535             45.143
 Vibration     1          0.594              1.983              5.547
 Vibration     2          0.596              1.976              4.656
 Vibration     3          0.597              1.973              4.448
 Vibration     4          0.602              1.957              3.675
 Vibration     5          0.609              1.933              3.112
 Vibration     6          0.618              1.904              2.692
 Vibration     7          0.621              1.895              2.584
 Vibration     8          0.628              1.872              2.368
 Vibration     9          0.637              1.842              2.149
 Vibration    10          0.664              1.760              1.720
 Vibration    11          0.706              1.635              1.309
 Vibration    12          0.726              1.578              1.171
 Vibration    13          0.757              1.494              1.005
 Vibration    14          0.772              1.455              0.937
 Vibration    15          0.801              1.381              0.824
 Vibration    16          0.835              1.298              0.715
 Vibration    17          0.869              1.220              0.625
 Vibration    18          0.917              1.116              0.522
 Vibration    19          0.944              1.059              0.472
 Vibration    20          0.953              1.042              0.458

 Optimization completed.
    -- Stationary point found.
 Normal termination of Gaussian 16 at Thu Dec 10 16:22:44 2020.

 ----------------------------------------------------------------------
 # B3LYP/6-311++G(d,p) empiricaldispersion=gd3bj scf=xqc pop=npa geom=c
 heck
 ----------------------------------------------------------------------

 ---------------------------------------
 CID_121448920_JID_5455_Energie_neutraal
 ---------------------------------------
 Structure from the checkpoint file:  "JID_5455.chk"
 Charge =  0 Multiplicity = 1

 SCF Done:  E(RB3LYP) =  -760.893305866     A.U. after   15 cycles
 Normal termination of Gaussian 16 at Thu Dec 10 16:26:35 2020.

 ----------------------------------------------------------------------
 # B3LYP/6-311++G(d,p) empiricaldispersion=gd3bj scf=xqc pop=npa geom=c
 heck
 ----------------------------------------------------------------------

 -------------------------------------
 CID_121448920_JID_5455_Energie_kation
 -------------------------------------
 Structure from the checkpoint file:  "JID_5455.chk"
 Charge =  1 Multiplicity = 2

 SCF Done:  E(UB3LYP) =  -760.544780476     A.U. after   32 cycles
 Normal termination of Gaussian 16 at Thu Dec 10 16:38:15 2020.
 Gaussian 16:  ES64L-G16RevA.03 25-Dec-2016

 ----------------------------------------------------------------------
 # B3LYP/6-311++G(d,p) empiricaldispersion=gd3bj scf=xqc pop=npa geom=c
 heck
 ----------------------------------------------------------------------

 ------------------------------------
 CID_121448920_JID_5455_Energie_anion
 ------------------------------------
 Structure from the checkpoint file:  "JID_5455.chk"
 Charge = -1 Multiplicity = 2

                         Standard orientation:
 ---------------------------------------------------------------------
 Center     Atomic      Atomic             Coordinates (Angstroms)
 Number     Number       Type             X           Y           Z
 ---------------------------------------------------------------------
      1          6           0       -1.350568   -2.543882   -0.627936
      2          6           0       -1.914885   -1.490334   -1.549897
      3          6           0       -0.576554   -1.277299   -0.888725
      4          6           0       -0.355419   -0.228113    0.198071
      5          6           0       -1.669233    0.114807    0.934841
      6          8           0       -2.293993   -0.614622    1.679010
      7          7           0       -1.978071    1.405090    0.582525
      8          6           0       -1.028723    1.993600   -0.285519
      9          8           0       -1.117532    3.090581   -0.792639
     10          7           0       -0.019208    1.071048   -0.394599
     11          6           0        0.674407   -0.683407    1.251976
     12          6           0        2.029245   -1.164595    0.697981
     13          6           0        2.846966   -0.050929    0.084703
     14          8           0        3.591896    0.688636    0.681276
     15          8           0        2.648824    0.058872   -1.265549
     16          1           0       -0.973460   -3.467224   -1.057888
     17          1           0       -1.822851   -2.647514    0.343339
     18          1           0       -1.922546   -1.679246   -2.619101
     19          1           0       -2.768926   -0.921432   -1.194734
     20          1           0        0.286402   -1.366153   -1.544474
     21          1           0       -2.795293    1.903706    0.906896
     22          1           0        0.624759    1.134000   -1.170207
     23          1           0        0.845110    0.139829    1.954143
     24          1           0        0.219006   -1.505493    1.812103
     25          1           0        2.618172   -1.556728    1.531214
     26          1           0        1.883032   -1.967179   -0.029004
     27          1           0        3.222572    0.793645   -1.557538
 ---------------------------------------------------------------------

 SCF Done:  E(UB3LYP) =  -760.885250427     A.U. after   33 cycles
 SCF Done:  E(UB3LYP) =  -760.885250427     a.u. after    1 cycles

 The electronic state is 2-A.
 Alpha  occ. eigenvalues --  -19.06981 -19.02376 -19.01884 -19.01318 -14.27671
 Alpha  occ. eigenvalues --  -14.24801 -10.22273 -10.20823 -10.19975 -10.14815
 Alpha  occ. eigenvalues --  -10.09369 -10.09326 -10.08961 -10.08245 -10.07842
 Alpha  occ. eigenvalues --   -1.00991  -0.98955  -0.96411  -0.92313  -0.89093
 Alpha  occ. eigenvalues --   -0.82058  -0.77106  -0.71316  -0.64873  -0.57237
 Alpha  occ. eigenvalues --   -0.56605  -0.54192  -0.51123  -0.50528  -0.47504
 Alpha  occ. eigenvalues --   -0.44348  -0.42009  -0.40885  -0.40228  -0.38830
 Alpha  occ. eigenvalues --   -0.38714  -0.37556  -0.36426  -0.35378  -0.34770
 Alpha  occ. eigenvalues --   -0.34184  -0.31806  -0.31142  -0.30256  -0.28344
 Alpha  occ. eigenvalues --   -0.28002  -0.27685  -0.26271  -0.23097  -0.22014
 Alpha  occ. eigenvalues --   -0.20876  -0.20565  -0.20476  -0.18583  -0.18065
 Alpha  occ. eigenvalues --   -0.17362   0.04387
 Alpha virt. eigenvalues --    0.06649   0.06969   0.07171   0.07356   0.09226
 Alpha virt. eigenvalues --    0.09401   0.10049   0.10468   0.11484   0.11976
 Alpha virt. eigenvalues --    0.12226   0.12797   0.13601   0.13975   0.14667

  Beta  occ. eigenvalues --  -19.06908 -19.02314 -19.01865 -19.01308 -14.27667
  Beta  occ. eigenvalues --  -14.24779 -10.22260 -10.20798 -10.19887 -10.14824
  Beta  occ. eigenvalues --  -10.09356 -10.09293 -10.08916 -10.08230 -10.07825
  Beta  occ. eigenvalues --   -1.00897  -0.98891  -0.96327  -0.92233  -0.89056
  Beta  occ. eigenvalues --   -0.82027  -0.77075  -0.71258  -0.64786  -0.57131
  Beta  occ. eigenvalues --   -0.56560  -0.54107  -0.51067  -0.50400  -0.47438
  Beta  occ. eigenvalues --   -0.44294  -0.41957  -0.40821  -0.40130  -0.38767
  Beta  occ. eigenvalues --   -0.38654  -0.37480  -0.36340  -0.35334  -0.34696
  Beta  occ. eigenvalues --   -0.34113  -0.31741  -0.30888  -0.30210  -0.28277
  Beta  occ. eigenvalues --   -0.27940  -0.27654  -0.26229  -0.23028  -0.21979
  Beta  occ. eigenvalues --   -0.20749  -0.20525  -0.20437  -0.18525  -0.18015
  Beta  occ. eigenvalues --   -0.17304
  Beta virt. eigenvalues --    0.06784   0.07282   0.07479   0.07978   0.08442
  Beta virt. eigenvalues --    0.09587   0.09870   0.10492   0.10708   0.11730
  Beta virt. eigenvalues --    0.12194   0.12696   0.13032   0.13905   0.14254

 Mulliken charges and spin densities:
               1          2
     1  C    0.127519  -0.684725
     2  C    1.250952  -1.481446
     3  C   -1.403408   0.790987
     4  C    1.514559  -0.562190
     5  C   -0.315090   0.233405
     6  O   -0.321249   0.033407
     7  N   -0.326939   0.017505
     8  C    0.202251   0.102076
     9  O   -0.352761  -0.005914
    10  N   -0.220769   0.079382
    11  C   -0.738841   0.192948
    12  C    0.918186  -1.212856
    13  C    0.193035  -0.362338
    14  O   -0.290744   0.048367
    15  O   -0.196123   0.010439
    16  H   -0.211826   0.367832
    17  H    0.105375   0.081739
    18  H   -0.279272   0.447936
    19  H    0.224331  -0.053424
    20  H   -0.515708   0.815539
    21  H    0.279596   0.074682
    22  H    0.346396  -0.026089
    23  H    0.223255  -0.017921
    24  H    0.006834   0.160704
    25  H   -0.536925   0.758753
    26  H   -0.205269   0.405121
    27  H   -0.477363   0.786082
 Sum of Mulliken charges =  -1.00000   1.00000

 Dipole moment (field-independent basis, Debye):
    X=             -6.2789    Y=              1.7374    Z=              3.5138  Tot=              7.4021
 Quadrupole moment (field-independent basis, Debye-Ang):
   XX=           -141.9827   YY=           -137.2823   ZZ=           -128.1457
   XY=             -1.8065   XZ=              4.1591   YZ=              1.5333

 Summary of Natural Population Analysis:

                                       Natural Population
                Natural  -----------------------------------------------
    Atom  No    Charge         Core      Valence    Rydberg      Total
 -----------------------------------------------------------------------
      C    1   -0.19830      0.99961     2.18943    0.00926     3.19830
      C    2   -0.19621      0.99962     2.18769    0.00890     3.19621
      C    3   -0.12682      0.99955     2.11201    0.01526     3.12682
      C    4    0.02945      0.99950     1.95612    0.01494     2.97055
      C    5    0.36475      0.99963     1.61081    0.02482     2.63525
      O    6   -0.30027      0.99987     3.29506    0.00534     4.30027
      N    7   -0.33027      0.99963     2.82305    0.00759     3.83027
      C    8    0.41039      0.99971     1.56634    0.02356     2.58961
      O    9   -0.31543      0.99987     3.31017    0.00539     4.31543
      N   10   -0.32977      0.99965     2.82086    0.00927     3.82977
      C   11   -0.18146      0.99957     2.17138    0.01050     3.18146
      C   12   -0.24077      0.99957     2.23098    0.01023     3.24077
      C   13    0.41014      0.99971     1.56467    0.02549     2.58986
      O   14   -0.30137      0.99987     3.29543    0.00608     4.30137
      O   15   -0.35485      0.99988     3.34678    0.00819     4.35485
      H   16    0.10603      0.00000     0.39280    0.00117     0.39397
      H   17    0.11207      0.00000     0.38680    0.00113     0.38793
      H   18    0.10634      0.00000     0.39274    0.00093     0.39366
      H   19    0.10100      0.00000     0.39791    0.00109     0.39900
      H   20    0.12078      0.00000     0.37548    0.00374     0.37922
      H   21    0.20465      0.00000     0.29327    0.00208     0.29535
      H   22    0.21088      0.00000     0.28637    0.00276     0.28912
      H   23    0.10442      0.00000     0.39436    0.00122     0.39558
      H   24    0.11320      0.00000     0.38564    0.00116     0.38680
      H   25    0.11789      0.00000     0.38046    0.00165     0.38211
      H   26    0.11615      0.00000     0.38096    0.00289     0.38385
      H   27    0.24740      0.00000     0.23462    0.01799     0.25260
 =======================================================================
   * Total *   -0.00000     14.99523    40.78214    0.22263    56.00000

 Normal termination of Gaussian 16 at Thu Dec 10 16:49:56 2020.
