 Gaussian 16, Revision A.03,

 -----------------------------------------------------------
 # opt freq B3LYP/6-31G(d) empiricaldispersion=gd3bj scf=xqc
 -----------------------------------------------------------

 ------------------------------
 CID_130477422_JID_694_neutraal
 ------------------------------
 Symbolic Z-matrix:
 Charge =  0 Multiplicity = 1

 SCF Done:  E(RB3LYP) =  -443.845628316     A.U. after   13 cycles
 SCF Done:  E(RB3LYP) =  -443.848524004     A.U. after   12 cycles
 SCF Done:  E(RB3LYP) =  -443.848724462     A.U. after   11 cycles
 SCF Done:  E(RB3LYP) =  -443.849262589     A.U. after   11 cycles
 SCF Done:  E(RB3LYP) =  -443.849374192     A.U. after   10 cycles
 SCF Done:  E(RB3LYP) =  -443.849429817     A.U. after   10 cycles
 SCF Done:  E(RB3LYP) =  -443.849466361     A.U. after   10 cycles
 SCF Done:  E(RB3LYP) =  -443.849482249     A.U. after   10 cycles
 SCF Done:  E(RB3LYP) =  -443.849499095     A.U. after    9 cycles
 SCF Done:  E(RB3LYP) =  -443.849502284     A.U. after    8 cycles
 SCF Done:  E(RB3LYP) =  -443.849505548     A.U. after    9 cycles
 SCF Done:  E(RB3LYP) =  -443.849506159     A.U. after    8 cycles
 Optimization completed.
    -- Stationary point found.
 Normal termination of Gaussian 16 at Tue Dec  8 13:13:06 2020.

 --------------------------------------------------------------------
 #N Geom=AllCheck Guess=TCheck SCRF=Check GenChk RB3LYP/6-31G(d) Freq
 --------------------------------------------------------------------

 Structure from the checkpoint file:  "JID_694.chk"
 ------------------------------
 CID_130477422_JID_694_neutraal
 ------------------------------
 Charge =  0 Multiplicity = 1

 SCF Done:  E(RB3LYP) =  -443.849506159     A.U. after    1 cycles

  Exact polarizability:  90.621  -4.228 102.546   3.232  -6.805  77.494
 Approx polarizability: 120.064  -4.283 145.844   6.090 -11.471 114.486

                      1                      2                      3
                      A                      A                      A
 Frequencies --     66.6797                88.3216               104.5172
 Red. masses --      2.7489                 2.5746                 2.7099
 Frc consts  --      0.0072                 0.0118                 0.0174
 IR Inten    --      0.3842                 1.7406                 5.1056

                      4                      5                      6
                      A                      A                      A
 Frequencies --    112.8080               183.7593               215.9177
 Red. masses --      3.1430                 2.8863                 2.3673
 Frc consts  --      0.0236                 0.0574                 0.0650
 IR Inten    --      1.0332                 3.9342                 1.9307

                      7                      8                      9
                      A                      A                      A
 Frequencies --    242.2241               271.4081               343.0130
 Red. masses --      1.9548                 1.3196                 2.2086
 Frc consts  --      0.0676                 0.0573                 0.1531
 IR Inten    --      3.7797                44.8396                 2.9958

                     10                     11                     12
                      A                      A                      A
 Frequencies --    356.8210               391.9480               444.2606
 Red. masses --      2.5093                 2.2403                 3.3279
 Frc consts  --      0.1882                 0.2028                 0.3870
 IR Inten    --     12.5023                 3.0722                 0.3735

                     13                     14                     15
                      A                      A                      A
 Frequencies --    459.3027               610.3752               657.2712
 Red. masses --      1.8508                 2.0041                 2.1132
 Frc consts  --      0.2300                 0.4399                 0.5379
 IR Inten    --      0.2993                 3.7491                 4.8461

                     16                     17                     18
                      A                      A                      A
 Frequencies --    720.0241               779.8094               862.8372
 Red. masses --      4.4591                 2.0495                 1.5293
 Frc consts  --      1.3620                 0.7343                 0.6708
 IR Inten    --     14.1909                 4.5057                18.8955

                     19                     20                     21
                      A                      A                      A
 Frequencies --    876.4692               902.0784               929.4710
 Red. masses --      1.3469                 1.6556                 3.3526
 Frc consts  --      0.6096                 0.7938                 1.7065
 IR Inten    --     80.8922                 6.5852                20.0074

                     22                     23                     24
                      A                      A                      A
 Frequencies --    933.8085               940.0670               981.6878
 Red. masses --      1.5260                 1.8136                 2.0494
 Frc consts  --      0.7840                 0.9443                 1.1636
 IR Inten    --     21.7978                21.6188                 1.7742

                     25                     26                     27
                      A                      A                      A
 Frequencies --    995.1227              1010.7397              1036.6394
 Red. masses --      2.4680                 2.0133                 1.9608
 Frc consts  --      1.4400                 1.2118                 1.2415
 IR Inten    --     14.3746                 7.5292                13.8259

                     28                     29                     30
                      A                      A                      A
 Frequencies --   1046.8892              1060.4943              1105.8495
 Red. masses --      1.5690                 1.1610                 2.4312
 Frc consts  --      1.0131                 0.7693                 1.7517
 IR Inten    --     27.3759                17.9252                26.0033

                     31                     32                     33
                      A                      A                      A
 Frequencies --   1112.7986              1127.4208              1183.8039
 Red. masses --      2.2450                 2.9503                 1.9225
 Frc consts  --      1.6379                 2.2095                 1.5874
 IR Inten    --     17.3070                45.1452                 9.9251

                     34                     35                     36
                      A                      A                      A
 Frequencies --   1213.0337              1226.6121              1234.4445
 Red. masses --      1.5093                 1.3074                 1.5103
 Frc consts  --      1.3085                 1.1590                 1.3560
 IR Inten    --      0.6535                 0.6384                 2.3439

                     37                     38                     39
                      A                      A                      A
 Frequencies --   1262.7617              1292.8415              1310.2065
 Red. masses --      1.2909                 1.5037                 1.3869
 Frc consts  --      1.2128                 1.4808                 1.4027
 IR Inten    --      2.3902                 2.0088                 2.1565

                     40                     41                     42
                      A                      A                      A
 Frequencies --   1320.5182              1342.0139              1361.3157
 Red. masses --      1.2648                 1.3012                 1.3418
 Frc consts  --      1.2995                 1.3807                 1.4651
 IR Inten    --      0.4799                 5.2449                 1.7602

                     43                     44                     45
                      A                      A                      A
 Frequencies --   1376.0622              1387.4364              1423.4289
 Red. masses --      1.3563                 1.3136                 1.4536
 Frc consts  --      1.5132                 1.4899                 1.7353
 IR Inten    --      1.4843                 1.9955                 6.3006

                     46                     47                     48
                      A                      A                      A
 Frequencies --   1455.3082              1473.5056              1515.8160
 Red. masses --      1.4261                 1.1915                 1.1049
 Frc consts  --      1.7795                 1.5242                 1.4957
 IR Inten    --      9.6140                 1.1390                 5.3670

                     49                     50                     51
                      A                      A                      A
 Frequencies --   1520.6799              1538.9471              1548.4534
 Red. masses --      1.0934                 1.0839                 1.0864
 Frc consts  --      1.4897                 1.5124                 1.5347
 IR Inten    --     11.0006                 1.3483                 1.9258

                     52                     53                     54
                      A                      A                      A
 Frequencies --   1563.8565              1695.4893              1726.8406
 Red. masses --      1.0955                 1.0876                 4.3866
 Frc consts  --      1.5786                 1.8421                 7.7069
 IR Inten    --      0.6916                33.7303                 5.8185

                     55                     56                     57
                      A                      A                      A
 Frequencies --   2943.7312              2983.6875              3024.1982
 Red. masses --      1.0730                 1.0712                 1.0647
 Frc consts  --      5.4781                 5.6187                 5.7372
 IR Inten    --     61.2342               115.4552                25.1118

                     58                     59                     60
                      A                      A                      A
 Frequencies --   3038.8782              3047.6190              3056.4280
 Red. masses --      1.0573                 1.0742                 1.0880
 Frc consts  --      5.7528                 5.8786                 5.9881
 IR Inten    --     65.6581                13.9728                34.2129

                     61                     62                     63
                      A                      A                      A
 Frequencies --   3073.4929              3081.2271              3089.5524
 Red. masses --      1.1033                 1.0979                 1.0928
 Frc consts  --      6.1408                 6.1413                 6.1459
 IR Inten    --     63.9812                21.3491                46.2735

                     64                     65                     66
                      A                      A                      A
 Frequencies --   3128.9771              3147.6883              3192.9762
 Red. masses --      1.0968                 1.0600                 1.0920
 Frc consts  --      6.3265                 6.1876                 6.5593
 IR Inten    --     12.9128                11.9077                 1.2957

                     67                     68                     69
                      A                      A                      A
 Frequencies --   3229.5040              3466.3263              3550.4178
 Red. masses --      1.1137                 1.0498                 1.0924
 Frc consts  --      6.8435                 7.4315                 8.1133
 IR Inten    --     25.8065                 1.1755                 0.5426

 - Thermochemistry -
 -------------------
 Temperature   298.150 Kelvin.  Pressure   1.00000 Atm.
 Atom     1 has atomic number  6 and mass  12.00000

 Molecular mass:   141.11536 amu.
 Principal axes and moments of inertia in atomic units:
                           1         2         3
     Eigenvalues --  1190.092771468.712262101.40207
           X            0.99925  -0.03860  -0.00114
           Y            0.03859   0.99921  -0.00931
           Z            0.00149   0.00926   0.99996
 This molecule is an asymmetric top.
 Rotational symmetry number  1.
 Warning -- assumption of classical behavior for rotation
           may cause significant error
 Rotational temperatures (Kelvin)      0.07278     0.05897     0.04122
 Rotational constants (GHZ):           1.51647     1.22879     0.85883
 Zero-point vibrational energy     592145.0 (Joules/Mol)
                                  141.52605 (Kcal/Mol)
 Warning -- explicit consideration of  14 degrees of freedom as
           vibrations may cause significant error
 Vibrational temperatures:     95.94   127.08   150.38   162.31   264.39
          (Kelvin)            310.66   348.51   390.50   493.52   513.39
                              563.93   639.19   660.83   878.19   945.67
                             1035.95  1121.97  1241.43  1261.04  1297.89
                             1337.30  1343.54  1352.55  1412.43  1431.76
                             1454.23  1491.49  1506.24  1525.81  1591.07
                             1601.07  1622.11  1703.23  1745.28  1764.82
                             1776.09  1816.83  1860.11  1885.09  1899.93
                             1930.86  1958.63  1979.85  1996.21  2048.00
                             2093.86  2120.05  2180.92  2187.92  2214.20
                             2227.88  2250.04  2439.43  2484.54  4235.37
                             4292.86  4351.15  4372.27  4384.84  4397.52
                             4422.07  4433.20  4445.18  4501.90  4528.82
                             4593.98  4646.54  4987.27  5108.26

 Zero-point correction=                           0.225536 (Hartree/Particle)
 Thermal correction to Energy=                    0.236258
 Thermal correction to Enthalpy=                  0.237202
 Thermal correction to Gibbs Free Energy=         0.189310
 Sum of electronic and zero-point Energies=           -443.623970
 Sum of electronic and thermal Energies=              -443.613248
 Sum of electronic and thermal Enthalpies=            -443.612304
 Sum of electronic and thermal Free Energies=         -443.660196

                     E (Thermal)             CV                S
                      KCal/Mol        Cal/Mol-Kelvin    Cal/Mol-Kelvin
 Total                  148.254             40.110            100.796
 Electronic               0.000              0.000              0.000
 Translational            0.889              2.981             40.745
 Rotational               0.889              2.981             29.686
 Vibrational            146.477             34.148             30.365
 Vibration     1          0.598              1.970              4.249
 Vibration     2          0.601              1.957              3.697
 Vibration     3          0.605              1.946              3.368
 Vibration     4          0.607              1.939              3.220
 Vibration     5          0.631              1.862              2.290
 Vibration     6          0.645              1.817              1.993
 Vibration     7          0.658              1.776              1.786
 Vibration     8          0.675              1.726              1.587
 Vibration     9          0.722              1.589              1.198
 Vibration    10          0.732              1.561              1.136
 Vibration    11          0.759              1.487              0.993
 Vibration    12          0.804              1.374              0.813
 Vibration    13          0.817              1.340              0.768
 Vibration    14          0.969              1.010              0.432

                           ! Non-Optimized Parameters !
 Normal termination of Gaussian 16 at Tue Dec  8 13:34:08 2020.

 ----------------------------------------------------------------------
 # B3LYP/6-311++G(d,p) empiricaldispersion=gd3bj scf=xqc pop=npa geom=c
 heck
 ----------------------------------------------------------------------

 --------------------------------------
 CID_130477422_JID_694_Energie_neutraal
 --------------------------------------
 Structure from the checkpoint file:  "JID_694.chk"
 Charge =  0 Multiplicity = 1

 SCF Done:  E(RB3LYP) =  -443.985014301     A.U. after   13 cycles
 Normal termination of Gaussian 16 at Tue Dec  8 13:40:29 2020.

 ----------------------------------------------------------------------
 # B3LYP/6-311++G(d,p) empiricaldispersion=gd3bj scf=xqc pop=npa geom=c
 heck
 ----------------------------------------------------------------------

 ------------------------------------
 CID_130477422_JID_694_Energie_kation
 ------------------------------------
 Structure from the checkpoint file:  "JID_694.chk"
 Charge =  1 Multiplicity = 2

 SCF Done:  E(UB3LYP) =  -443.668919338     A.U. after   22 cycles
 Normal termination of Gaussian 16 at Tue Dec  8 13:50:14 2020.
 Gaussian 16:  ES64L-G16RevA.03 25-Dec-2016

 ----------------------------------------------------------------------
 # B3LYP/6-311++G(d,p) empiricaldispersion=gd3bj scf=xqc pop=npa geom=c
 heck
 ----------------------------------------------------------------------

 -----------------------------------
 CID_130477422_JID_694_Energie_anion
 -----------------------------------
 Structure from the checkpoint file:  "JID_694.chk"
 Charge = -1 Multiplicity = 2

                         Standard orientation:
 ---------------------------------------------------------------------
 Center     Atomic      Atomic             Coordinates (Angstroms)
 Number     Number       Type             X           Y           Z
 ---------------------------------------------------------------------
      1          6           0        2.015882   -2.278435    0.045086
      2          6           0        1.850929   -0.996456   -0.286516
      3          6           0        0.642536   -0.466635   -1.006151
      4          6           0       -0.242487    0.533212   -0.205711
      5          6           0       -0.597664   -0.013619    1.194165
      6          6           0       -1.723501   -1.017223    0.900182
      7          8           0       -2.291191   -0.646549   -0.364752
      8          6           0       -1.649824    0.535058   -0.831137
      9          6           0        0.339411    1.950189   -0.170179
     10          7           0        1.651303    2.004233    0.484274
     11          1           0        1.270354   -3.032587   -0.202270
     12          1           0        2.903965   -2.627545    0.565747
     13          1           0        2.604565   -0.258417   -0.023333
     14          1           0        0.958353    0.041376   -1.928849
     15          1           0        0.009361   -1.309255   -1.308366
     16          1           0       -0.967610    0.803864    1.826074
     17          1           0        0.251631   -0.482898    1.696716
     18          1           0       -1.339180   -2.041490    0.816286
     19          1           0       -2.504417   -1.007884    1.670988
     20          1           0       -2.212033    1.431658   -0.519867
     21          1           0       -1.633932    0.502030   -1.925995
     22          1           0        0.473595    2.303867   -1.200827
     23          1           0       -0.410878    2.614750    0.297036
     24          1           0        2.007552    2.957912    0.455446
     25          1           0        1.547392    1.770833    1.470876
 ---------------------------------------------------------------------

 SCF Done:  E(UB3LYP) =  -443.969485339     A.U. after   31 cycles

 The electronic state is 2-A.
 Alpha  occ. eigenvalues --  -19.01562 -14.17624 -10.10892 -10.10685 -10.07889
 Alpha  occ. eigenvalues --  -10.07850 -10.06763 -10.06503 -10.06051 -10.05907
 Alpha  occ. eigenvalues --   -0.93229  -0.77284  -0.70942  -0.66555  -0.64005
 Alpha  occ. eigenvalues --   -0.57651  -0.54781  -0.49257  -0.46436  -0.43598
 Alpha  occ. eigenvalues --   -0.39380  -0.39096  -0.37220  -0.35004  -0.34423
 Alpha  occ. eigenvalues --   -0.33026  -0.31714  -0.30862  -0.29838  -0.29078
 Alpha  occ. eigenvalues --   -0.25997  -0.24957  -0.23329  -0.22554  -0.21833
 Alpha  occ. eigenvalues --   -0.20782  -0.16005  -0.15049  -0.12850   0.04992
 Alpha virt. eigenvalues --    0.07596   0.08024   0.08105   0.09728   0.09747
 Alpha virt. eigenvalues --    0.10188   0.10653   0.11143   0.11529   0.12921
 Alpha virt. eigenvalues --    0.13502   0.14155   0.14288   0.14585   0.14917

  Beta  occ. eigenvalues --  -19.01563 -14.17567 -10.10877 -10.10670 -10.07863
  Beta  occ. eigenvalues --  -10.07840 -10.06758 -10.06488 -10.06040 -10.05872
  Beta  occ. eigenvalues --   -0.93222  -0.77198  -0.70905  -0.66530  -0.63969
  Beta  occ. eigenvalues --   -0.57619  -0.54674  -0.49204  -0.46394  -0.43551
  Beta  occ. eigenvalues --   -0.39344  -0.39050  -0.37188  -0.34933  -0.34380
  Beta  occ. eigenvalues --   -0.32998  -0.31647  -0.30835  -0.29797  -0.29036
  Beta  occ. eigenvalues --   -0.25965  -0.24925  -0.23303  -0.22520  -0.21791
  Beta  occ. eigenvalues --   -0.20756  -0.15991  -0.15035  -0.12792
  Beta virt. eigenvalues --    0.07366   0.08360   0.08568   0.08820   0.10039
  Beta virt. eigenvalues --    0.10245   0.10749   0.11242   0.11639   0.11800
  Beta virt. eigenvalues --    0.13374   0.13764   0.14536   0.14774   0.14894

 Mulliken charges and spin densities:
               1          2
     1  C   -0.354665  -0.218680
     2  C   -0.322879   0.446012
     3  C    0.961494  -1.276939
     4  C   -1.567987   2.234551
     5  C    0.906084  -1.157388
     6  C    0.024642  -0.500407
     7  O   -0.143647   0.028925
     8  C    0.530081  -1.119506
     9  C    1.590920  -2.291966
    10  N   -0.524514   0.148804
    11  H    0.033165   0.061769
    12  H   -0.111480   0.224643
    13  H    0.153176   0.095237
    14  H    0.046926   0.100194
    15  H    0.087585   0.102139
    16  H   -0.495759   0.696484
    17  H   -0.027785   0.175758
    18  H    0.092257   0.062953
    19  H   -0.175776   0.333267
    20  H   -0.028875   0.197156
    21  H   -0.022582   0.179191
    22  H   -0.490480   0.659194
    23  H   -0.522670   0.680937
    24  H   -0.393821   0.664314
    25  H   -0.243410   0.473358
 Sum of Mulliken charges =  -1.00000   1.00000

 Dipole moment (field-independent basis, Debye):
    X=             -1.4812    Y=             -6.6672    Z=             -2.8049  Tot=              7.3833
 Quadrupole moment (field-independent basis, Debye-Ang):
   XX=           -107.8041   YY=           -115.1931   ZZ=            -97.9466
   XY=             -6.1835   XZ=              0.2042   YZ=             -6.4530

 Summary of Natural Population Analysis:

                                       Natural Population
                Natural  -----------------------------------------------
    Atom  No    Charge         Core      Valence    Rydberg      Total
 -----------------------------------------------------------------------
      C    1   -0.20348      0.99956     2.19753    0.00640     3.20348
      C    2   -0.07612      0.99955     2.06659    0.00998     3.07612
      C    3   -0.20940      0.99957     2.19812    0.01172     3.20940
      C    4   -0.05230      0.99955     2.03673    0.01603     3.05230
      C    5   -0.21145      0.99959     2.20149    0.01038     3.21145
      C    6   -0.00915      0.99960     1.99724    0.01231     3.00915
      O    7   -0.30737      0.99990     3.29920    0.00827     4.30737
      C    8   -0.00147      0.99952     1.98860    0.01335     3.00147
      C    9   -0.08294      0.99956     2.06994    0.01345     3.08294
      N   10   -0.42647      0.99977     2.91497    0.01173     3.92647
      H   11    0.08607      0.00000     0.41262    0.00131     0.41393
      H   12    0.09165      0.00000     0.40726    0.00109     0.40835
      H   13    0.10814      0.00000     0.39023    0.00163     0.39186
      H   14    0.10592      0.00000     0.39284    0.00124     0.39408
      H   15    0.09958      0.00000     0.39826    0.00216     0.40042
      H   16    0.10576      0.00000     0.39182    0.00242     0.39424
      H   17    0.11155      0.00000     0.38703    0.00141     0.38845
      H   18    0.08100      0.00000     0.41756    0.00144     0.41900
      H   19    0.08454      0.00000     0.41417    0.00129     0.41546
      H   20    0.08334      0.00000     0.41486    0.00179     0.41666
      H   21    0.08853      0.00000     0.41010    0.00136     0.41147
      H   22    0.09081      0.00000     0.40727    0.00192     0.40919
      H   23    0.08552      0.00000     0.41023    0.00425     0.41448
      H   24    0.18201      0.00000     0.31223    0.00576     0.31799
      H   25    0.17573      0.00000     0.31953    0.00474     0.32427
 =======================================================================
   * Total *    0.00000      9.99615    28.85643    0.14743    39.00000

 Normal termination of Gaussian 16 at Tue Dec  8 13:59:52 2020.
