 Gaussian 16, Revision A.03,

 -----------------------------------------------------------
 # opt freq B3LYP/6-31G(d) empiricaldispersion=gd3bj scf=xqc
 -----------------------------------------------------------

 -------------------------------
 CID_115192782_JID_2379_neutraal
 -------------------------------
 Symbolic Z-matrix:
 Charge =  0 Multiplicity = 1

 SCF Done:  E(RB3LYP) =  -568.187050206     A.U. after   15 cycles
 SCF Done:  E(RB3LYP) =  -568.192293474     A.U. after   12 cycles
 SCF Done:  E(RB3LYP) =  -568.194917468     A.U. after   13 cycles
 SCF Done:  E(RB3LYP) =  -568.199421272     A.U. after   12 cycles
 SCF Done:  E(RB3LYP) =  -568.201969339     A.U. after   13 cycles
 SCF Done:  E(RB3LYP) =  -568.202606442     A.U. after   12 cycles
 SCF Done:  E(RB3LYP) =  -568.203279988     A.U. after   12 cycles
 SCF Done:  E(RB3LYP) =  -568.203385582     A.U. after   12 cycles
 SCF Done:  E(RB3LYP) =  -568.203464171     A.U. after   11 cycles
 SCF Done:  E(RB3LYP) =  -568.203481553     A.U. after   11 cycles
 SCF Done:  E(RB3LYP) =  -568.203493915     A.U. after    9 cycles
 SCF Done:  E(RB3LYP) =  -568.203497693     A.U. after    9 cycles
 SCF Done:  E(RB3LYP) =  -568.203499596     A.U. after    8 cycles
 SCF Done:  E(RB3LYP) =  -568.203500504     A.U. after    8 cycles
 SCF Done:  E(RB3LYP) =  -568.203500853     A.U. after    8 cycles
 SCF Done:  E(RB3LYP) =  -568.203500980     A.U. after    7 cycles
 Optimization completed.
    -- Stationary point found.
 Normal termination of Gaussian 16 at Wed Dec  9 17:18:45 2020.

 --------------------------------------------------------------------
 #N Geom=AllCheck Guess=TCheck SCRF=Check GenChk RB3LYP/6-31G(d) Freq
 --------------------------------------------------------------------

 Structure from the checkpoint file:  "JID_2379.chk"
 -------------------------------
 CID_115192782_JID_2379_neutraal
 -------------------------------
 Charge =  0 Multiplicity = 1

 SCF Done:  E(RB3LYP) =  -568.203500980     A.U. after    1 cycles

  Exact polarizability: 115.032  -6.412  95.646   2.150  10.439  81.669
 Approx polarizability: 157.442 -12.010 141.488  -1.446  21.350 134.328

                      1                      2                      3
                      A                      A                      A
 Frequencies --     54.9900                67.3371                90.8692
 Red. masses --      4.8120                 4.0922                 5.7549
 Frc consts  --      0.0086                 0.0109                 0.0280
 IR Inten    --      0.7058                 0.0650                 2.9525

                      4                      5                      6
                      A                      A                      A
 Frequencies --    114.0413               122.6503               173.1295
 Red. masses --      3.4617                 1.1595                 3.3862
 Frc consts  --      0.0265                 0.0103                 0.0598
 IR Inten    --      1.2685                 0.5329                 8.0516

                      7                      8                      9
                      A                      A                      A
 Frequencies --    219.8186               230.3197               285.6389
 Red. masses --      3.9536                 4.0137                 2.2565
 Frc consts  --      0.1126                 0.1254                 0.1085
 IR Inten    --      9.5430                 5.8668                15.6667

                     10                     11                     12
                      A                      A                      A
 Frequencies --    321.9375               348.7871               419.1233
 Red. masses --      1.6082                 2.8560                 3.9192
 Frc consts  --      0.0982                 0.2047                 0.4056
 IR Inten    --     24.4191                20.6183                 5.3224

                     13                     14                     15
                      A                      A                      A
 Frequencies --    436.4203               554.8460               578.4725
 Red. masses --      2.2386                 4.6934                 2.2962
 Frc consts  --      0.2512                 0.8513                 0.4527
 IR Inten    --      8.9291                16.8540                27.3663

                     16                     17                     18
                      A                      A                      A
 Frequencies --    608.1344               639.1091               674.9696
 Red. masses --      3.8784                 3.4888                 1.5684
 Frc consts  --      0.8451                 0.8396                 0.4210
 IR Inten    --      7.6333                 0.6384                 6.3423

                     19                     20                     21
                      A                      A                      A
 Frequencies --    709.9618               738.2968               754.5162
 Red. masses --      1.3608                 4.7215                 3.5949
 Frc consts  --      0.4041                 1.5163                 1.2058
 IR Inten    --     41.1053                14.0162                20.2928

                     22                     23                     24
                      A                      A                      A
 Frequencies --    794.1781               806.3726               840.3858
 Red. masses --      2.2403                 1.6252                 1.8184
 Frc consts  --      0.8325                 0.6226                 0.7567
 IR Inten    --     51.3710                20.5926                37.6590

                     25                     26                     27
                      A                      A                      A
 Frequencies --    858.4751               908.7800               956.6157
 Red. masses --      1.2826                 5.5436                 2.1002
 Frc consts  --      0.5569                 2.6975                 1.1323
 IR Inten    --      0.3992                 1.3612                15.6268

                     28                     29                     30
                      A                      A                      A
 Frequencies --    972.6229               986.6279              1036.5645
 Red. masses --      1.6977                 2.4833                 1.8877
 Frc consts  --      0.9462                 1.4243                 1.1950
 IR Inten    --     98.5847                30.5694                88.0139

                     31                     32                     33
                      A                      A                      A
 Frequencies --   1060.1513              1125.0822              1137.2578
 Red. masses --      1.3573                 1.8277                 2.0547
 Frc consts  --      0.8988                 1.3631                 1.5657
 IR Inten    --      9.8944                41.6015                16.1118

                     34                     35                     36
                      A                      A                      A
 Frequencies --   1155.3612              1165.7596              1179.3853
 Red. masses --      1.5189                 1.3510                 1.9956
 Frc consts  --      1.1946                 1.0817                 1.6354
 IR Inten    --     15.8957                12.5806                14.3869

                     37                     38                     39
                      A                      A                      A
 Frequencies --   1265.7942              1280.2012              1292.0319
 Red. masses --      2.8346                 2.1509                 2.5463
 Frc consts  --      2.6759                 2.0769                 2.5044
 IR Inten    --     25.6421                 8.2128                76.6811

                     40                     41                     42
                      A                      A                      A
 Frequencies --   1323.0930              1334.3821              1390.6602
 Red. masses --      1.4633                 1.2082                 1.3035
 Frc consts  --      1.5093                 1.2675                 1.4852
 IR Inten    --     18.4556                22.1433                21.0802

                     43                     44                     45
                      A                      A                      A
 Frequencies --   1444.9400              1463.3218              1474.0449
 Red. masses --      1.9534                 3.0568                 1.5724
 Frc consts  --      2.4030                 3.8565                 2.0130
 IR Inten    --    103.1037                17.7092                25.2718

                     46                     47                     48
                      A                      A                      A
 Frequencies --   1476.7951              1478.7620              1515.7024
 Red. masses --      1.5367                 2.1389                 2.3015
 Frc consts  --      1.9747                 2.7558                 3.1152
 IR Inten    --     12.1174                49.3005                10.8575

                     49                     50                     51
                      A                      A                      A
 Frequencies --   1518.5737              1526.6077              1547.8700
 Red. masses --      1.2089                 1.1335                 1.1554
 Frc consts  --      1.6425                 1.5564                 1.6310
 IR Inten    --     10.0536                19.4707                19.4363

                     52                     53                     54
                      A                      A                      A
 Frequencies --   1631.3358              1713.8501              1786.3000
 Red. masses --      3.7368                 1.1014                 6.6155
 Frc consts  --      5.8593                 1.9061                12.4372
 IR Inten    --      5.5588                37.8083               342.5038

                     55                     56                     57
                      A                      A                      A
 Frequencies --   3044.6390              3094.7923              3106.0981
 Red. masses --      1.0421                 1.0653                 1.0996
 Frc consts  --      5.6918                 6.0115                 6.2507
 IR Inten    --     35.5869                24.7988                34.9225

                     58                     59                     60
                      A                      A                      A
 Frequencies --   3152.2207              3194.9780              3246.4685
 Red. masses --      1.1002                 1.0978                 1.0911
 Frc consts  --      6.4409                 6.6028                 6.7753
 IR Inten    --      3.5760                 3.1945                 6.4417

                     61                     62                     63
                      A                      A                      A
 Frequencies --   3260.2604              3280.2633              3440.8688
 Red. masses --      1.0944                 1.1033                 1.0512
 Frc consts  --      6.8539                 6.9947                 7.3326
 IR Inten    --      8.1925                 6.1927                 7.0115

                     64                     65                     66
                      A                      A                      A
 Frequencies --   3474.6200              3556.6345              3596.2756
 Red. masses --      1.0746                 1.0933                 1.0818
 Frc consts  --      7.6438                 8.1483                 8.2435
 IR Inten    --      6.5796                 1.2200               149.2536

 - Thermochemistry -
 -------------------
 Temperature   298.150 Kelvin.  Pressure   1.00000 Atm.
 Atom     1 has atomic number  6 and mass  12.00000

 Molecular mass:   168.10111 amu.
 Principal axes and moments of inertia in atomic units:
                           1         2         3
     Eigenvalues --  1211.423712708.035783080.53114
           X            0.99980  -0.01437   0.01401
           Y            0.01405   0.99964   0.02272
           Z           -0.01433  -0.02252   0.99964
 This molecule is an asymmetric top.
 Rotational symmetry number  1.
 Warning -- assumption of classical behavior for rotation
           may cause significant error
 Rotational temperatures (Kelvin)      0.07150     0.03198     0.02812
 Rotational constants (GHZ):           1.48977     0.66644     0.58585
 Zero-point vibrational energy     532573.7 (Joules/Mol)
                                  127.28818 (Kcal/Mol)
 Warning -- explicit consideration of  16 degrees of freedom as
           vibrations may cause significant error
 Vibrational temperatures:     79.12    96.88   130.74   164.08   176.47
          (Kelvin)            249.09   316.27   331.38   410.97   463.20
                              501.83   603.02   627.91   798.30   832.29
                              874.97   919.54   971.13  1021.48  1062.24
                             1085.58  1142.65  1160.19  1209.13  1235.15
                             1307.53  1376.36  1399.39  1419.54  1491.39
                             1525.32  1618.74  1636.26  1662.31  1677.27
                             1696.87  1821.20  1841.92  1858.95  1903.64
                             1919.88  2000.85  2078.95  2105.39  2120.82
                             2124.78  2127.61  2180.76  2184.89  2196.45
                             2227.04  2347.13  2465.85  2570.09  4380.56
                             4452.72  4468.98  4535.34  4596.86  4670.94
                             4690.79  4719.57  4950.64  4999.20  5117.20
                             5174.24

 Zero-point correction=                           0.202847 (Hartree/Particle)
 Thermal correction to Energy=                    0.214684
 Thermal correction to Enthalpy=                  0.215628
 Thermal correction to Gibbs Free Energy=         0.164533
 Sum of electronic and zero-point Energies=           -568.000654
 Sum of electronic and thermal Energies=              -567.988817
 Sum of electronic and thermal Enthalpies=            -567.987873
 Sum of electronic and thermal Free Energies=         -568.038968

                     E (Thermal)             CV                S
                      KCal/Mol        Cal/Mol-Kelvin    Cal/Mol-Kelvin
 Total                  134.716             43.951            107.539
 Electronic               0.000              0.000              0.000
 Translational            0.889              2.981             41.266
 Rotational               0.889              2.981             30.692
 Vibrational            132.939             37.990             35.581
 Vibration     1          0.596              1.976              4.629
 Vibration     2          0.598              1.970              4.230
 Vibration     3          0.602              1.956              3.641
 Vibration     4          0.607              1.938              3.199
 Vibration     5          0.610              1.930              3.058
 Vibration     6          0.627              1.876              2.401
 Vibration     7          0.647              1.811              1.961
 Vibration     8          0.652              1.795              1.876
 Vibration     9          0.683              1.700              1.500
 Vibration    10          0.707              1.631              1.300
 Vibration    11          0.726              1.578              1.172
 Vibration    12          0.782              1.429              0.895
 Vibration    13          0.797              1.391              0.838
 Vibration    14          0.910              1.129              0.534
 Vibration    15          0.935              1.078              0.488
 Vibration    16          0.967              1.015              0.436

                           ! Non-Optimized Parameters !
 Normal termination of Gaussian 16 at Wed Dec  9 17:24:37 2020.

 ----------------------------------------------------------------------
 # B3LYP/6-311++G(d,p) empiricaldispersion=gd3bj scf=xqc pop=npa geom=c
 heck
 ----------------------------------------------------------------------

 ---------------------------------------
 CID_115192782_JID_2379_Energie_neutraal
 ---------------------------------------
 Structure from the checkpoint file:  "JID_2379.chk"
 Charge =  0 Multiplicity = 1

 SCF Done:  E(RB3LYP) =  -568.379975038     A.U. after   14 cycles
 Normal termination of Gaussian 16 at Wed Dec  9 17:27:07 2020.

 ----------------------------------------------------------------------
 # B3LYP/6-311++G(d,p) empiricaldispersion=gd3bj scf=xqc pop=npa geom=c
 heck
 ----------------------------------------------------------------------

 -------------------------------------
 CID_115192782_JID_2379_Energie_kation
 -------------------------------------
 Structure from the checkpoint file:  "JID_2379.chk"
 Charge =  1 Multiplicity = 2

 SCF Done:  E(UB3LYP) =  -568.094630803     A.U. after   24 cycles
 Normal termination of Gaussian 16 at Wed Dec  9 17:33:11 2020.
 Gaussian 16:  ES64L-G16RevA.03 25-Dec-2016

 ----------------------------------------------------------------------
 # B3LYP/6-311++G(d,p) empiricaldispersion=gd3bj scf=xqc pop=npa geom=c
 heck
 ----------------------------------------------------------------------

 ------------------------------------
 CID_115192782_JID_2379_Energie_anion
 ------------------------------------
 Structure from the checkpoint file:  "JID_2379.chk"
 Charge = -1 Multiplicity = 2

                         Standard orientation:
 ---------------------------------------------------------------------
 Center     Atomic      Atomic             Coordinates (Angstroms)
 Number     Number       Type             X           Y           Z
 ---------------------------------------------------------------------
      1          6           0        0.893995    2.336718   -0.087303
      2          7           0        1.056457    0.950033    0.338443
      3          6           0        0.002731    0.449515    1.246399
      4          6           0       -1.268414    0.096178    0.542061
      5          6           0       -2.523947    0.673539    0.560537
      6          6           0       -3.355654   -0.067757   -0.328261
      7          6           0       -2.581155   -1.072130   -0.870755
      8          7           0       -1.322773   -0.970507   -0.330252
      9          6           0        1.719224    0.126506   -0.529687
     10          8           0        2.242941    0.497717   -1.575117
     11          7           0        1.760944   -1.267869   -0.224199
     12          7           0        2.111583   -1.642949    1.105223
     13          1           0        0.877572    2.980173    0.798270
     14          1           0       -0.044163    2.472074   -0.641198
     15          1           0        1.727360    2.612311   -0.730928
     16          1           0        0.416079   -0.395602    1.797404
     17          1           0       -0.199424    1.246024    1.967771
     18          1           0       -2.809773    1.530691    1.156030
     19          1           0       -4.399465    0.114671   -0.544112
     20          1           0       -2.820408   -1.843548   -1.588300
     21          1           0       -0.507934   -1.521368   -0.571118
     22          1           0        2.352895   -1.680432   -0.945044
     23          1           0        1.773611   -2.589190    1.260151
     24          1           0        3.125974   -1.643916    1.219552
 ---------------------------------------------------------------------

 SCF Done:  E(UB3LYP) =  -568.371922857     A.U. after   31 cycles

 The electronic state is 2-A.
 Alpha  occ. eigenvalues --  -18.97894 -14.24710 -14.23888 -14.23650 -14.21453
 Alpha  occ. eigenvalues --  -10.18368 -10.10530 -10.09700 -10.09372 -10.09094
 Alpha  occ. eigenvalues --  -10.05806 -10.05698  -0.94697  -0.87464  -0.85696
 Alpha  occ. eigenvalues --   -0.83002  -0.67738  -0.67096  -0.65924  -0.60132
 Alpha  occ. eigenvalues --   -0.57675  -0.48600  -0.47184  -0.45975  -0.43040
 Alpha  occ. eigenvalues --   -0.41847  -0.39486  -0.38814  -0.36270  -0.35373
 Alpha  occ. eigenvalues --   -0.33305  -0.31915  -0.31795  -0.30369  -0.29832
 Alpha  occ. eigenvalues --   -0.29202  -0.28667  -0.27891  -0.27159  -0.18623
 Alpha  occ. eigenvalues --   -0.15703  -0.14982  -0.14854  -0.14391  -0.11319
 Alpha  occ. eigenvalues --    0.04644
 Alpha virt. eigenvalues --    0.06883   0.07408   0.08751   0.09380   0.09980
 Alpha virt. eigenvalues --    0.10704   0.11240   0.11489   0.11995   0.12764
 Alpha virt. eigenvalues --    0.13624   0.13913   0.14515   0.15304   0.15610

  Beta  occ. eigenvalues --  -18.97863 -14.24694 -14.23860 -14.23641 -14.21328
  Beta  occ. eigenvalues --  -10.18353 -10.10518 -10.09694 -10.09370 -10.09080
  Beta  occ. eigenvalues --  -10.05805 -10.05691  -0.94642  -0.87441  -0.85583
  Beta  occ. eigenvalues --   -0.82970  -0.67580  -0.67014  -0.65902  -0.60098
  Beta  occ. eigenvalues --   -0.57640  -0.48565  -0.47165  -0.45931  -0.42997
  Beta  occ. eigenvalues --   -0.41693  -0.39427  -0.38673  -0.36227  -0.35332
  Beta  occ. eigenvalues --   -0.33281  -0.31886  -0.31756  -0.30349  -0.29814
  Beta  occ. eigenvalues --   -0.29182  -0.28586  -0.27856  -0.27137  -0.18546
  Beta  occ. eigenvalues --   -0.15605  -0.14951  -0.14806  -0.14336  -0.11291
  Beta virt. eigenvalues --    0.06810   0.07692   0.08474   0.09017   0.09762
  Beta virt. eigenvalues --    0.10384   0.11343   0.11695   0.12134   0.12378
  Beta virt. eigenvalues --    0.12610   0.13912   0.14148   0.14971   0.15326

 Mulliken charges and spin densities:
               1          2
     1  C   -0.060945  -0.289931
     2  N    0.078152   0.061401
     3  C    0.488809  -1.764832
     4  C   -0.387931   0.393400
     5  C   -0.260344   0.766622
     6  C    0.420452  -1.005764
     7  C   -0.203006   0.285004
     8  N   -0.149120   0.088916
     9  C    0.818658  -0.739792
    10  O   -0.397662   0.026047
    11  N   -0.446041   0.132105
    12  N    0.013617  -0.415107
    13  H    0.051003   0.078741
    14  H    0.157653   0.010440
    15  H    0.189816  -0.008091
    16  H    0.090837   0.199437
    17  H   -0.019312   0.161774
    18  H   -0.108156   0.261137
    19  H    0.063739   0.067174
    20  H   -0.472156   0.624125
    21  H    0.183149   0.181542
    22  H   -0.221134   0.536986
    23  H   -0.444455   0.704978
    24  H   -0.385622   0.643687
 Sum of Mulliken charges =  -1.00000   1.00000

 Dipole moment (field-independent basis, Debye):
    X=             -5.1851    Y=              7.0389    Z=             -0.3927  Tot=              8.7513
 Quadrupole moment (field-independent basis, Debye-Ang):
   XX=           -126.4102   YY=           -113.6169   ZZ=           -103.3526
   XY=             12.4216   XZ=             -2.3789   YZ=              6.5960

 Summary of Natural Population Analysis:

                                       Natural Population
                Natural  -----------------------------------------------
    Atom  No    Charge         Core      Valence    Rydberg      Total
 -----------------------------------------------------------------------
      C    1   -0.17726      0.99964     2.17098    0.00664     3.17726
      N    2   -0.25680      0.99964     2.74709    0.01006     3.75680
      C    3   -0.10645      0.99955     2.09472    0.01218     3.10645
      C    4    0.05751      0.99953     1.92918    0.01378     2.94249
      C    5   -0.14618      0.99951     2.13866    0.00801     3.14618
      C    6   -0.15341      0.99957     2.14476    0.00908     3.15341
      C    7   -0.02061      0.99958     2.00805    0.01298     3.02061
      N    8   -0.26796      0.99965     2.75886    0.00945     3.76796
      C    9    0.41156      0.99966     1.56421    0.02456     2.58844
      O   10   -0.33402      0.99988     3.32885    0.00529     4.33402
      N   11   -0.26949      0.99970     2.75297    0.01682     3.76949
      N   12   -0.32951      0.99976     2.81603    0.01373     3.82951
      H   13    0.08944      0.00000     0.40954    0.00102     0.41056
      H   14    0.09312      0.00000     0.40565    0.00122     0.40688
      H   15    0.11144      0.00000     0.38766    0.00090     0.38856
      H   16    0.12761      0.00000     0.36999    0.00240     0.37239
      H   17    0.10075      0.00000     0.39823    0.00102     0.39925
      H   18    0.10156      0.00000     0.39766    0.00078     0.39844
      H   19    0.10071      0.00000     0.39864    0.00065     0.39929
      H   20    0.09945      0.00000     0.39959    0.00096     0.40055
      H   21    0.21570      0.00000     0.28099    0.00331     0.28430
      H   22    0.18614      0.00000     0.31006    0.00380     0.31386
      H   23    0.18761      0.00000     0.29070    0.02169     0.31239
      H   24    0.17909      0.00000     0.31031    0.01061     0.32091
 =======================================================================
   * Total *    0.00000     11.99569    32.81338    0.19093    45.00000

 Normal termination of Gaussian 16 at Wed Dec  9 17:40:55 2020.
