 Gaussian 16, Revision A.03,

 -----------------------------------------------------------
 # opt freq B3LYP/6-31G(d) empiricaldispersion=gd3bj scf=xqc
 -----------------------------------------------------------

 ------------------------------
 CID_71472388_JID_4919_neutraal
 ------------------------------
 Symbolic Z-matrix:
 Charge =  0 Multiplicity = 1

 SCF Done:  E(RB3LYP) =  -638.111730248     A.U. after   16 cycles
 SCF Done:  E(RB3LYP) =  -638.120553525     A.U. after   13 cycles
 SCF Done:  E(RB3LYP) =  -638.121667822     A.U. after   13 cycles
 SCF Done:  E(RB3LYP) =  -638.121938485     A.U. after   13 cycles
 SCF Done:  E(RB3LYP) =  -638.122136430     A.U. after   13 cycles
 SCF Done:  E(RB3LYP) =  -638.122270645     A.U. after   13 cycles
 SCF Done:  E(RB3LYP) =  -638.122630946     A.U. after   14 cycles
 SCF Done:  E(RB3LYP) =  -638.122824875     A.U. after   14 cycles
 SCF Done:  E(RB3LYP) =  -638.122960291     A.U. after   13 cycles
 SCF Done:  E(RB3LYP) =  -638.123116981     A.U. after   13 cycles
 SCF Done:  E(RB3LYP) =  -638.123113059     A.U. after   13 cycles
 SCF Done:  E(RB3LYP) =  -638.123156532     A.U. after   11 cycles
 SCF Done:  E(RB3LYP) =  -638.123157978     A.U. after   10 cycles
 SCF Done:  E(RB3LYP) =  -638.123158202     A.U. after    9 cycles
 SCF Done:  E(RB3LYP) =  -638.123158348     A.U. after    9 cycles
 Optimization completed.
    -- Stationary point found.
 Normal termination of Gaussian 16 at Thu Dec 10 10:51:48 2020.

 --------------------------------------------------------------------
 #N Geom=AllCheck Guess=TCheck SCRF=Check GenChk RB3LYP/6-31G(d) Freq
 --------------------------------------------------------------------

 Structure from the checkpoint file:  "JID_4919.chk"
 ------------------------------
 CID_71472388_JID_4919_neutraal
 ------------------------------
 Charge =  0 Multiplicity = 1

 SCF Done:  E(RB3LYP) =  -638.123158348     A.U. after    1 cycles

  Exact polarizability: 209.546  -2.423 113.146  -3.358  -2.133  51.847
 Approx polarizability: 288.888  -3.501 225.327  -5.570  -6.114  82.180

                      1                      2                      3
                      A                      A                      A
 Frequencies --     19.0126                41.1876                61.0107
 Red. masses --      5.2844                 6.3210                 2.9012
 Frc consts  --      0.0011                 0.0063                 0.0064
 IR Inten    --      0.1600                 4.9644                 4.0741

                      4                      5                      6
                      A                      A                      A
 Frequencies --    120.4129               141.3933               215.6061
 Red. masses --      4.5303                 4.8018                 2.6197
 Frc consts  --      0.0387                 0.0566                 0.0717
 IR Inten    --      4.3841                 2.7304                18.7727

                      7                      8                      9
                      A                      A                      A
 Frequencies --    256.3821               309.9669               331.7810
 Red. masses --      1.5257                 6.3453                 3.3064
 Frc consts  --      0.0591                 0.3592                 0.2144
 IR Inten    --     62.6795                 0.3200                 7.3813

                     10                     11                     12
                      A                      A                      A
 Frequencies --    336.3126               408.2596               422.1108
 Red. masses --     11.7869                 3.6302                 4.9554
 Frc consts  --      0.7855                 0.3565                 0.5202
 IR Inten    --      0.2191                 0.0595                 4.7831

                     13                     14                     15
                      A                      A                      A
 Frequencies --    455.6801               501.0867               593.3542
 Red. masses --      5.4524                 6.2991                 4.0492
 Frc consts  --      0.6670                 0.9319                 0.8399
 IR Inten    --      6.3939                 3.5462                28.0513

                     16                     17                     18
                      A                      A                      A
 Frequencies --    630.7400               650.5201               678.8761
 Red. masses --      7.2150                 5.1338                12.3624
 Frc consts  --      1.6912                 1.2800                 3.3569
 IR Inten    --      5.5941                 9.6280                 0.4458

                     19                     20                     21
                      A                      A                      A
 Frequencies --    751.8444               760.2369               797.1439
 Red. masses --      5.6310                 1.8394                 2.6979
 Frc consts  --      1.8754                 0.6264                 1.0101
 IR Inten    --     11.9083                13.4614                17.1290

                     22                     23                     24
                      A                      A                      A
 Frequencies --    849.1631               865.9360               871.7217
 Red. masses --      3.4542                 2.2538                 2.5143
 Frc consts  --      1.4675                 0.9957                 1.1257
 IR Inten    --      3.3540                79.2423                65.4083

                     25                     26                     27
                      A                      A                      A
 Frequencies --    929.6709               986.4735              1013.4188
 Red. masses --      1.3140                 1.4270                 7.1420
 Frc consts  --      0.6691                 0.8182                 4.3216
 IR Inten    --      1.1038                 0.4389                10.0179

                     28                     29                     30
                      A                      A                      A
 Frequencies --   1015.4189              1018.3121              1028.4800
 Red. masses --      7.1482                 1.2994                 2.2054
 Frc consts  --      4.3425                 0.7939                 1.3744
 IR Inten    --     33.5047                 0.2640                16.9245

                     31                     32                     33
                      A                      A                      A
 Frequencies --   1071.0257              1089.1756              1094.1608
 Red. masses --      3.5528                 4.6404                 2.3233
 Frc consts  --      2.4012                 3.2434                 1.6388
 IR Inten    --      5.6462                 4.0882                 0.5621

                     34                     35                     36
                      A                      A                      A
 Frequencies --   1126.3614              1139.5574              1185.0979
 Red. masses --      1.8009                 3.1597                 1.2142
 Frc consts  --      1.3461                 2.4175                 1.0048
 IR Inten    --      2.3075                40.4750                 2.1396

                     37                     38                     39
                      A                      A                      A
 Frequencies --   1189.4258              1292.7218              1300.4079
 Red. masses --      1.2589                 1.3576                 3.2244
 Frc consts  --      1.0493                 1.3367                 3.2126
 IR Inten    --      5.9308                15.8300                 8.4704

                     40                     41                     42
                      A                      A                      A
 Frequencies --   1312.0376              1329.2673              1372.4755
 Red. masses --      2.4790                 3.8638                 2.8719
 Frc consts  --      2.5143                 4.0224                 3.1874
 IR Inten    --      0.4683                45.5629                 4.2494

                     43                     44                     45
                      A                      A                      A
 Frequencies --   1408.1534              1467.9552              1479.8735
 Red. masses --      2.9560                 2.3791                 2.3224
 Frc consts  --      3.4535                 3.0205                 2.9966
 IR Inten    --    191.0837                34.1890                 5.4472

                     46                     47                     48
                      A                      A                      A
 Frequencies --   1507.9936              1521.2068              1530.8748
 Red. masses --      3.8764                 2.9352                 1.5237
 Frc consts  --      5.1937                 4.0019                 2.1039
 IR Inten    --      1.5113                 3.9050                 3.0155

                     49                     50                     51
                      A                      A                      A
 Frequencies --   1542.7933              1633.7278              1642.8264
 Red. masses --      3.5020                 5.8559                 5.5303
 Frc consts  --      4.9111                 9.2089                 8.7939
 IR Inten    --      1.5326                16.8816                10.8780

                     52                     53                     54
                      A                      A                      A
 Frequencies --   1684.2499              2931.1344              3099.3554
 Red. masses --      1.0883                 1.0740                 1.0861
 Frc consts  --      1.8188                 5.4367                 6.1472
 IR Inten    --     61.5474                57.1898                11.1159

                     55                     56                     57
                      A                      A                      A
 Frequencies --   3177.0661              3201.2228              3218.6244
 Red. masses --      1.0894                 1.0891                 1.0963
 Frc consts  --      6.4788                 6.5760                 6.6915
 IR Inten    --     23.9842                10.5527                22.4092

                     58                     59                     60
                      A                      A                      A
 Frequencies --   3246.2572              3490.7050              3580.3169
 Red. masses --      1.0932                 1.0494                 1.0935
 Frc consts  --      6.7875                 7.5340                 8.2584
 IR Inten    --      0.9729                 2.1985                 1.9578

 - Thermochemistry -
 -------------------
 Temperature   298.150 Kelvin.  Pressure   1.00000 Atm.
 Atom     1 has atomic number  6 and mass  12.00000

 Molecular mass:   188.08104 amu.
 Principal axes and moments of inertia in atomic units:
                           1         2         3
     Eigenvalues --   686.854085381.066146011.17870
           X            1.00000  -0.00103  -0.00128
           Y            0.00103   1.00000  -0.00255
           Z            0.00129   0.00255   1.00000
 This molecule is an asymmetric top.
 Rotational symmetry number  1.
 Warning -- assumption of classical behavior for rotation
           may cause significant error
 Rotational temperatures (Kelvin)      0.12610     0.01610     0.01441
 Rotational constants (GHZ):           2.62755     0.33539     0.30023
 Zero-point vibrational energy     436203.7 (Joules/Mol)
                                  104.25519 (Kcal/Mol)
 Warning -- explicit consideration of  15 degrees of freedom as
           vibrations may cause significant error
 Vibrational temperatures:     27.35    59.26    87.78   173.25   203.43
          (Kelvin)            310.21   368.88   445.97   477.36   483.88
                              587.39   607.32   655.62   720.95   853.70
                              907.49   935.95   976.75  1081.74  1093.81
                             1146.91  1221.76  1245.89  1254.21  1337.59
                             1419.32  1458.08  1460.96  1465.12  1479.75
                             1540.97  1567.08  1574.25  1620.58  1639.57
                             1705.09  1711.32  1859.94  1871.00  1887.73
                             1912.52  1974.69  2026.02  2112.06  2129.21
                             2169.67  2188.68  2202.59  2219.74  2350.57
                             2363.66  2423.26  4217.25  4459.28  4571.09
                             4605.85  4630.88  4670.64  5022.35  5151.28

 Zero-point correction=                           0.166141 (Hartree/Particle)
 Thermal correction to Energy=                    0.177639
 Thermal correction to Enthalpy=                  0.178584
 Thermal correction to Gibbs Free Energy=         0.126301
 Sum of electronic and zero-point Energies=           -637.957017
 Sum of electronic and thermal Energies=              -637.945519
 Sum of electronic and thermal Enthalpies=            -637.944575
 Sum of electronic and thermal Free Energies=         -637.996858

                     E (Thermal)             CV                S
                      KCal/Mol        Cal/Mol-Kelvin    Cal/Mol-Kelvin
 Total                  111.470             42.692            110.039
 Electronic               0.000              0.000              0.000
 Translational            0.889              2.981             41.601
 Rotational               0.889              2.981             31.475
 Vibrational            109.693             36.730             36.964
 Vibration     1          0.593              1.986              6.735
 Vibration     2          0.594              1.981              5.201
 Vibration     3          0.597              1.973              4.424
 Vibration     4          0.609              1.932              3.094
 Vibration     5          0.615              1.912              2.785
 Vibration     6          0.645              1.817              1.996
 Vibration     7          0.666              1.752              1.686
 Vibration     8          0.699              1.655              1.363
 Vibration     9          0.714              1.612              1.251
 Vibration    10          0.717              1.603              1.230
 Vibration    11          0.773              1.452              0.933
 Vibration    12          0.784              1.422              0.885
 Vibration    13          0.814              1.348              0.779
 Vibration    14          0.856              1.248              0.655
 Vibration    15          0.951              1.046              0.461

                           ! Non-Optimized Parameters !
 Normal termination of Gaussian 16 at Thu Dec 10 10:56:36 2020.

 ----------------------------------------------------------------------
 # B3LYP/6-311++G(d,p) empiricaldispersion=gd3bj scf=xqc pop=npa geom=c
 heck
 ----------------------------------------------------------------------

 --------------------------------------
 CID_71472388_JID_4919_Energie_neutraal
 --------------------------------------
 Structure from the checkpoint file:  "JID_4919.chk"
 Charge =  0 Multiplicity = 1

 SCF Done:  E(RB3LYP) =  -638.293906330     A.U. after   16 cycles
 Normal termination of Gaussian 16 at Thu Dec 10 10:58:32 2020.

 ----------------------------------------------------------------------
 # B3LYP/6-311++G(d,p) empiricaldispersion=gd3bj scf=xqc pop=npa geom=c
 heck
 ----------------------------------------------------------------------

 ------------------------------------
 CID_71472388_JID_4919_Energie_kation
 ------------------------------------
 Structure from the checkpoint file:  "JID_4919.chk"
 Charge =  1 Multiplicity = 2

 SCF Done:  E(UB3LYP) =  -637.981672100     A.U. after   33 cycles
 SCF Done:  E(UB3LYP) =  -637.981672100     a.u. after    1 cycles
 Normal termination of Gaussian 16 at Thu Dec 10 11:03:24 2020.
 Gaussian 16:  ES64L-G16RevA.03 25-Dec-2016

 ----------------------------------------------------------------------
 # B3LYP/6-311++G(d,p) empiricaldispersion=gd3bj scf=xqc pop=npa geom=c
 heck
 ----------------------------------------------------------------------

 -----------------------------------
 CID_71472388_JID_4919_Energie_anion
 -----------------------------------
 Structure from the checkpoint file:  "JID_4919.chk"
 Charge = -1 Multiplicity = 2

                         Standard orientation:
 ---------------------------------------------------------------------
 Center     Atomic      Atomic             Coordinates (Angstroms)
 Number     Number       Type             X           Y           Z
 ---------------------------------------------------------------------
      1          6           0       -3.565382    1.315689   -0.011320
      2          6           0       -4.292281    0.133495    0.110552
      3          6           0       -3.588636   -1.072931    0.162651
      4          7           0       -2.259599   -1.157845    0.100678
      5          6           0       -1.568133   -0.014219   -0.018334
      6          6           0       -2.176663    1.247103   -0.076856
      7          6           0       -0.087864   -0.127001   -0.084295
      8          7           0        0.609301    1.020134   -0.163655
      9          7           0        1.926030    0.944815   -0.175918
     10          6           0        2.478557   -0.274265   -0.105840
     11          7           0        1.784156   -1.425954   -0.094524
     12          7           0        0.468988   -1.356427   -0.084160
     13          6           0        3.980427   -0.365628   -0.109831
     14          7           0        4.571444    0.801033    0.535332
     15          1           0       -4.069093    2.276881   -0.054525
     16          1           0       -5.376373    0.139384    0.165640
     17          1           0       -4.121017   -2.017204    0.259963
     18          1           0       -1.564467    2.135479   -0.170389
     19          1           0        4.259764   -1.274433    0.432852
     20          1           0        4.289375   -0.526616   -1.161544
     21          1           0        5.580773    0.786415    0.411230
     22          1           0        4.218653    1.646352    0.092151
 ---------------------------------------------------------------------

 SCF Done:  E(UB3LYP) =  -638.337956278     A.U. after   27 cycles

 The electronic state is 2-A.
 Alpha  occ. eigenvalues --  -14.18803 -14.17438 -14.16200 -14.15994 -14.15696
 Alpha  occ. eigenvalues --  -14.15626 -10.09412 -10.09379 -10.08022 -10.07577
 Alpha  occ. eigenvalues --  -10.07547 -10.07396 -10.07089 -10.06128  -0.88891
 Alpha  occ. eigenvalues --   -0.82867  -0.80037  -0.76731  -0.70191  -0.69257
 Alpha  occ. eigenvalues --   -0.64450  -0.57242  -0.56084  -0.51744  -0.51312
 Alpha  occ. eigenvalues --   -0.47207  -0.41221  -0.40268  -0.37071  -0.35937
 Alpha  occ. eigenvalues --   -0.35801  -0.33888  -0.32139  -0.30290  -0.29677
 Alpha  occ. eigenvalues --   -0.29218  -0.27678  -0.26278  -0.25939  -0.19623
 Alpha  occ. eigenvalues --   -0.18478  -0.17208  -0.17007  -0.16103  -0.14203
 Alpha  occ. eigenvalues --   -0.12900  -0.12494  -0.11725  -0.04049   0.02402
 Alpha virt. eigenvalues --    0.06774   0.07284   0.08373   0.08563   0.09290
 Alpha virt. eigenvalues --    0.10917   0.11612   0.12294   0.13266   0.14583
 Alpha virt. eigenvalues --    0.14714   0.15092   0.15337   0.17703   0.17759

  Beta  occ. eigenvalues --  -14.18823 -14.17437 -14.15585 -14.15390 -14.15095
  Beta  occ. eigenvalues --  -14.15004 -10.09364 -10.09363 -10.07980 -10.07716
  Beta  occ. eigenvalues --  -10.07695 -10.07428 -10.07085 -10.06138  -0.87898
  Beta  occ. eigenvalues --   -0.82845  -0.78683  -0.76681  -0.69762  -0.69193
  Beta  occ. eigenvalues --   -0.64285  -0.57062  -0.54953  -0.51603  -0.51064
  Beta  occ. eigenvalues --   -0.47063  -0.41141  -0.39962  -0.36996  -0.35869
  Beta  occ. eigenvalues --   -0.35644  -0.33684  -0.32070  -0.29729  -0.29508
  Beta  occ. eigenvalues --   -0.29153  -0.26920  -0.25939  -0.25441  -0.18171
  Beta  occ. eigenvalues --   -0.16709  -0.16551  -0.15534  -0.15325  -0.13967
  Beta  occ. eigenvalues --   -0.12604  -0.11777  -0.10652  -0.03214
  Beta virt. eigenvalues --    0.07091   0.07275   0.08283   0.08535   0.09282
  Beta virt. eigenvalues --    0.10906   0.11607   0.12006   0.12305   0.13298
  Beta virt. eigenvalues --    0.14695   0.14767   0.15229   0.15401   0.17715

 Mulliken charges and spin densities:
               1          2
     1  C   -1.021286   0.033838
     2  C    0.062211  -0.018661
     3  C   -0.166599   0.028885
     4  N    0.068544  -0.007978
     5  C   -0.654481   0.010712
     6  C    0.593541   0.019345
     7  C   -0.038137  -0.100913
     8  N   -0.246109   0.281117
     9  N   -0.000769   0.293233
    10  C    0.157229  -0.059088
    11  N    0.140437   0.295474
    12  N   -0.381912   0.275476
    13  C   -0.547929  -0.043472
    14  N   -0.380221   0.002850
    15  H    0.134701  -0.002655
    16  H    0.140611   0.001825
    17  H    0.162976  -0.002994
    18  H    0.252022  -0.002987
    19  H    0.152918   0.001664
    20  H    0.130247  -0.003836
    21  H    0.203497  -0.000634
    22  H    0.238509  -0.001200
 Sum of Mulliken charges =  -1.00000   1.00000

 Dipole moment (field-independent basis, Debye):
    X=             -3.5502    Y=              2.5339    Z=             -0.8374  Tot=              4.4414
 Quadrupole moment (field-independent basis, Debye-Ang):
   XX=            -95.7681   YY=           -100.5803   ZZ=            -89.4584
   XY=             -2.3134   XZ=             -5.0381   YZ=             -1.2909

 Summary of Natural Population Analysis:

                                       Natural Population
                Natural  -----------------------------------------------
    Atom  No    Charge         Core      Valence    Rydberg      Total
 -----------------------------------------------------------------------
      C    1   -0.08866      0.99960     2.07911    0.00996     3.08866
      C    2   -0.14606      0.99957     2.13761    0.00888     3.14606
      C    3    0.03022      0.99960     1.95516    0.01501     2.96978
      N    4   -0.21790      0.99968     2.70728    0.01094     3.71790
      C    5    0.10180      0.99940     1.88256    0.01625     2.89820
      C    6   -0.10983      0.99945     2.10097    0.00942     3.10983
      C    7    0.11451      0.99959     1.86824    0.01766     2.88549
      N    8   -0.05218      0.99969     2.53655    0.01594     3.55218
      N    9   -0.07136      0.99967     2.55434    0.01735     3.57136
      C   10    0.14734      0.99963     1.83010    0.02293     2.85266
      N   11   -0.05914      0.99968     2.54178    0.01767     3.55914
      N   12   -0.03187      0.99970     2.51677    0.01540     3.53187
      C   13   -0.10566      0.99960     2.09444    0.01162     3.10566
      N   14   -0.42146      0.99977     2.91111    0.01057     3.92146
      H   15    0.09427      0.00000     0.40464    0.00109     0.40573
      H   16    0.09557      0.00000     0.40322    0.00121     0.40443
      H   17    0.08299      0.00000     0.41569    0.00132     0.41701
      H   18    0.11847      0.00000     0.37951    0.00202     0.38153
      H   19    0.09520      0.00000     0.40298    0.00182     0.40480
      H   20    0.07792      0.00000     0.42047    0.00161     0.42208
      H   21    0.16300      0.00000     0.33525    0.00175     0.33700
      H   22    0.18292      0.00000     0.31440    0.00268     0.31708
 =======================================================================
   * Total *    0.00008     13.99463    34.79217    0.21312    48.99992

 Normal termination of Gaussian 16 at Thu Dec 10 11:07:16 2020.
