 Gaussian 16, Revision A.03,

 -----------------------------------------------------------
 # opt freq B3LYP/6-31G(d) empiricaldispersion=gd3bj scf=xqc
 -----------------------------------------------------------

 ------------------------------
 CID_19865015_JID_3045_neutraal
 ------------------------------
 Symbolic Z-matrix:
 Charge =  0 Multiplicity = 1

 SCF Done:  E(RB3LYP) =  -598.982423697     A.U. after   14 cycles
 SCF Done:  E(RB3LYP) =  -598.986111681     A.U. after   12 cycles
 SCF Done:  E(RB3LYP) =  -598.986418852     A.U. after   12 cycles
 SCF Done:  E(RB3LYP) =  -598.986747106     A.U. after   12 cycles
 SCF Done:  E(RB3LYP) =  -598.986886496     A.U. after   11 cycles
 SCF Done:  E(RB3LYP) =  -598.986905800     A.U. after   10 cycles
 SCF Done:  E(RB3LYP) =  -598.986916913     A.U. after    9 cycles
 SCF Done:  E(RB3LYP) =  -598.986921760     A.U. after    9 cycles
 SCF Done:  E(RB3LYP) =  -598.986925123     A.U. after    8 cycles
 SCF Done:  E(RB3LYP) =  -598.986927800     A.U. after    9 cycles
 SCF Done:  E(RB3LYP) =  -598.986931639     A.U. after    7 cycles
 SCF Done:  E(RB3LYP) =  -598.986931740     A.U. after    7 cycles
 SCF Done:  E(RB3LYP) =  -598.986931848     A.U. after    7 cycles
 SCF Done:  E(RB3LYP) =  -598.986931947     A.U. after    7 cycles
 SCF Done:  E(RB3LYP) =  -598.986931992     A.U. after    7 cycles
 Optimization completed.
    -- Stationary point found.
 Normal termination of Gaussian 16 at Wed Dec  9 22:28:41 2020.

 --------------------------------------------------------------------
 #N Geom=AllCheck Guess=TCheck SCRF=Check GenChk RB3LYP/6-31G(d) Freq
 --------------------------------------------------------------------

 Structure from the checkpoint file:  "JID_3045.chk"
 ------------------------------
 CID_19865015_JID_3045_neutraal
 ------------------------------
 Charge =  0 Multiplicity = 1

 SCF Done:  E(RB3LYP) =  -598.986931992     A.U. after    1 cycles

  Exact polarizability: 133.158   1.742 119.009   3.826  -0.774 102.476
 Approx polarizability: 174.379   7.798 162.895   8.921   0.870 151.181

                      1                      2                      3
                      A                      A                      A
 Frequencies --     28.3922                45.2747                56.7178
 Red. masses --      4.2201                 2.5288                 2.3671
 Frc consts  --      0.0020                 0.0031                 0.0045
 IR Inten    --      0.7290                 1.7183                 0.0084

                      4                      5                      6
                      A                      A                      A
 Frequencies --     64.4414                79.8357               116.3898
 Red. masses --      3.0613                 1.4683                 3.3862
 Frc consts  --      0.0075                 0.0055                 0.0270
 IR Inten    --      0.5386                 0.1172                 1.1952

                      7                      8                      9
                      A                      A                      A
 Frequencies --    165.7206               178.6785               205.3586
 Red. masses --      2.9911                 2.3835                 3.1090
 Frc consts  --      0.0484                 0.0448                 0.0772
 IR Inten    --      1.0993                 0.2469                 5.0174

                     10                     11                     12
                      A                      A                      A
 Frequencies --    232.3120               253.8033               267.3090
 Red. masses --      1.1015                 1.3082                 1.2052
 Frc consts  --      0.0350                 0.0496                 0.0507
 IR Inten    --      0.0566                 0.0480                 0.8002

                     13                     14                     15
                      A                      A                      A
 Frequencies --    297.7193               320.9849               329.6567
 Red. masses --      2.4811                 2.0572                 2.2626
 Frc consts  --      0.1296                 0.1249                 0.1449
 IR Inten    --      4.0534                 1.4376                19.0840

                     16                     17                     18
                      A                      A                      A
 Frequencies --    354.3375               375.9428               396.1775
 Red. masses --      1.9553                 2.0928                 2.6576
 Frc consts  --      0.1446                 0.1743                 0.2458
 IR Inten    --     36.6310                 0.6516                 0.2322

                     19                     20                     21
                      A                      A                      A
 Frequencies --    405.8964               421.5281               443.9586
 Red. masses --      1.6816                 1.8837                 2.5204
 Frc consts  --      0.1632                 0.1972                 0.2927
 IR Inten    --     65.7271                 4.6080                 2.1755

                     22                     23                     24
                      A                      A                      A
 Frequencies --    471.6165               512.2371               544.6690
 Red. masses --      2.9725                 2.7417                 1.5816
 Frc consts  --      0.3895                 0.4238                 0.2764
 IR Inten    --     10.2776                 4.9374                13.6403

                     25                     26                     27
                      A                      A                      A
 Frequencies --    556.3733               655.3920               661.5305
 Red. masses --      2.8153                 1.6462                 2.7957
 Frc consts  --      0.5135                 0.4166                 0.7208
 IR Inten    --     15.5976                70.0498                14.2195

                     28                     29                     30
                      A                      A                      A
 Frequencies --    746.8219               782.7248               826.5764
 Red. masses --      2.0080                 3.5036                 2.8279
 Frc consts  --      0.6598                 1.2647                 1.1384
 IR Inten    --     20.3130                 1.7676                 1.6952

                     31                     32                     33
                      A                      A                      A
 Frequencies --    843.4264               885.5669               929.9497
 Red. masses --      1.9036                 2.3692                 1.7619
 Frc consts  --      0.7978                 1.0947                 0.8978
 IR Inten    --      3.1943                 1.4426                 5.9227

                     34                     35                     36
                      A                      A                      A
 Frequencies --    941.8198               958.8150               976.9079
 Red. masses --      1.2488                 1.8164                 1.5281
 Frc consts  --      0.6526                 0.9839                 0.8592
 IR Inten    --      0.3242                23.4526                 0.6415

                     37                     38                     39
                      A                      A                      A
 Frequencies --    991.3154               997.7026              1012.5673
 Red. masses --      1.6691                 1.9177                 1.7872
 Frc consts  --      0.9664                 1.1247                 1.0796
 IR Inten    --      2.7936                 4.4662                11.2178

                     40                     41                     42
                      A                      A                      A
 Frequencies --   1041.9553              1067.5234              1094.5541
 Red. masses --      1.6213                 1.7385                 1.7260
 Frc consts  --      1.0371                 1.1673                 1.2183
 IR Inten    --     24.6805                 4.9671                 7.8918

                     43                     44                     45
                      A                      A                      A
 Frequencies --   1101.8835              1132.0280              1154.5631
 Red. masses --      1.8905                 1.9243                 1.6754
 Frc consts  --      1.3524                 1.4529                 1.3159
 IR Inten    --      8.6466                32.4456                23.5060

                     46                     47                     48
                      A                      A                      A
 Frequencies --   1183.7045              1205.5400              1209.1975
 Red. masses --      2.4183                 2.1180                 2.0291
 Frc consts  --      1.9964                 1.8136                 1.7480
 IR Inten    --      8.9938                66.3911                28.3886

                     49                     50                     51
                      A                      A                      A
 Frequencies --   1260.6742              1281.9064              1331.6300
 Red. masses --      1.3615                 1.6028                 1.4318
 Frc consts  --      1.2749                 1.5518                 1.4959
 IR Inten    --     10.5798                16.6974                62.5204

                     52                     53                     54
                      A                      A                      A
 Frequencies --   1355.4185              1363.3696              1380.6814
 Red. masses --      1.7358                 1.3629                 1.4541
 Frc consts  --      1.8789                 1.4926                 1.6331
 IR Inten    --     61.9673                44.1100                31.2336

                     55                     56                     57
                      A                      A                      A
 Frequencies --   1389.6399              1409.4534              1416.9123
 Red. masses --      1.3478                 1.5142                 1.4287
 Frc consts  --      1.5335                 1.7723                 1.6899
 IR Inten    --     14.2989                19.7717                 5.7042

                     58                     59                     60
                      A                      A                      A
 Frequencies --   1427.2886              1430.2032              1435.3644
 Red. masses --      1.4261                 1.3242                 1.5117
 Frc consts  --      1.7117                 1.5958                 1.8350
 IR Inten    --     12.2592                 6.1344                76.0467

                     61                     62                     63
                      A                      A                      A
 Frequencies --   1438.1003              1449.9919              1478.2293
 Red. masses --      1.2791                 1.2474                 1.5159
 Frc consts  --      1.5586                 1.5452                 1.9516
 IR Inten    --     14.0459                 5.9598                70.1486

                     64                     65                     66
                      A                      A                      A
 Frequencies --   1490.2661              1504.8174              1509.2582
 Red. masses --      1.1116                 1.0793                 1.0785
 Frc consts  --      1.4546                 1.4400                 1.4475
 IR Inten    --     12.3326                 1.3202                 2.5181

                     67                     68                     69
                      A                      A                      A
 Frequencies --   1515.1149              1517.9235              1522.3448
 Red. masses --      1.0558                 1.0611                 1.0604
 Frc consts  --      1.4280                 1.4405                 1.4479
 IR Inten    --      2.1000                 6.0892                 6.4998

                     70                     71                     72
                      A                      A                      A
 Frequencies --   1526.1921              1529.6334              1534.8263
 Red. masses --      1.0569                 1.0751                 1.0562
 Frc consts  --      1.4504                 1.4820                 1.4660
 IR Inten    --      3.8112                 0.5225                 8.9658

                     73                     74                     75
                      A                      A                      A
 Frequencies --   1536.9975              1546.2083              1788.7962
 Red. masses --      1.0635                 1.0600                 7.6810
 Frc consts  --      1.4802                 1.4930                14.4808
 IR Inten    --      6.0029                 1.4637               358.6598

                     76                     77                     78
                      A                      A                      A
 Frequencies --   3019.0969              3034.2691              3038.2827
 Red. masses --      1.0689                 1.0364                 1.0415
 Frc consts  --      5.7404                 5.6217                 5.6647
 IR Inten    --     21.5412                31.9006                19.1429

                     79                     80                     81
                      A                      A                      A
 Frequencies --   3045.4034              3053.7396              3055.4316
 Red. masses --      1.0616                 1.0748                 1.0448
 Frc consts  --      5.8010                 5.9051                 5.7468
 IR Inten    --     33.7389                28.8287                 8.0519

                     82                     83                     84
                      A                      A                      A
 Frequencies --   3064.8260              3070.5578              3083.6333
 Red. masses --      1.0737                 1.0903                 1.0386
 Frc consts  --      5.9423                 6.0564                 5.8187
 IR Inten    --     29.6474                19.0979                 1.5925

                     85                     86                     87
                      A                      A                      A
 Frequencies --   3096.0793              3097.8409              3106.0360
 Red. masses --      1.0985                 1.0972                 1.0993
 Frc consts  --      6.2038                 6.2038                 6.2486
 IR Inten    --      4.3196                21.6097                79.5521

                     88                     89                     90
                      A                      A                      A
 Frequencies --   3109.7943              3111.5883              3117.4348
 Red. masses --      1.1016                 1.1012                 1.0972
 Frc consts  --      6.2771                 6.2820                 6.2825
 IR Inten    --     35.5772                68.3484                25.1787

                     91                     92                     93
                      A                      A                      A
 Frequencies --   3120.4030              3152.9814              3161.4990
 Red. masses --      1.1015                 1.0959                 1.0996
 Frc consts  --      6.3189                 6.4191                 6.4755
 IR Inten    --     33.0270                11.0984                15.8807

                     94                     95                     96
                      A                      A                      A
 Frequencies --   3183.3936              3579.3753              3717.5860
 Red. masses --      1.1050                 1.0756                 1.0655
 Frc consts  --      6.5976                 8.1194                 8.6761
 IR Inten    --     13.3243                14.0016                12.5112

 - Thermochemistry -
 -------------------
 Temperature   298.150 Kelvin.  Pressure   1.00000 Atm.
 Atom     1 has atomic number  6 and mass  12.00000

 Molecular mass:   187.15723 amu.
 Principal axes and moments of inertia in atomic units:
                           1         2         3
     Eigenvalues --  1571.037264127.625814723.94410
           X            0.99974  -0.02246  -0.00502
           Y            0.02240   0.99967  -0.01225
           Z            0.00529   0.01213   0.99991
 This molecule is an asymmetric top.
 Rotational symmetry number  1.
 Warning -- assumption of classical behavior for rotation
           may cause significant error
 Rotational temperatures (Kelvin)      0.05513     0.02098     0.01834
 Rotational constants (GHZ):           1.14876     0.43723     0.38204
 Zero-point vibrational energy     806988.2 (Joules/Mol)
                                  192.87481 (Kcal/Mol)
 Warning -- explicit consideration of  25 degrees of freedom as
           vibrations may cause significant error
 Vibrational temperatures:     40.85    65.14    81.60    92.72   114.87
          (Kelvin)            167.46   238.43   257.08   295.47   334.25
                              365.17   384.60   428.35   461.83   474.30
                              509.81   540.90   570.01   583.99   606.48
                              638.76   678.55   736.99   783.66   800.50
                              942.96   951.79  1074.51  1126.17  1189.26
                             1213.50  1274.13  1337.99  1355.07  1379.52
                             1405.55  1426.28  1435.47  1456.86  1499.14
                             1535.93  1574.82  1585.36  1628.74  1661.16
                             1703.09  1734.50  1739.77  1813.83  1844.38
                             1915.92  1950.14  1961.58  1986.49  1999.38
                             2027.89  2038.62  2053.55  2057.74  2065.17
                             2069.11  2086.21  2126.84  2144.16  2165.10
                             2171.49  2179.91  2183.95  2190.31  2195.85
                             2200.80  2208.27  2211.40  2224.65  2573.68
                             4343.81  4365.64  4371.41  4381.66  4393.65
                             4396.08  4409.60  4417.85  4436.66  4454.57
                             4457.10  4468.89  4474.30  4476.88  4485.29
                             4489.56  4536.44  4548.69  4580.19  5149.92
                             5348.78

 Zero-point correction=                           0.307366 (Hartree/Particle)
 Thermal correction to Energy=                    0.323449
 Thermal correction to Enthalpy=                  0.324394
 Thermal correction to Gibbs Free Energy=         0.263584
 Sum of electronic and zero-point Energies=           -598.679566
 Sum of electronic and thermal Energies=              -598.663483
 Sum of electronic and thermal Enthalpies=            -598.662538
 Sum of electronic and thermal Free Energies=         -598.723348

                     E (Thermal)             CV                S
                      KCal/Mol        Cal/Mol-Kelvin    Cal/Mol-Kelvin
 Total                  202.968             59.797            127.984
 Electronic               0.000              0.000              0.000
 Translational            0.889              2.981             41.586
 Rotational               0.889              2.981             31.794
 Vibrational            201.190             53.835             54.604
 Vibration     1          0.593              1.984              5.939
 Vibration     2          0.595              1.979              5.014
 Vibration     3          0.596              1.975              4.568
 Vibration     4          0.597              1.971              4.316
 Vibration     5          0.600              1.963              3.895
 Vibration     6          0.608              1.936              3.159
 Vibration     7          0.624              1.885              2.483
 Vibration     8          0.629              1.869              2.342
 Vibration     9          0.640              1.832              2.085
 Vibration    10          0.653              1.792              1.861
 Vibration    11          0.665              1.756              1.704
 Vibration    12          0.672              1.733              1.614
 Vibration    13          0.691              1.678              1.430
 Vibration    14          0.706              1.633              1.305
 Vibration    15          0.712              1.616              1.262
 Vibration    16          0.730              1.566              1.147
 Vibration    17          0.747              1.521              1.055
 Vibration    18          0.763              1.478              0.977
 Vibration    19          0.771              1.457              0.941
 Vibration    20          0.784              1.423              0.887
 Vibration    21          0.803              1.374              0.814
 Vibration    22          0.829              1.313              0.733
 Vibration    23          0.867              1.223              0.628
 Vibration    24          0.900              1.151              0.555
 Vibration    25          0.912              1.126              0.531

 Optimization completed.
    -- Stationary point found.
 Normal termination of Gaussian 16 at Wed Dec  9 22:37:47 2020.

 ----------------------------------------------------------------------
 # B3LYP/6-311++G(d,p) empiricaldispersion=gd3bj scf=xqc pop=npa geom=c
 heck
 ----------------------------------------------------------------------

 --------------------------------------
 CID_19865015_JID_3045_Energie_neutraal
 --------------------------------------
 Structure from the checkpoint file:  "JID_3045.chk"
 Charge =  0 Multiplicity = 1

 SCF Done:  E(RB3LYP) =  -599.173407378     A.U. after   14 cycles
 Normal termination of Gaussian 16 at Wed Dec  9 22:41:35 2020.

 ----------------------------------------------------------------------
 # B3LYP/6-311++G(d,p) empiricaldispersion=gd3bj scf=xqc pop=npa geom=c
 heck
 ----------------------------------------------------------------------

 ------------------------------------
 CID_19865015_JID_3045_Energie_kation
 ------------------------------------
 Structure from the checkpoint file:  "JID_3045.chk"
 Charge =  1 Multiplicity = 2

 SCF Done:  E(UB3LYP) =  -598.839037797     A.U. after   33 cycles
 SCF Done:  E(UB3LYP) =  -598.839037839     a.u. after    2 cycles
 Normal termination of Gaussian 16 at Wed Dec  9 23:02:20 2020.
 Gaussian 16:  ES64L-G16RevA.03 25-Dec-2016

 ----------------------------------------------------------------------
 # B3LYP/6-311++G(d,p) empiricaldispersion=gd3bj scf=xqc pop=npa geom=c
 heck
 ----------------------------------------------------------------------

 -----------------------------------
 CID_19865015_JID_3045_Energie_anion
 -----------------------------------
 Structure from the checkpoint file:  "JID_3045.chk"
 Charge = -1 Multiplicity = 2

                         Standard orientation:
 ---------------------------------------------------------------------
 Center     Atomic      Atomic             Coordinates (Angstroms)
 Number     Number       Type             X           Y           Z
 ---------------------------------------------------------------------
      1          6           0        3.027634   -1.211467   -1.214309
      2          6           0        2.520601   -0.621376    0.107451
      3          6           0        3.510080   -0.908954    1.243110
      4          6           0        2.256664    0.891457    0.012927
      5          6           0        1.255483    1.329098   -1.067627
      6          6           0       -0.133150    0.670156   -1.029478
      7          6           0       -1.013811    0.929123    0.209150
      8          6           0       -1.196650    2.428004    0.476533
      9          7           0       -2.360564    0.366202    0.032108
     10          6           0       -2.765179   -0.948895   -0.119584
     11          8           0       -3.885948   -1.187907   -0.549566
     12          6           0       -1.839655   -2.058248    0.346085
     13          8           0       -0.384695    0.308740    1.323285
     14          1           0        3.953886   -0.715193   -1.532958
     15          1           0        2.297251   -1.101626   -2.023595
     16          1           0        3.243732   -2.280992   -1.108794
     17          1           0        1.573361   -1.110614    0.366921
     18          1           0        4.481950   -0.437922    1.045172
     19          1           0        3.137900   -0.520083    2.198015
     20          1           0        3.680158   -1.985687    1.360130
     21          1           0        1.909426    1.239282    0.991307
     22          1           0        3.211520    1.401526   -0.183945
     23          1           0        1.144304    2.420011   -1.024852
     24          1           0        1.678881    1.120842   -2.058215
     25          1           0       -0.709167    1.022122   -1.893594
     26          1           0       -0.031842   -0.411780   -1.153165
     27          1           0       -1.604092    2.946184   -0.398817
     28          1           0       -1.884616    2.577986    1.316427
     29          1           0       -0.235781    2.879825    0.729716
     30          1           0       -3.059248    1.002937   -0.334204
     31          1           0       -0.831032   -1.975504   -0.062529
     32          1           0       -1.739770   -2.033746    1.435506
     33          1           0       -2.288954   -3.005425    0.045037
     34          1           0       -0.970867    0.444391    2.086377
 ---------------------------------------------------------------------

 SCF Done:  E(UB3LYP) =  -599.164288215     A.U. after   29 cycles

 The electronic state is 2-A.
 Alpha  occ. eigenvalues --  -19.02453 -18.98767 -14.22902 -10.17475 -10.17093
 Alpha  occ. eigenvalues --  -10.07099 -10.07071 -10.06983 -10.06750 -10.06386
 Alpha  occ. eigenvalues --  -10.06266 -10.06093 -10.05876  -0.94708  -0.93226
 Alpha  occ. eigenvalues --   -0.80833  -0.71877  -0.68403  -0.64743  -0.62798
 Alpha  occ. eigenvalues --   -0.59201  -0.58795  -0.53482  -0.49514  -0.47743
 Alpha  occ. eigenvalues --   -0.44634  -0.43012  -0.38894  -0.37374  -0.36956
 Alpha  occ. eigenvalues --   -0.35632  -0.34176  -0.33808  -0.33101  -0.32307
 Alpha  occ. eigenvalues --   -0.31006  -0.30582  -0.29564  -0.29277  -0.28614
 Alpha  occ. eigenvalues --   -0.28124  -0.27540  -0.26399  -0.25669  -0.25128
 Alpha  occ. eigenvalues --   -0.23916  -0.22516  -0.21657  -0.21101  -0.19483
 Alpha  occ. eigenvalues --   -0.16341  -0.15169   0.04195
 Alpha virt. eigenvalues --    0.06590   0.07015   0.07814   0.08654   0.09049
 Alpha virt. eigenvalues --    0.09475   0.09853   0.10252   0.11167   0.11410
 Alpha virt. eigenvalues --    0.11659   0.12014   0.12396   0.12985   0.13233

  Beta  occ. eigenvalues --  -19.02402 -18.98752 -14.22890 -10.17465 -10.17090
  Beta  occ. eigenvalues --  -10.07092 -10.07051 -10.06958 -10.06733 -10.06326
  Beta  occ. eigenvalues --  -10.06246 -10.06078 -10.05864  -0.94641  -0.93168
  Beta  occ. eigenvalues --   -0.80796  -0.71853  -0.68363  -0.64699  -0.62746
  Beta  occ. eigenvalues --   -0.59145  -0.58752  -0.53418  -0.49467  -0.47680
  Beta  occ. eigenvalues --   -0.44583  -0.42950  -0.38841  -0.37344  -0.36924
  Beta  occ. eigenvalues --   -0.35578  -0.34127  -0.33771  -0.33068  -0.32271
  Beta  occ. eigenvalues --   -0.30975  -0.30548  -0.29525  -0.29255  -0.28583
  Beta  occ. eigenvalues --   -0.28075  -0.27507  -0.26349  -0.25635  -0.25093
  Beta  occ. eigenvalues --   -0.23879  -0.22485  -0.21621  -0.21075  -0.19425
  Beta  occ. eigenvalues --   -0.16310  -0.15144
  Beta virt. eigenvalues --    0.06336   0.07443   0.07760   0.08059   0.09300
  Beta virt. eigenvalues --    0.09530   0.09761   0.10148   0.10524   0.11455
  Beta virt. eigenvalues --    0.11711   0.12014   0.12346   0.12505   0.13223

 Mulliken charges and spin densities:
               1          2
     1  C   -0.020498  -0.674284
     2  C   -0.560759   0.933040
     3  C   -0.032804  -0.562671
     4  C   -0.265895  -0.068885
     5  C    0.384276  -0.715372
     6  C    0.111595   0.259447
     7  C   -0.989233  -0.270811
     8  C    1.939728  -2.413130
     9  N   -0.215211   0.228140
    10  C   -0.217765   0.343226
    11  O   -0.341481   0.016952
    12  C    0.328319  -0.645158
    13  O   -0.078212   0.008619
    14  H   -0.015346   0.158425
    15  H   -0.060299   0.193183
    16  H   -0.035254   0.162458
    17  H    0.526033  -0.355915
    18  H    0.040922   0.074675
    19  H   -0.098103   0.242573
    20  H   -0.057030   0.187261
    21  H    0.051071   0.120470
    22  H    0.120939   0.014269
    23  H   -0.151260   0.328966
    24  H    0.015157   0.148444
    25  H   -0.347066   0.559385
    26  H    0.350459  -0.218183
    27  H   -0.351605   0.528025
    28  H   -0.581619   0.744166
    29  H   -0.145198   0.303062
    30  H    0.073428   0.235109
    31  H   -0.123537   0.249691
    32  H   -0.116645   0.282706
    33  H    0.026570   0.147560
    34  H   -0.163674   0.454555
 Sum of Mulliken charges =  -1.00000   1.00000

 Dipole moment (field-independent basis, Debye):
    X=              4.0391    Y=             -1.9461    Z=             -1.3696  Tot=              4.6880
 Quadrupole moment (field-independent basis, Debye-Ang):
   XX=           -149.8306   YY=           -126.0442   ZZ=           -123.9557
   XY=              2.6484   XZ=             -0.2808   YZ=             -1.2227

 Summary of Natural Population Analysis:

                                       Natural Population
                Natural  -----------------------------------------------
    Atom  No    Charge         Core      Valence    Rydberg      Total
 -----------------------------------------------------------------------
      C    1   -0.28491      0.99965     2.28042    0.00484     3.28491
      C    2   -0.12178      0.99961     2.11379    0.00838     3.12178
      C    3   -0.27974      0.99965     2.27529    0.00480     3.27974
      C    4   -0.18731      0.99961     2.17973    0.00798     3.18731
      C    5   -0.19052      0.99962     2.18147    0.00942     3.19052
      C    6   -0.19939      0.99956     2.18979    0.01005     3.19939
      C    7    0.22165      0.99957     1.76052    0.01826     2.77835
      C    8   -0.30025      0.99961     2.29326    0.00738     3.30025
      N    9   -0.34152      0.99965     2.83005    0.01182     3.84152
      C   10    0.35077      0.99970     1.62857    0.02096     2.64923
      O   11   -0.32313      0.99988     3.31697    0.00628     4.32313
      C   12   -0.32983      0.99961     2.32578    0.00443     3.32983
      O   13   -0.37695      0.99988     3.36929    0.00777     4.37695
      H   14    0.09380      0.00000     0.40519    0.00101     0.40620
      H   15    0.09891      0.00000     0.40014    0.00096     0.40109
      H   16    0.09699      0.00000     0.40204    0.00096     0.40301
      H   17    0.10054      0.00000     0.39660    0.00286     0.39946
      H   18    0.09201      0.00000     0.40696    0.00103     0.40799
      H   19    0.10171      0.00000     0.39725    0.00104     0.39829
      H   20    0.09554      0.00000     0.40353    0.00094     0.40446
      H   21    0.10596      0.00000     0.39232    0.00172     0.39404
      H   22    0.09123      0.00000     0.40764    0.00113     0.40877
      H   23    0.09897      0.00000     0.39989    0.00114     0.40103
      H   24    0.09715      0.00000     0.40170    0.00116     0.40285
      H   25    0.10546      0.00000     0.39323    0.00131     0.39454
      H   26    0.09959      0.00000     0.39873    0.00168     0.40041
      H   27    0.10459      0.00000     0.39323    0.00218     0.39541
      H   28    0.10681      0.00000     0.39077    0.00242     0.39319
      H   29    0.10833      0.00000     0.39022    0.00144     0.39167
      H   30    0.19736      0.00000     0.30002    0.00262     0.30264
      H   31    0.10836      0.00000     0.39020    0.00144     0.39164
      H   32    0.11581      0.00000     0.38287    0.00132     0.38419
      H   33    0.10673      0.00000     0.39228    0.00099     0.39327
      H   34    0.23705      0.00000     0.25411    0.00884     0.26295
 =======================================================================
   * Total *    0.00000     12.99559    38.84385    0.16056    52.00000

 Normal termination of Gaussian 16 at Wed Dec  9 23:12:45 2020.
