 Gaussian 16, Revision A.03,

 -----------------------------------------------------------
 # opt freq B3LYP/6-31G(d) empiricaldispersion=gd3bj scf=xqc
 -----------------------------------------------------------

 ------------------------------
 CID_16413637_JID_4876_neutraal
 ------------------------------
 Symbolic Z-matrix:
 Charge =  0 Multiplicity = 1

 SCF Done:  E(RB3LYP) =  -647.092921852     A.U. after   15 cycles
 SCF Done:  E(RB3LYP) =  -647.098656313     A.U. after   12 cycles
 SCF Done:  E(RB3LYP) =  -647.099127438     A.U. after   12 cycles
 SCF Done:  E(RB3LYP) =  -647.099139609     A.U. after   10 cycles
 SCF Done:  E(RB3LYP) =  -647.099154959     A.U. after   10 cycles
 SCF Done:  E(RB3LYP) =  -647.099168769     A.U. after    9 cycles
 SCF Done:  E(RB3LYP) =  -647.099169181     A.U. after    8 cycles
 Optimization completed.
    -- Stationary point found.
 Normal termination of Gaussian 16 at Thu Dec 10 10:42:03 2020.

 --------------------------------------------------------------------
 #N Geom=AllCheck Guess=TCheck SCRF=Check GenChk RB3LYP/6-31G(d) Freq
 --------------------------------------------------------------------

 Structure from the checkpoint file:  "JID_4876.chk"
 ------------------------------
 CID_16413637_JID_4876_neutraal
 ------------------------------
 Charge =  0 Multiplicity = 1

 SCF Done:  E(RB3LYP) =  -647.099169181     A.U. after    1 cycles

  Exact polarizability: 181.807   9.605 139.920   0.009  -0.013  54.579
 Approx polarizability: 270.559  25.989 253.195   0.029  -0.020  83.733

                      1                      2                      3
                      A                      A                      A
 Frequencies --     53.0887                77.9989               107.2573
 Red. masses --      4.1928                 4.2346                 1.0575
 Frc consts  --      0.0070                 0.0152                 0.0072
 IR Inten    --      0.7801                 0.0004                 0.3591

                      4                      5                      6
                      A                      A                      A
 Frequencies --    129.5157               131.2223               152.9483
 Red. masses --      1.3292                 4.2235                 2.5668
 Frc consts  --      0.0131                 0.0428                 0.0354
 IR Inten    --      0.3031                 0.1672                 0.3536

                      7                      8                      9
                      A                      A                      A
 Frequencies --    205.0974               243.6939               248.9900
 Red. masses --      3.7732                 3.4190                 3.8543
 Frc consts  --      0.0935                 0.1196                 0.1408
 IR Inten    --      2.7826                 0.0560                 7.0788

                     10                     11                     12
                      A                      A                      A
 Frequencies --    296.2023               311.4405               372.1342
 Red. masses --      5.7326                 4.0521                 9.6853
 Frc consts  --      0.2963                 0.2316                 0.7902
 IR Inten    --      1.9010                 8.4688                 8.0233

                     13                     14                     15
                      A                      A                      A
 Frequencies --    398.7965               516.7829               520.1958
 Red. masses --      4.5547                 3.6397                 5.7319
 Frc consts  --      0.4268                 0.5727                 0.9139
 IR Inten    --     10.5135                 1.1812                 1.9683

                     16                     17                     18
                      A                      A                      A
 Frequencies --    572.7311               579.2734               635.8192
 Red. masses --      4.6782                 4.0502                 4.2758
 Frc consts  --      0.9041                 0.8008                 1.0184
 IR Inten    --      3.1695                 0.0321                 0.0576

                     19                     20                     21
                      A                      A                      A
 Frequencies --    647.1771               718.5533               743.8305
 Red. masses --      6.7656                 5.9335                 8.9098
 Frc consts  --      1.6696                 1.8050                 2.9045
 IR Inten    --      1.2602                 2.7349                21.7976

                     22                     23                     24
                      A                      A                      A
 Frequencies --    768.4419               784.8228               809.4930
 Red. masses --      2.4513                 1.9712                 5.6907
 Frc consts  --      0.8528                 0.7154                 2.1971
 IR Inten    --     29.3455                13.9627                 6.7191

                     25                     26                     27
                      A                      A                      A
 Frequencies --    889.6747               901.3898               916.9385
 Red. masses --      4.7937                 1.3094                 1.3964
 Frc consts  --      2.2356                 0.6268                 0.6917
 IR Inten    --      0.3017                 0.3395                 6.6469

                     28                     29                     30
                      A                      A                      A
 Frequencies --    951.9429               953.9920              1001.4329
 Red. masses --      1.2577                 4.4954                 3.0763
 Frc consts  --      0.6715                 2.4105                 1.8177
 IR Inten    --      0.9635                13.9274                 1.4301

                     31                     32                     33
                      A                      A                      A
 Frequencies --   1041.9770              1080.1246              1110.5198
 Red. masses --      2.7878                 1.4964                 1.8048
 Frc consts  --      1.7833                 1.0286                 1.3114
 IR Inten    --     20.8237                 3.2760                25.9167

                     34                     35                     36
                      A                      A                      A
 Frequencies --   1136.0661              1186.0241              1191.5251
 Red. masses --      4.3888                 1.2700                 1.2897
 Frc consts  --      3.3374                 1.0526                 1.0788
 IR Inten    --    203.9787                 0.9410                 4.8634

                     37                     38                     39
                      A                      A                      A
 Frequencies --   1201.8723              1219.1494              1230.1972
 Red. masses --      1.6574                 1.5508                 5.8536
 Frc consts  --      1.4106                 1.3580                 5.2194
 IR Inten    --     10.4683                 1.0362               366.0139

                     40                     41                     42
                      A                      A                      A
 Frequencies --   1291.6722              1333.6018              1365.7630
 Red. masses --      2.1144                 4.0621                 3.5158
 Frc consts  --      2.0785                 4.2565                 3.8639
 IR Inten    --     43.1893                15.6419               171.3782

                     43                     44                     45
                      A                      A                      A
 Frequencies --   1386.2567              1391.9524              1446.2272
 Red. masses --      4.4345                 3.9279                 1.2869
 Frc consts  --      5.0209                 4.4839                 1.5859
 IR Inten    --     53.9665                 2.4806                 4.6886

                     46                     47                     48
                      A                      A                      A
 Frequencies --   1478.0495              1492.3719              1502.5523
 Red. masses --      1.7917                 1.3604                 1.0433
 Frc consts  --      2.3062                 1.7852                 1.3878
 IR Inten    --     20.5321                 7.6034                 6.2368

                     49                     50                     51
                      A                      A                      A
 Frequencies --   1510.7284              1514.8970              1526.0741
 Red. masses --      1.0482                 1.7306                 1.0673
 Frc consts  --      1.4095                 2.3400                 1.4645
 IR Inten    --      5.6909                 2.6930                19.8342

                     52                     53                     54
                      A                      A                      A
 Frequencies --   1538.2479              1568.2910              1612.2841
 Red. masses --      2.1340                 5.2097                 6.0732
 Frc consts  --      2.9750                 7.5494                 9.3015
 IR Inten    --     90.4376               168.8419                 1.5571

                     55                     56                     57
                      A                      A                      A
 Frequencies --   1687.1393              1792.6923              3058.4874
 Red. masses --      5.9152                11.7368                 1.0354
 Frc consts  --      9.9203                22.2234                 5.7067
 IR Inten    --      2.2735               399.8288                20.4854

                     58                     59                     60
                      A                      A                      A
 Frequencies --   3078.0305              3115.9129              3140.4593
 Red. masses --      1.0290                 1.1004                 1.1039
 Frc consts  --      5.7437                 6.2946                 6.4144
 IR Inten    --     40.6469                 9.3952                16.4624

                     61                     62                     63
                      A                      A                      A
 Frequencies --   3154.4697              3181.3771              3201.0538
 Red. masses --      1.1077                 1.1076                 1.0896
 Frc consts  --      6.4942                 6.6050                 6.5780
 IR Inten    --     19.4260                15.1793                10.3163

                     64                     65                     66
                      A                      A                      A
 Frequencies --   3227.5132              3268.6432              3299.4778
 Red. masses --      1.0927                 1.0967                 1.0939
 Frc consts  --      6.7062                 6.9035                 7.0166
 IR Inten    --      7.5348                 1.1068                 7.1006

 - Thermochemistry -
 -------------------
 Temperature   298.150 Kelvin.  Pressure   1.00000 Atm.
 Atom     1 has atomic number  6 and mass  12.00000

 Molecular mass:   190.07423 amu.
 Principal axes and moments of inertia in atomic units:
                           1         2         3
     Eigenvalues --  1169.307813824.047314970.87921
           X            0.99984  -0.01792  -0.00001
           Y            0.01792   0.99984  -0.00002
           Z            0.00001   0.00002   1.00000
 This molecule is an asymmetric top.
 Rotational symmetry number  1.
 Warning -- assumption of classical behavior for rotation
           may cause significant error
 Rotational temperatures (Kelvin)      0.07407     0.02265     0.01742
 Rotational constants (GHZ):           1.54343     0.47195     0.36306
 Zero-point vibrational energy     497661.8 (Joules/Mol)
                                  118.94403 (Kcal/Mol)
 Warning -- explicit consideration of  17 degrees of freedom as
           vibrations may cause significant error
 Vibrational temperatures:     76.38   112.22   154.32   186.34   188.80
          (Kelvin)            220.06   295.09   350.62   358.24   426.17
                              448.09   535.42   573.78   743.54   748.45
                              824.03   833.45   914.80   931.14  1033.84
                             1070.21  1105.62  1129.19  1164.68  1280.04
                             1296.90  1319.27  1369.63  1372.58  1440.84
                             1499.17  1554.06  1597.79  1634.55  1706.42
                             1714.34  1729.23  1754.08  1769.98  1858.43
                             1918.76  1965.03  1994.51  2002.71  2080.80
                             2126.58  2147.19  2161.84  2173.60  2179.60
                             2195.68  2213.20  2256.42  2319.72  2427.42
                             2579.28  4400.48  4428.60  4483.10  4518.42
                             4538.58  4577.29  4605.60  4643.67  4702.85
                             4747.21

 Zero-point correction=                           0.189549 (Hartree/Particle)
 Thermal correction to Energy=                    0.201779
 Thermal correction to Enthalpy=                  0.202723
 Thermal correction to Gibbs Free Energy=         0.150641
 Sum of electronic and zero-point Energies=           -646.909620
 Sum of electronic and thermal Energies=              -646.897390
 Sum of electronic and thermal Enthalpies=            -646.896446
 Sum of electronic and thermal Free Energies=         -646.948528

                     E (Thermal)             CV                S
                      KCal/Mol        Cal/Mol-Kelvin    Cal/Mol-Kelvin
 Total                  126.618             45.613            109.616
 Electronic               0.000              0.000              0.000
 Translational            0.889              2.981             41.632
 Rotational               0.889              2.981             31.475
 Vibrational            124.841             39.652             36.508
 Vibration     1          0.596              1.976              4.699
 Vibration     2          0.599              1.964              3.941
 Vibration     3          0.606              1.943              3.318
 Vibration     4          0.612              1.924              2.953
 Vibration     5          0.612              1.922              2.928
 Vibration     6          0.619              1.899              2.635
 Vibration     7          0.640              1.833              2.087
 Vibration     8          0.659              1.773              1.776
 Vibration     9          0.662              1.764              1.738
 Vibration    10          0.690              1.681              1.438
 Vibration    11          0.700              1.652              1.355
 Vibration    12          0.744              1.529              1.071
 Vibration    13          0.765              1.473              0.967
 Vibration    14          0.872              1.213              0.617
 Vibration    15          0.875              1.205              0.610
 Vibration    16          0.929              1.090              0.499
 Vibration    17          0.936              1.076              0.487

                           ! Non-Optimized Parameters !
 Normal termination of Gaussian 16 at Thu Dec 10 10:48:26 2020.

 ----------------------------------------------------------------------
 # B3LYP/6-311++G(d,p) empiricaldispersion=gd3bj scf=xqc pop=npa geom=c
 heck
 ----------------------------------------------------------------------

 --------------------------------------
 CID_16413637_JID_4876_Energie_neutraal
 --------------------------------------
 Structure from the checkpoint file:  "JID_4876.chk"
 Charge =  0 Multiplicity = 1

 SCF Done:  E(RB3LYP) =  -647.273557648     A.U. after   15 cycles
 Normal termination of Gaussian 16 at Thu Dec 10 10:51:18 2020.

 ----------------------------------------------------------------------
 # B3LYP/6-311++G(d,p) empiricaldispersion=gd3bj scf=xqc pop=npa geom=c
 heck
 ----------------------------------------------------------------------

 ------------------------------------
 CID_16413637_JID_4876_Energie_kation
 ------------------------------------
 Structure from the checkpoint file:  "JID_4876.chk"
 Charge =  1 Multiplicity = 2

 SCF Done:  E(UB3LYP) =  -646.979294301     A.U. after   22 cycles
 Normal termination of Gaussian 16 at Thu Dec 10 10:57:37 2020.
 Gaussian 16:  ES64L-G16RevA.03 25-Dec-2016

 ----------------------------------------------------------------------
 # B3LYP/6-311++G(d,p) empiricaldispersion=gd3bj scf=xqc pop=npa geom=c
 heck
 ----------------------------------------------------------------------

 -----------------------------------
 CID_16413637_JID_4876_Energie_anion
 -----------------------------------
 Structure from the checkpoint file:  "JID_4876.chk"
 Charge = -1 Multiplicity = 2

                         Standard orientation:
 ---------------------------------------------------------------------
 Center     Atomic      Atomic             Coordinates (Angstroms)
 Number     Number       Type             X           Y           Z
 ---------------------------------------------------------------------
      1          6           0        3.931104   -0.729975    0.000424
      2          6           0        2.680094    0.100848    0.000036
      3          6           0        2.673282    1.478910   -0.000360
      4          6           0        1.455331    2.205956   -0.000581
      5          6           0        0.251457    1.558360   -0.000413
      6          7           0        0.241495    0.185271    0.000030
      7          6           0        1.428522   -0.562006    0.000208
      8          7           0        1.178213   -1.880582    0.000240
      9          6           0       -0.165916   -1.987382    0.000569
     10          6           0       -0.799391   -0.746509   -0.000361
     11          6           0       -2.232153   -0.505842   -0.000394
     12          8           0       -3.066248   -1.391626   -0.001630
     13          8           0       -2.556789    0.817690    0.000999
     14          6           0       -3.966758    1.089793    0.000889
     15          1           0        3.963373   -1.382765    0.879608
     16          1           0        3.961162   -1.386923   -0.875695
     17          1           0        4.821944   -0.095732   -0.002082
     18          1           0        3.616215    2.017634   -0.000609
     19          1           0        1.463689    3.290072   -0.000993
     20          1           0       -0.712905    2.041955   -0.000531
     21          1           0       -0.669747   -2.944664    0.000711
     22          1           0       -4.438333    0.665568   -0.888956
     23          1           0       -4.438758    0.663952    0.889732
     24          1           0       -4.053729    2.176643    0.001867
 ---------------------------------------------------------------------

 SCF Done:  E(UB3LYP) =  -647.270764249     A.U. after   33 cycles
 SCF Done:  E(UB3LYP) =  -647.270764249     a.u. after    1 cycles

 The electronic state is 2-A.
 Alpha  occ. eigenvalues --  -19.02379 -18.94270 -14.21374 -14.14698 -10.13364
 Alpha  occ. eigenvalues --  -10.10891 -10.07348 -10.05547 -10.04954 -10.04753
 Alpha  occ. eigenvalues --  -10.03876 -10.03332 -10.03068 -10.01497  -0.95966
 Alpha  occ. eigenvalues --   -0.87352  -0.86466  -0.75534  -0.68871  -0.62580
 Alpha  occ. eigenvalues --   -0.61724  -0.58478  -0.55924  -0.48900  -0.48078
 Alpha  occ. eigenvalues --   -0.46141  -0.42766  -0.38954  -0.35798  -0.35636
 Alpha  occ. eigenvalues --   -0.34403  -0.33516  -0.31959  -0.31591  -0.29518
 Alpha  occ. eigenvalues --   -0.28825  -0.28344  -0.27119  -0.26331  -0.25950
 Alpha  occ. eigenvalues --   -0.23626  -0.22751  -0.21039  -0.19892  -0.17228
 Alpha  occ. eigenvalues --   -0.16363  -0.13604  -0.13029  -0.10146  -0.07098
 Alpha  occ. eigenvalues --    0.06151
 Alpha virt. eigenvalues --    0.08130   0.08932   0.09965   0.10655   0.11385
 Alpha virt. eigenvalues --    0.11643   0.12244   0.13032   0.13452   0.13475
 Alpha virt. eigenvalues --    0.14346   0.15926   0.16504   0.16781   0.17836

  Beta  occ. eigenvalues --  -19.02279 -18.93974 -14.20812 -14.14756 -10.13123
  Beta  occ. eigenvalues --  -10.10895 -10.07259 -10.05327 -10.04955 -10.04724
  Beta  occ. eigenvalues --  -10.03883 -10.03437 -10.02981 -10.01124  -0.95667
  Beta  occ. eigenvalues --   -0.86810  -0.85995  -0.75236  -0.68453  -0.62335
  Beta  occ. eigenvalues --   -0.61412  -0.58345  -0.55597  -0.48317  -0.48009
  Beta  occ. eigenvalues --   -0.45841  -0.42552  -0.38673  -0.35551  -0.35243
  Beta  occ. eigenvalues --   -0.34295  -0.33327  -0.31728  -0.30512  -0.29311
  Beta  occ. eigenvalues --   -0.28717  -0.27932  -0.27035  -0.26210  -0.24836
  Beta  occ. eigenvalues --   -0.23479  -0.22605  -0.20855  -0.19268  -0.16210
  Beta  occ. eigenvalues --   -0.14745  -0.13507  -0.12860  -0.09180  -0.05857
  Beta virt. eigenvalues --    0.08064   0.08852   0.09878   0.11326   0.11579
  Beta virt. eigenvalues --    0.11648   0.11838   0.12361   0.12956   0.13418
  Beta virt. eigenvalues --    0.13584   0.14253   0.16433   0.16540   0.16890

 Mulliken charges and spin densities:
               1          2
     1  C   -0.804442   0.024551
     2  C    0.366066  -0.000091
     3  C   -0.498547   0.344958
     4  C   -0.411690  -0.073945
     5  C   -0.108930   0.238157
     6  N    0.093447   0.142691
     7  C   -0.324260   0.031733
     8  N   -0.087356  -0.027776
     9  C   -0.118383   0.034130
    10  C    0.327973   0.076318
    11  C   -0.099016   0.130431
    12  O   -0.389516   0.093526
    13  O   -0.164324   0.007848
    14  C   -0.213353   0.000123
    15  H    0.147131   0.002790
    16  H    0.147260   0.002751
    17  H    0.109766  -0.000743
    18  H    0.099529  -0.027946
    19  H    0.119760   0.005651
    20  H    0.226143  -0.017451
    21  H    0.159617   0.000776
    22  H    0.157551   0.005039
    23  H    0.156218   0.006431
    24  H    0.109356   0.000046
 Sum of Mulliken charges =  -1.00000   1.00000

 Dipole moment (field-independent basis, Debye):
    X=             -0.9788    Y=              3.4596    Z=             -0.0029  Tot=              3.5954
 Quadrupole moment (field-independent basis, Debye-Ang):
   XX=           -113.7054   YY=           -100.6798   ZZ=            -90.5394
   XY=             -8.7400   XZ=              0.0397   YZ=             -0.0193

 Summary of Natural Population Analysis:

                                       Natural Population
                Natural  -----------------------------------------------
    Atom  No    Charge         Core      Valence    Rydberg      Total
 -----------------------------------------------------------------------
      C    1   -0.28743      0.99965     2.28292    0.00486     3.28743
      C    2   -0.02523      0.99948     2.01769    0.00807     3.02523
      C    3   -0.03804      0.99953     2.02830    0.01021     3.03804
      C    4   -0.15296      0.99958     2.14438    0.00900     3.15296
      C    5    0.05516      0.99957     1.93480    0.01047     2.94484
      N    6   -0.10923      0.99959     2.59923    0.01041     3.60923
      C    7    0.20152      0.99955     1.78472    0.01421     2.79848
      N    8   -0.28879      0.99970     2.77790    0.01119     3.78879
      C    9    0.00874      0.99957     1.97745    0.01425     2.99126
      C   10   -0.01158      0.99948     2.00127    0.01083     3.01158
      C   11    0.41170      0.99962     1.56612    0.02256     2.58830
      O   12   -0.30416      0.99988     3.29823    0.00605     4.30416
      O   13   -0.28419      0.99987     3.27562    0.00870     4.28419
      C   14   -0.10446      0.99961     2.09634    0.00850     3.10446
      H   15    0.10187      0.00000     0.39690    0.00124     0.39813
      H   16    0.10193      0.00000     0.39683    0.00124     0.39807
      H   17    0.09131      0.00000     0.40782    0.00088     0.40869
      H   18    0.08540      0.00000     0.41323    0.00137     0.41460
      H   19    0.09419      0.00000     0.40484    0.00098     0.40581
      H   20    0.10452      0.00000     0.39447    0.00102     0.39548
      H   21    0.09386      0.00000     0.40504    0.00110     0.40614
      H   22    0.08699      0.00000     0.41171    0.00130     0.41301
      H   23    0.08702      0.00000     0.41168    0.00130     0.41298
      H   24    0.08189      0.00000     0.41728    0.00084     0.41811
 =======================================================================
   * Total *   -0.00000     13.99468    35.84475    0.16057    50.00000

 Normal termination of Gaussian 16 at Thu Dec 10 11:06:33 2020.
