 Gaussian 16, Revision A.03,

 -----------------------------------------------------------
 # opt freq B3LYP/6-31G(d) empiricaldispersion=gd3bj scf=xqc
 -----------------------------------------------------------

 ------------------------------
 CID_62934834_JID_9181_neutraal
 ------------------------------
 Symbolic Z-matrix:
 Charge =  0 Multiplicity = 1

 SCF Done:  E(RB3LYP) =  -862.355904990     A.U. after   15 cycles
 SCF Done:  E(RB3LYP) =  -862.359823264     A.U. after   13 cycles
 SCF Done:  E(RB3LYP) =  -862.359658834     A.U. after   13 cycles
 SCF Done:  E(RB3LYP) =  -862.360208774     A.U. after   12 cycles
 SCF Done:  E(RB3LYP) =  -862.360550852     A.U. after   12 cycles
 SCF Done:  E(RB3LYP) =  -862.360649893     A.U. after   11 cycles
 SCF Done:  E(RB3LYP) =  -862.360679266     A.U. after   11 cycles
 SCF Done:  E(RB3LYP) =  -862.360708026     A.U. after    9 cycles
 SCF Done:  E(RB3LYP) =  -862.360727041     A.U. after   10 cycles
 SCF Done:  E(RB3LYP) =  -862.360749243     A.U. after   10 cycles
 SCF Done:  E(RB3LYP) =  -862.361478895     A.U. after   10 cycles
 SCF Done:  E(RB3LYP) =  -862.361479010     A.U. after    8 cycles
 SCF Done:  E(RB3LYP) =  -862.361480935     A.U. after   10 cycles
 SCF Done:  E(RB3LYP) =  -862.361481132     A.U. after    8 cycles
 SCF Done:  E(RB3LYP) =  -862.361481163     A.U. after    7 cycles
 Optimization completed.
    -- Stationary point found.
 Normal termination of Gaussian 16 at Sun Dec 13 13:17:21 2020.

 --------------------------------------------------------------------
 #N Geom=AllCheck Guess=TCheck SCRF=Check GenChk RB3LYP/6-31G(d) Freq
 --------------------------------------------------------------------

 Structure from the checkpoint file:  "JID_9181.chk"
 ------------------------------
 CID_62934834_JID_9181_neutraal
 ------------------------------
 Charge =  0 Multiplicity = 1

 SCF Done:  E(RB3LYP) =  -862.361481163     A.U. after    1 cycles

  Exact polarizability: 224.789  16.669 192.570  -5.931   0.267  95.475
 Approx polarizability: 310.418  24.941 336.358 -10.581   1.371 142.724

                      1                      2                      3
                      A                      A                      A
 Frequencies --     22.7006                23.5240                30.2289
 Red. masses --      5.7950                 5.1839                 8.4405
 Frc consts  --      0.0018                 0.0017                 0.0045
 IR Inten    --      0.5920                 1.3461                 1.7305

                      4                      5                      6
                      A                      A                      A
 Frequencies --     49.8501                57.2122                85.9273
 Red. masses --      2.6920                 1.2128                 3.9814
 Frc consts  --      0.0039                 0.0023                 0.0173
 IR Inten    --      0.6730                 0.9863                 0.3651

                      7                      8                      9
                      A                      A                      A
 Frequencies --     89.7532               143.3227               160.4738
 Red. masses --      5.2924                 3.4008                 4.6921
 Frc consts  --      0.0251                 0.0412                 0.0712
 IR Inten    --      0.7383                 0.4867                 3.4847

                     10                     11                     12
                      A                      A                      A
 Frequencies --    178.7107               191.9402               242.3502
 Red. masses --      3.6169                 3.9018                 1.2705
 Frc consts  --      0.0681                 0.0847                 0.0440
 IR Inten    --      2.4906                 3.1824                 0.2678

                     13                     14                     15
                      A                      A                      A
 Frequencies --    256.9452               275.3620               309.9217
 Red. masses --      4.1809                 2.8860                 2.9379
 Frc consts  --      0.1626                 0.1289                 0.1663
 IR Inten    --      3.8926                 8.5229                 2.7100

                     16                     17                     18
                      A                      A                      A
 Frequencies --    336.7162               342.9205               354.0378
 Red. masses --      3.3712                 4.1110                 7.1326
 Frc consts  --      0.2252                 0.2848                 0.5267
 IR Inten    --      6.0318                 0.8523                 4.4027

                     19                     20                     21
                      A                      A                      A
 Frequencies --    385.5988               412.7183               435.3824
 Red. masses --      3.1054                 2.1558                 2.7975
 Frc consts  --      0.2720                 0.2164                 0.3124
 IR Inten    --      3.6832                 2.1614                10.1415

                     22                     23                     24
                      A                      A                      A
 Frequencies --    472.6121               485.2877               485.6199
 Red. masses --      1.4449                 3.9139                 3.7277
 Frc consts  --      0.1902                 0.5431                 0.5179
 IR Inten    --     80.5742                 3.5906                18.9635

                     25                     26                     27
                      A                      A                      A
 Frequencies --    527.4381               568.0438               601.0523
 Red. masses --      1.8058                 5.2004                 3.1566
 Frc consts  --      0.2960                 0.9887                 0.6719
 IR Inten    --     27.7305                 0.5722                18.1014

                     28                     29                     30
                      A                      A                      A
 Frequencies --    613.1117               624.2582               640.0088
 Red. masses --      3.4111                 3.7699                 4.0967
 Frc consts  --      0.7555                 0.8656                 0.9887
 IR Inten    --      3.7035                 6.7199                31.0376

                     31                     32                     33
                      A                      A                      A
 Frequencies --    664.3748               691.0838               760.7830
 Red. masses --      2.7763                 1.5205                 5.4296
 Frc consts  --      0.7220                 0.4279                 1.8516
 IR Inten    --     26.0073                84.0140                10.1909

                     34                     35                     36
                      A                      A                      A
 Frequencies --    774.3549               799.9135               817.5542
 Red. masses --      3.8077                 4.1453                 1.4558
 Frc consts  --      1.3452                 1.5628                 0.5733
 IR Inten    --      0.4760                 7.6593                34.5227

                     37                     38                     39
                      A                      A                      A
 Frequencies --    829.7449               848.1317               864.4419
 Red. masses --      4.9544                 2.0680                 1.4306
 Frc consts  --      2.0097                 0.8765                 0.6298
 IR Inten    --      3.6508                 3.2722                 3.4023

                     40                     41                     42
                      A                      A                      A
 Frequencies --    874.5623               879.2225               904.8757
 Red. masses --      2.0309                 2.4952                 1.9711
 Frc consts  --      0.9152                 1.1365                 0.9509
 IR Inten    --      3.6325                12.7501                 4.8204

                     43                     44                     45
                      A                      A                      A
 Frequencies --    940.3753               946.6130               959.3094
 Red. masses --      1.5257                 1.2888                 2.7625
 Frc consts  --      0.7949                 0.6804                 1.4979
 IR Inten    --     11.2476                 0.3763                 0.2162

                     46                     47                     48
                      A                      A                      A
 Frequencies --    988.7822              1017.9777              1035.5709
 Red. masses --      1.7987                 4.1707                 1.4818
 Frc consts  --      1.0361                 2.5464                 0.9363
 IR Inten    --      2.9006                40.9872                 6.4099

                     49                     50                     51
                      A                      A                      A
 Frequencies --   1074.5043              1078.5836              1106.6625
 Red. masses --      1.4929                 2.2525                 2.7841
 Frc consts  --      1.0155                 1.5439                 2.0089
 IR Inten    --      4.1872                 9.9475                10.0472

                     52                     53                     54
                      A                      A                      A
 Frequencies --   1118.5751              1130.8965              1165.2859
 Red. masses --      1.5552                 1.9853                 1.9478
 Frc consts  --      1.1465                 1.4960                 1.5583
 IR Inten    --      3.7218               283.4466                17.0811

                     55                     56                     57
                      A                      A                      A
 Frequencies --   1187.4008              1188.8077              1198.6492
 Red. masses --      1.5509                 2.0005                 1.6158
 Frc consts  --      1.2884                 1.6658                 1.3678
 IR Inten    --      1.1019               114.2422                28.6797

                     58                     59                     60
                      A                      A                      A
 Frequencies --   1224.8188              1271.8417              1281.1421
 Red. masses --      1.4065                 1.4831                 1.6364
 Frc consts  --      1.2432                 1.4134                 1.5824
 IR Inten    --     39.8089                34.5508                13.0140

                     61                     62                     63
                      A                      A                      A
 Frequencies --   1302.2462              1311.9878              1325.4651
 Red. masses --      2.5301                 1.3582                 1.6442
 Frc consts  --      2.5280                 1.3774                 1.7019
 IR Inten    --      1.6076                 4.3703                 8.0035

                     64                     65                     66
                      A                      A                      A
 Frequencies --   1350.3440              1374.9441              1379.8122
 Red. masses --      1.9929                 1.6237                 2.1850
 Frc consts  --      2.1410                 1.8085                 2.4510
 IR Inten    --     30.3895                14.1301                 1.8021

                     67                     68                     69
                      A                      A                      A
 Frequencies --   1384.1673              1398.2044              1435.5730
 Red. masses --      2.6453                 3.2722                 2.0308
 Frc consts  --      2.9861                 3.7690                 2.4659
 IR Inten    --     14.1698                64.4707                68.0495

                     70                     71                     72
                      A                      A                      A
 Frequencies --   1443.6716              1447.2797              1447.8824
 Red. masses --      1.2516                 1.5690                 1.9788
 Frc consts  --      1.5370                 1.9363                 2.4441
 IR Inten    --      1.0101                20.2578                28.7181

                     73                     74                     75
                      A                      A                      A
 Frequencies --   1486.3058              1493.4822              1513.9130
 Red. masses --      1.0912                 2.8605                 1.0443
 Frc consts  --      1.4203                 3.7592                 1.4102
 IR Inten    --     12.0331                35.8060                 5.1999

                     76                     77                     78
                      A                      A                      A
 Frequencies --   1518.7839              1523.8928              1528.4887
 Red. masses --      1.1485                 1.1773                 1.0632
 Frc consts  --      1.5610                 1.6108                 1.4635
 IR Inten    --      2.8890                25.2624                 6.1823

                     79                     80                     81
                      A                      A                      A
 Frequencies --   1533.6752              1551.8930              1570.0477
 Red. masses --      1.0628                 3.5139                 3.2779
 Frc consts  --      1.4729                 4.9862                 4.7607
 IR Inten    --     14.5612               117.7654               133.0379

                     82                     83                     84
                      A                      A                      A
 Frequencies --   1619.6455              1688.6470              1742.7776
 Red. masses --      5.5065                 6.3621                10.9408
 Frc consts  --      8.5107                10.6888                19.5787
 IR Inten    --      0.4420                 6.3365               212.2499

                     85                     86                     87
                      A                      A                      A
 Frequencies --   1846.0685              3041.1414              3042.5189
 Red. masses --      9.5519                 1.0618                 1.0373
 Frc consts  --     19.1794                 5.7859                 5.6573
 IR Inten    --    219.5889                11.7849                43.3459

                     88                     89                     90
                      A                      A                      A
 Frequencies --   3049.2917              3072.8422              3085.5754
 Red. masses --      1.0386                 1.0890                 1.0843
 Frc consts  --      5.6900                 6.0586                 6.0825
 IR Inten    --     22.5873                 3.0526                 1.4202

                     91                     92                     93
                      A                      A                      A
 Frequencies --   3091.6057              3093.8334              3111.8868
 Red. masses --      1.0671                 1.1010                 1.1004
 Frc consts  --      6.0092                 6.2090                 6.2787
 IR Inten    --     10.8239                21.1144                50.1937

                     94                     95                     96
                      A                      A                      A
 Frequencies --   3124.2835              3130.3579              3138.9529
 Red. masses --      1.1010                 1.1007                 1.1038
 Frc consts  --      6.3317                 6.3548                 6.4080
 IR Inten    --     18.1822                21.6952                19.7947

                     97                     98                     99
                      A                      A                      A
 Frequencies --   3181.0824              3183.2866              3228.3564
 Red. masses --      1.0890                 1.0906                 1.0908
 Frc consts  --      6.4927                 6.5113                 6.6983
 IR Inten    --     15.8114                16.9106                17.6632

                    100                    101                    102
                      A                      A                      A
 Frequencies --   3295.5121              3659.4739              3682.4163
 Red. masses --      1.0970                 1.0801                 1.0639
 Frc consts  --      7.0191                 8.5225                 8.5001
 IR Inten    --      2.9291                73.7472                46.5589

 - Thermochemistry -
 -------------------
 Temperature   298.150 Kelvin.  Pressure   1.00000 Atm.
 Atom     1 has atomic number  6 and mass  12.00000

 Molecular mass:   259.12084 amu.
 Principal axes and moments of inertia in atomic units:
                           1         2         3
     Eigenvalues --  2683.551689671.00808**********
           X            0.99996   0.00848   0.00394
           Y           -0.00848   0.99996  -0.00041
           Z           -0.00395   0.00038   0.99999
 This molecule is an asymmetric top.
 Rotational symmetry number  1.
 Warning -- assumption of classical behavior for rotation
           may cause significant error
 Rotational temperatures (Kelvin)      0.03228     0.00896     0.00750
 Rotational constants (GHZ):           0.67252     0.18661     0.15622
 Zero-point vibrational energy     780321.0 (Joules/Mol)
                                  186.50120 (Kcal/Mol)
 Warning -- explicit consideration of  28 degrees of freedom as
           vibrations may cause significant error
 Vibrational temperatures:     32.66    33.85    43.49    71.72    82.32
          (Kelvin)            123.63   129.13   206.21   230.89   257.12
                              276.16   348.69   369.69   396.18   445.91
                              484.46   493.39   509.38   554.79   593.81
                              626.42   679.98   698.22   698.70   758.87
                              817.29   864.78   882.13   898.17   920.83
                              955.89   994.32  1094.60  1114.12  1150.90
                             1176.28  1193.82  1220.27  1243.74  1258.30
                             1265.01  1301.91  1352.99  1361.96  1380.23
                             1422.64  1464.64  1489.96  1545.97  1551.84
                             1592.24  1609.38  1627.11  1676.59  1708.40
                             1710.43  1724.59  1762.24  1829.90  1843.28
                             1873.64  1887.66  1907.05  1942.84  1978.24
                             1985.24  1991.51  2011.70  2065.47  2077.12
                             2082.31  2083.18  2138.46  2148.79  2178.18
                             2185.19  2192.54  2199.15  2206.62  2232.83
                             2258.95  2330.31  2429.59  2507.47  2656.08
                             4375.52  4377.51  4387.25  4421.13  4439.45
                             4448.13  4451.34  4477.31  4495.15  4503.89
                             4516.25  4576.87  4580.04  4644.88  4741.51
                             5265.17  5298.18

 Zero-point correction=                           0.297209 (Hartree/Particle)
 Thermal correction to Energy=                    0.315415
 Thermal correction to Enthalpy=                  0.316359
 Thermal correction to Gibbs Free Energy=         0.248201
 Sum of electronic and zero-point Energies=           -862.064273
 Sum of electronic and thermal Energies=              -862.046066
 Sum of electronic and thermal Enthalpies=            -862.045122
 Sum of electronic and thermal Free Energies=         -862.113281

                     E (Thermal)             CV                S
                      KCal/Mol        Cal/Mol-Kelvin    Cal/Mol-Kelvin
 Total                  197.926             68.429            143.453
 Electronic               0.000              0.000              0.000
 Translational            0.889              2.981             42.556
 Rotational               0.889              2.981             34.060
 Vibrational            196.149             62.467             66.836
 Vibration     1          0.593              1.985              6.383
 Vibration     2          0.593              1.985              6.312
 Vibration     3          0.594              1.984              5.814
 Vibration     4          0.595              1.978              4.823
 Vibration     5          0.596              1.975              4.551
 Vibration     6          0.601              1.959              3.751
 Vibration     7          0.602              1.956              3.665
 Vibration     8          0.616              1.910              2.759
 Vibration     9          0.622              1.891              2.544
 Vibration    10          0.629              1.868              2.342
 Vibration    11          0.634              1.851              2.209
 Vibration    12          0.659              1.775              1.786
 Vibration    13          0.667              1.751              1.682
 Vibration    14          0.677              1.719              1.562
 Vibration    15          0.699              1.655              1.363
 Vibration    16          0.717              1.602              1.228
 Vibration    17          0.722              1.590              1.199
 Vibration    18          0.730              1.567              1.148
 Vibration    19          0.754              1.501              1.017
 Vibration    20          0.776              1.443              0.917
 Vibration    21          0.796              1.393              0.841
 Vibration    22          0.829              1.311              0.730
 Vibration    23          0.841              1.283              0.696
 Vibration    24          0.842              1.282              0.695
 Vibration    25          0.882              1.189              0.593
 Vibration    26          0.924              1.100              0.508
 Vibration    27          0.959              1.030              0.448
 Vibration    28          0.972              1.004              0.428

 Optimization completed.
    -- Stationary point found.
 Normal termination of Gaussian 16 at Sun Dec 13 13:33:53 2020.

 ----------------------------------------------------------------------
 # B3LYP/6-311++G(d,p) empiricaldispersion=gd3bj scf=xqc pop=npa geom=c
 heck
 ----------------------------------------------------------------------

 --------------------------------------
 CID_62934834_JID_9181_Energie_neutraal
 --------------------------------------
 Structure from the checkpoint file:  "JID_9181.chk"
 Charge =  0 Multiplicity = 1

 SCF Done:  E(RB3LYP) =  -862.607967706     A.U. after   16 cycles
 Normal termination of Gaussian 16 at Sun Dec 13 13:41:44 2020.

 ----------------------------------------------------------------------
 # B3LYP/6-311++G(d,p) empiricaldispersion=gd3bj scf=xqc pop=npa geom=c
 heck
 ----------------------------------------------------------------------

 ------------------------------------
 CID_62934834_JID_9181_Energie_kation
 ------------------------------------
 Structure from the checkpoint file:  "JID_9181.chk"
 Charge =  1 Multiplicity = 2

 SCF Done:  E(UB3LYP) =  -862.323295576     A.U. after   27 cycles
 Normal termination of Gaussian 16 at Sun Dec 13 14:00:10 2020.
 Gaussian 16:  ES64L-G16RevA.03 25-Dec-2016

 ----------------------------------------------------------------------
 # B3LYP/6-311++G(d,p) empiricaldispersion=gd3bj scf=xqc pop=npa geom=c
 heck
 ----------------------------------------------------------------------

 -----------------------------------
 CID_62934834_JID_9181_Energie_anion
 -----------------------------------
 Structure from the checkpoint file:  "JID_9181.chk"
 Charge = -1 Multiplicity = 2

                         Standard orientation:
 ---------------------------------------------------------------------
 Center     Atomic      Atomic             Coordinates (Angstroms)
 Number     Number       Type             X           Y           Z
 ---------------------------------------------------------------------
      1          6           0       -5.045790   -2.435297   -0.093490
      2          6           0       -3.881395   -1.475569   -0.123710
      3          6           0       -4.084720   -0.100315   -0.069755
      4          6           0       -2.969191    0.738224   -0.102823
      5          6           0       -1.632249    0.262501   -0.192030
      6          6           0       -1.453372   -1.132569   -0.238090
      7          6           0       -2.559741   -1.968989   -0.205775
      8          6           0       -0.774038    1.437958   -0.191436
      9          6           0       -1.614022    2.533986   -0.099344
     10          7           0       -2.913910    2.123263   -0.051248
     11          6           0        0.683691    1.626275   -0.255672
     12          8           0        1.171073    2.746999   -0.131355
     13          6           0        1.608534    0.435129   -0.451738
     14          6           0        2.366259    0.096592    0.852467
     15          6           0        1.413897   -0.197855    2.018479
     16          6           0        3.313240   -1.089619    0.639983
     17          6           0        4.444821   -0.818611   -0.325499
     18          8           0        4.798578    0.265457   -0.733456
     19          8           0        5.072737   -1.967900   -0.685130
     20          1           0       -5.999710   -1.904797   -0.013879
     21          1           0       -5.080000   -3.050022   -1.001524
     22          1           0       -4.973752   -3.123921    0.757380
     23          1           0       -5.089426    0.309508   -0.001275
     24          1           0       -0.463599   -1.569547   -0.292896
     25          1           0       -2.407718   -3.044908   -0.242996
     26          1           0       -1.338532    3.577597   -0.071852
     27          1           0       -3.715209    2.732983    0.009027
     28          1           0        1.067413   -0.442303   -0.816265
     29          1           0        2.341104    0.724603   -1.210288
     30          1           0        2.969016    0.977348    1.099803
     31          1           0        0.775313   -1.063757    1.806151
     32          1           0        1.974447   -0.411575    2.935874
     33          1           0        0.757306    0.654234    2.218143
     34          1           0        3.777672   -1.378128    1.593603
     35          1           0        2.768101   -1.978146    0.297386
     36          1           0        5.800312   -1.699504   -1.277518
 ---------------------------------------------------------------------

 SCF Done:  E(UB3LYP) =  -862.605968943     A.U. after   33 cycles
 SCF Done:  E(UB3LYP) =  -862.606339358     a.u. after    7 cycles

 The electronic state is 2-A.
 Alpha  occ. eigenvalues --  -19.08418 -19.02776 -18.95664 -14.24904 -10.21900
 Alpha  occ. eigenvalues --  -10.10970 -10.09987 -10.09478 -10.08104 -10.08085
 Alpha  occ. eigenvalues --  -10.07924 -10.07783 -10.06870 -10.06752 -10.06571
 Alpha  occ. eigenvalues --  -10.06228 -10.06153 -10.05326 -10.04577  -1.02372
 Alpha  occ. eigenvalues --   -0.93377  -0.89378  -0.87371  -0.74552  -0.72415
 Alpha  occ. eigenvalues --   -0.68631  -0.65031  -0.64124  -0.63350  -0.59972
 Alpha  occ. eigenvalues --   -0.58037  -0.53783  -0.52090  -0.50701  -0.47541
 Alpha  occ. eigenvalues --   -0.46298  -0.43888  -0.41314  -0.40766  -0.39993
 Alpha  occ. eigenvalues --   -0.38711  -0.37504  -0.36481  -0.35471  -0.34280
 Alpha  occ. eigenvalues --   -0.33602  -0.33212  -0.32939  -0.31941  -0.31715
 Alpha  occ. eigenvalues --   -0.31536  -0.29989  -0.29388  -0.28808  -0.27832
 Alpha  occ. eigenvalues --   -0.27384  -0.26384  -0.25722  -0.24515  -0.24426
 Alpha  occ. eigenvalues --   -0.23739  -0.23004  -0.22330  -0.21991  -0.19463
 Alpha  occ. eigenvalues --   -0.17046  -0.12543  -0.11638  -0.10289   0.03885
 Alpha virt. eigenvalues --    0.05179   0.05819   0.06694   0.07397   0.07933
 Alpha virt. eigenvalues --    0.08628   0.08932   0.09427   0.09719   0.10431
 Alpha virt. eigenvalues --    0.10716   0.11231   0.11769   0.11953   0.12331

  Beta  occ. eigenvalues --  -19.08385 -19.02765 -18.95474 -14.24826 -10.21898
  Beta  occ. eigenvalues --  -10.10759 -10.10006 -10.09465 -10.08083 -10.07917
  Beta  occ. eigenvalues --  -10.07804 -10.07770 -10.06872 -10.06674 -10.06525
  Beta  occ. eigenvalues --  -10.06224 -10.06109 -10.05343 -10.04614  -1.02326
  Beta  occ. eigenvalues --   -0.93338  -0.89004  -0.87163  -0.74477  -0.72373
  Beta  occ. eigenvalues --   -0.68546  -0.64876  -0.64034  -0.63250  -0.59877
  Beta  occ. eigenvalues --   -0.57851  -0.53643  -0.51948  -0.50405  -0.47451
  Beta  occ. eigenvalues --   -0.46235  -0.43764  -0.41257  -0.40636  -0.39964
  Beta  occ. eigenvalues --   -0.38621  -0.37386  -0.36388  -0.35374  -0.34135
  Beta  occ. eigenvalues --   -0.33513  -0.33163  -0.32888  -0.31887  -0.31587
  Beta  occ. eigenvalues --   -0.31180  -0.29939  -0.29355  -0.28743  -0.27761
  Beta  occ. eigenvalues --   -0.27282  -0.25871  -0.25661  -0.24449  -0.24365
  Beta  occ. eigenvalues --   -0.23668  -0.22626  -0.22273  -0.21507  -0.19424
  Beta  occ. eigenvalues --   -0.16675  -0.12164  -0.11469  -0.09554
  Beta virt. eigenvalues --    0.05997   0.06241   0.07274   0.07529   0.07943
  Beta virt. eigenvalues --    0.07976   0.08966   0.09053   0.09514   0.10137
  Beta virt. eigenvalues --    0.10445   0.10774   0.11168   0.11813   0.11908

 Mulliken charges and spin densities:
               1          2
     1  C    0.187469  -0.686487
     2  C    0.562841   0.123130
     3  C   -1.761522   0.806421
     4  C    0.044663  -0.735418
     5  C    1.269166  -0.564996
     6  C   -0.931921   0.224032
     7  C   -0.675664   0.117567
     8  C    1.344144  -0.565688
     9  C   -0.093027   0.570975
    10  N   -0.130953   0.086432
    11  C   -0.613693   0.348361
    12  O   -0.338490   0.074906
    13  C    0.292357  -0.332728
    14  C   -0.065111   0.174508
    15  C   -0.696901  -0.032570
    16  C    0.216179  -0.632278
    17  C   -0.132402  -0.008599
    18  O   -0.255688   0.007510
    19  O   -0.155716   0.023943
    20  H    0.037887   0.104842
    21  H    0.130755   0.008859
    22  H    0.120890   0.017317
    23  H   -0.332792   0.445280
    24  H    0.004651   0.010170
    25  H    0.079495   0.071091
    26  H    0.070895   0.102636
    27  H   -0.222988   0.528096
    28  H    0.102231   0.034964
    29  H    0.184911   0.056199
    30  H    0.263138  -0.014390
    31  H    0.176357  -0.015837
    32  H    0.087502   0.021514
    33  H    0.186148   0.002305
    34  H    0.080991   0.091597
    35  H    0.136674   0.081898
    36  H   -0.172478   0.454437
 Sum of Mulliken charges =  -1.00000   1.00000

 Dipole moment (field-independent basis, Debye):
    X=             -1.3485    Y=             -4.8491    Z=              2.4631  Tot=              5.6035
 Quadrupole moment (field-independent basis, Debye-Ang):
   XX=           -201.1086   YY=           -153.3168   ZZ=           -129.3651
   XY=              5.1294   XZ=              6.8682   YZ=              1.0919

 Summary of Natural Population Analysis:

                                       Natural Population
                Natural  -----------------------------------------------
    Atom  No    Charge         Core      Valence    Rydberg      Total
 -----------------------------------------------------------------------
      C    1   -0.28888      0.99964     2.28435    0.00488     3.28888
      C    2   -0.03332      0.99953     2.02571    0.00808     3.03332
      C    3   -0.10559      0.99947     2.09725    0.00887     3.10559
      C    4    0.07348      0.99948     1.91534    0.01169     2.92652
      C    5   -0.03692      0.99947     2.02873    0.00872     3.03692
      C    6   -0.08914      0.99954     2.08225    0.00736     3.08914
      C    7   -0.10726      0.99953     2.09859    0.00914     3.10726
      C    8   -0.12519      0.99945     2.11563    0.01011     3.12519
      C    9    0.10105      0.99954     1.88625    0.01315     2.89895
      N   10   -0.25903      0.99965     2.75074    0.00863     3.75903
      C   11    0.30142      0.99960     1.67863    0.02035     2.69858
      O   12   -0.29328      0.99988     3.28780    0.00560     4.29328
      C   13   -0.23111      0.99958     2.22233    0.00920     3.23111
      C   14   -0.10794      0.99960     2.09868    0.00966     3.10794
      C   15   -0.28611      0.99965     2.28161    0.00485     3.28611
      C   16   -0.23964      0.99956     2.23035    0.00974     3.23964
      C   17    0.40857      0.99972     1.56646    0.02525     2.59143
      O   18   -0.30203      0.99987     3.29624    0.00592     4.30203
      O   19   -0.34814      0.99988     3.34207    0.00619     4.34814
      H   20    0.09943      0.00000     0.39978    0.00080     0.40057
      H   21    0.09866      0.00000     0.40008    0.00126     0.40134
      H   22    0.09839      0.00000     0.40038    0.00123     0.40161
      H   23    0.09864      0.00000     0.40026    0.00110     0.40136
      H   24    0.09603      0.00000     0.40247    0.00149     0.40397
      H   25    0.09331      0.00000     0.40579    0.00090     0.40669
      H   26    0.10406      0.00000     0.39503    0.00091     0.39594
      H   27    0.19957      0.00000     0.29583    0.00460     0.30043
      H   28    0.09329      0.00000     0.40496    0.00175     0.40671
      H   29    0.11679      0.00000     0.38193    0.00129     0.38321
      H   30    0.10741      0.00000     0.39086    0.00173     0.39259
      H   31    0.09729      0.00000     0.40173    0.00099     0.40271
      H   32    0.09274      0.00000     0.40650    0.00076     0.40726
      H   33    0.10955      0.00000     0.38976    0.00070     0.39045
      H   34    0.11273      0.00000     0.38641    0.00085     0.38727
      H   35    0.11067      0.00000     0.38831    0.00102     0.38933
      H   36    0.24052      0.00000     0.25225    0.00722     0.25948
 =======================================================================
   * Total *   -0.00000     18.99266    49.79137    0.21598    69.00000

 Normal termination of Gaussian 16 at Sun Dec 13 16:41:56 2020.
