 Gaussian 16, Revision A.03,

 -----------------------------------------------------------
 # opt freq B3LYP/6-31G(d) empiricaldispersion=gd3bj scf=xqc
 -----------------------------------------------------------

 ------------------------------
 CID_15652568_JID_7285_neutraal
 ------------------------------
 Symbolic Z-matrix:
 Charge =  0 Multiplicity = 1

 SCF Done:  E(RB3LYP) =  -730.557415754     A.U. after   15 cycles
 SCF Done:  E(RB3LYP) =  -730.561974257     A.U. after   13 cycles
 SCF Done:  E(RB3LYP) =  -730.562339020     A.U. after   12 cycles
 SCF Done:  E(RB3LYP) =  -730.562606985     A.U. after   14 cycles
 SCF Done:  E(RB3LYP) =  -730.563319787     A.U. after   12 cycles
 SCF Done:  E(RB3LYP) =  -730.563562721     A.U. after   12 cycles
 SCF Done:  E(RB3LYP) =  -730.563616635     A.U. after   12 cycles
 SCF Done:  E(RB3LYP) =  -730.563656690     A.U. after   10 cycles
 SCF Done:  E(RB3LYP) =  -730.563708152     A.U. after   10 cycles
 SCF Done:  E(RB3LYP) =  -730.563728199     A.U. after   10 cycles
 SCF Done:  E(RB3LYP) =  -730.563774063     A.U. after    9 cycles
 SCF Done:  E(RB3LYP) =  -730.563774944     A.U. after    9 cycles
 SCF Done:  E(RB3LYP) =  -730.563775121     A.U. after    8 cycles
 SCF Done:  E(RB3LYP) =  -730.563775109     A.U. after    8 cycles
 SCF Done:  E(RB3LYP) =  -730.563775125     A.U. after    6 cycles
 Optimization completed.
    -- Stationary point found.
 Normal termination of Gaussian 16 at Fri Dec 11 12:16:18 2020.

 --------------------------------------------------------------------
 #N Geom=AllCheck Guess=TCheck SCRF=Check GenChk RB3LYP/6-31G(d) Freq
 --------------------------------------------------------------------

 Structure from the checkpoint file:  "JID_7285.chk"
 ------------------------------
 CID_15652568_JID_7285_neutraal
 ------------------------------
 Charge =  0 Multiplicity = 1

 SCF Done:  E(RB3LYP) =  -730.563775125     A.U. after    1 cycles

  Exact polarizability: 229.456   0.395 140.159   0.949 -22.721 105.770
 Approx polarizability: 322.271   4.013 222.069   3.360 -53.522 188.760

                      1                      2                      3
                      A                      A                      A
 Frequencies --     31.4167                41.5829                56.6491
 Red. masses --      1.0244                 4.9694                 5.4850
 Frc consts  --      0.0006                 0.0051                 0.0104
 IR Inten    --      0.2071                 0.0461                 1.4293

                      4                      5                      6
                      A                      A                      A
 Frequencies --     62.4055                74.1392                99.1099
 Red. masses --      3.6441                 3.2396                 4.5176
 Frc consts  --      0.0084                 0.0105                 0.0261
 IR Inten    --      0.9249                 2.7169                 1.9381

                      7                      8                      9
                      A                      A                      A
 Frequencies --    117.3479               121.6136               196.9188
 Red. masses --      4.4555                 1.1108                 3.9204
 Frc consts  --      0.0361                 0.0097                 0.0896
 IR Inten    --      1.3955                 0.0988                 0.1171

                     10                     11                     12
                      A                      A                      A
 Frequencies --    237.6743               259.5179               282.0170
 Red. masses --      4.7636                 4.8289                 4.5348
 Frc consts  --      0.1585                 0.1916                 0.2125
 IR Inten    --      0.5093                 0.9499                 1.0663

                     13                     14                     15
                      A                      A                      A
 Frequencies --    318.7769               350.8609               387.2783
 Red. masses --      3.7804                 3.5870                 4.1797
 Frc consts  --      0.2263                 0.2602                 0.3694
 IR Inten    --      1.1736                 0.7385                 0.9014

                     16                     17                     18
                      A                      A                      A
 Frequencies --    417.6378               462.4703               499.7792
 Red. masses --      3.0295                 3.5812                 4.2159
 Frc consts  --      0.3113                 0.4513                 0.6204
 IR Inten    --      0.1934                 2.8646                 2.1158

                     19                     20                     21
                      A                      A                      A
 Frequencies --    533.4654               566.6860               573.0691
 Red. masses --      4.1915                 5.4831                 3.6964
 Frc consts  --      0.7028                 1.0374                 0.7152
 IR Inten    --     13.7268                 2.1281                 0.0548

                     22                     23                     24
                      A                      A                      A
 Frequencies --    581.5214               605.1427               636.3137
 Red. masses --      3.3640                 3.6729                 6.2687
 Frc consts  --      0.6702                 0.7925                 1.4954
 IR Inten    --      4.3873                 8.8259                 0.0518

                     25                     26                     27
                      A                      A                      A
 Frequencies --    683.4331               713.6569               727.9787
 Red. masses --      5.5259                 1.8895                 5.1211
 Frc consts  --      1.5207                 0.5670                 1.5990
 IR Inten    --      2.9231                25.6661                 0.8286

                     28                     29                     30
                      A                      A                      A
 Frequencies --    740.3528               768.9351               790.4321
 Red. masses --      4.1180                 2.6700                 2.9486
 Frc consts  --      1.3299                 0.9301                 1.0854
 IR Inten    --      6.3452                25.0457                 7.7441

                     31                     32                     33
                      A                      A                      A
 Frequencies --    839.2591               860.5295               875.8324
 Red. masses --      1.3542                 1.2522                 2.3228
 Frc consts  --      0.5620                 0.5463                 1.0498
 IR Inten    --     14.3380                 0.9702                 8.6856

                     34                     35                     36
                      A                      A                      A
 Frequencies --    913.7455               930.4666               959.0842
 Red. masses --      2.0387                 1.4386                 1.3261
 Frc consts  --      1.0029                 0.7338                 0.7187
 IR Inten    --     15.0930                 5.6293                 0.5636

                     37                     38                     39
                      A                      A                      A
 Frequencies --    968.8765               974.5831               993.9840
 Red. masses --      1.3444                 3.0766                 1.2457
 Frc consts  --      0.7436                 1.7217                 0.7251
 IR Inten    --      0.4168                17.9592                 0.1132

                     40                     41                     42
                      A                      A                      A
 Frequencies --   1022.3668              1028.7962              1033.9701
 Red. masses --      6.1833                 2.3530                 2.9737
 Frc consts  --      3.8079                 1.4673                 1.8731
 IR Inten    --      0.8778                17.3001                15.1786

                     43                     44                     45
                      A                      A                      A
 Frequencies --   1042.2857              1069.4824              1075.1712
 Red. masses --      1.7306                 1.9638                 1.6081
 Frc consts  --      1.1077                 1.3234                 1.0953
 IR Inten    --     30.3025                10.0786                 5.1257

                     46                     47                     48
                      A                      A                      A
 Frequencies --   1075.8384              1112.8996              1162.5839
 Red. masses --      1.6324                 1.6031                 1.8221
 Frc consts  --      1.1132                 1.1698                 1.4510
 IR Inten    --     14.2597                 3.6794                52.2973

                     49                     50                     51
                      A                      A                      A
 Frequencies --   1184.8797              1194.2158              1217.2920
 Red. masses --      1.6402                 1.0950                 1.1453
 Frc consts  --      1.3568                 0.9201                 0.9999
 IR Inten    --     20.4473                 0.0037                 5.9338

                     52                     53                     54
                      A                      A                      A
 Frequencies --   1238.2493              1263.5595              1305.5701
 Red. masses --      3.6045                 2.0994                 2.2887
 Frc consts  --      3.2562                 1.9748                 2.2985
 IR Inten    --    433.7088                 3.7456                13.4161

                     55                     56                     57
                      A                      A                      A
 Frequencies --   1322.5390              1336.6438              1349.4420
 Red. masses --      3.2249                 2.6177                 6.5565
 Frc consts  --      3.3234                 2.7555                 7.0344
 IR Inten    --      1.4233                 3.2828                 1.6994

                     58                     59                     60
                      A                      A                      A
 Frequencies --   1370.3556              1421.5418              1442.7257
 Red. masses --      1.7245                 1.3215                 1.2475
 Frc consts  --      1.9080                 1.5734                 1.5299
 IR Inten    --      0.3771                63.4231                 0.1892

                     61                     62                     63
                      A                      A                      A
 Frequencies --   1458.4606              1494.4514              1501.7782
 Red. masses --      2.9863                 2.1693                 1.0545
 Frc consts  --      3.7426                 2.8545                 1.4012
 IR Inten    --     15.1493                 3.9580                10.0118

                     64                     65                     66
                      A                      A                      A
 Frequencies --   1504.9848              1517.1114              1523.3381
 Red. masses --      1.0516                 1.0538                 1.1486
 Frc consts  --      1.4033                 1.4291                 1.5704
 IR Inten    --      5.8640                 7.3845                12.0357

                     67                     68                     69
                      A                      A                      A
 Frequencies --   1537.5485              1563.8116              1619.1448
 Red. masses --      2.3050                 3.0641                 5.5174
 Frc consts  --      3.2105                 4.4149                 8.5223
 IR Inten    --     38.3700                 7.7299                 4.3015

                     70                     71                     72
                      A                      A                      A
 Frequencies --   1641.3390              1666.0955              1680.3999
 Red. masses --      5.7852                 5.5822                 6.7184
 Frc consts  --      9.1827                 9.1297                11.1774
 IR Inten    --      3.3242                 6.4194                18.0203

                     73                     74                     75
                      A                      A                      A
 Frequencies --   1861.7997              3043.6621              3070.2637
 Red. masses --     11.7372                 1.0401                 1.0389
 Frc consts  --     23.9707                 5.6768                 5.7703
 IR Inten    --    164.7417                36.9380                 1.7171

                     76                     77                     78
                      A                      A                      A
 Frequencies --   3100.3693              3129.0193              3139.5682
 Red. masses --      1.0966                 1.1023                 1.0971
 Frc consts  --      6.2106                 6.3587                 6.3712
 IR Inten    --     19.7689                16.0700                 6.0904

                     79                     80                     81
                      A                      A                      A
 Frequencies --   3182.1569              3184.0645              3184.7649
 Red. masses --      1.0850                 1.1045                 1.0875
 Frc consts  --      6.4733                 6.5976                 6.4989
 IR Inten    --      2.7193                 6.7983                14.2877

                     82                     83                     84
                      A                      A                      A
 Frequencies --   3190.7558              3201.4427              3202.2162
 Red. masses --      1.0883                 1.0920                 1.0915
 Frc consts  --      6.5280                 6.5944                 6.5943
 IR Inten    --      9.7899                22.7919                11.6624

                     85                     86                     87
                      A                      A                      A
 Frequencies --   3204.8687              3210.9416              3217.2922
 Red. masses --      1.0936                 1.0951                 1.0952
 Frc consts  --      6.6182                 6.6520                 6.6791
 IR Inten    --     14.1462                27.3314                 6.1738

 - Thermochemistry -
 -------------------
 Temperature   298.150 Kelvin.  Pressure   1.00000 Atm.
 Atom     1 has atomic number  6 and mass  12.00000

 Molecular mass:   226.09938 amu.
 Principal axes and moments of inertia in atomic units:
                           1         2         3
     Eigenvalues --  2342.710565021.035956490.83056
           X            0.99990  -0.01394   0.00125
           Y            0.01396   0.99961  -0.02412
           Z           -0.00091   0.02413   0.99971
 This molecule is an asymmetric top.
 Rotational symmetry number  1.
 Warning -- assumption of classical behavior for rotation
           may cause significant error
 Rotational temperatures (Kelvin)      0.03697     0.01725     0.01334
 Rotational constants (GHZ):           0.77036     0.35944     0.27804
 Zero-point vibrational energy     660079.1 (Joules/Mol)
                                  157.76268 (Kcal/Mol)
 Warning -- explicit consideration of  23 degrees of freedom as
           vibrations may cause significant error
 Vibrational temperatures:     45.20    59.83    81.51    89.79   106.67
          (Kelvin)            142.60   168.84   174.97   283.32   341.96
                              373.39   405.76   458.65   504.81   557.21
                              600.89   665.39   719.07   767.54   815.33
                              824.52   836.68   870.67   915.51   983.31
                             1026.79  1047.40  1065.20  1106.33  1137.26
                             1207.51  1238.11  1260.13  1314.68  1338.73
                             1379.91  1394.00  1402.21  1430.12  1470.96
                             1480.21  1487.65  1499.62  1538.75  1546.93
                             1547.89  1601.21  1672.70  1704.78  1718.21
                             1751.41  1781.56  1817.98  1878.42  1902.84
                             1923.13  1941.55  1971.64  2045.28  2075.76
                             2098.40  2150.18  2160.72  2165.34  2182.78
                             2191.74  2212.19  2249.98  2329.59  2361.52
                             2397.14  2417.72  2678.71  4379.15  4417.42
                             4460.74  4501.96  4517.14  4578.41  4581.16
                             4582.17  4590.79  4606.16  4607.27  4611.09
                             4619.83  4628.97

 Zero-point correction=                           0.251411 (Hartree/Particle)
 Thermal correction to Energy=                    0.266870
 Thermal correction to Enthalpy=                  0.267814
 Thermal correction to Gibbs Free Energy=         0.206901
 Sum of electronic and zero-point Energies=           -730.312364
 Sum of electronic and thermal Energies=              -730.296905
 Sum of electronic and thermal Enthalpies=            -730.295961
 Sum of electronic and thermal Free Energies=         -730.356874

                     E (Thermal)             CV                S
                      KCal/Mol        Cal/Mol-Kelvin    Cal/Mol-Kelvin
 Total                  167.463             58.057            128.202
 Electronic               0.000              0.000              0.000
 Translational            0.889              2.981             42.150
 Rotational               0.889              2.981             32.701
 Vibrational            165.686             52.095             53.351
 Vibration     1          0.594              1.983              5.738
 Vibration     2          0.594              1.981              5.182
 Vibration     3          0.596              1.975              4.571
 Vibration     4          0.597              1.972              4.380
 Vibration     5          0.599              1.966              4.040
 Vibration     6          0.604              1.950              3.472
 Vibration     7          0.608              1.935              3.144
 Vibration     8          0.609              1.931              3.075
 Vibration     9          0.636              1.844              2.162
 Vibration    10          0.656              1.783              1.820
 Vibration    11          0.668              1.747              1.665
 Vibration    12          0.681              1.707              1.521
 Vibration    13          0.705              1.638              1.316
 Vibration    14          0.728              1.573              1.162
 Vibration    15          0.756              1.497              1.011
 Vibration    16          0.781              1.432              0.900
 Vibration    17          0.820              1.333              0.759
 Vibration    18          0.855              1.251              0.659
 Vibration    19          0.888              1.176              0.580
 Vibration    20          0.923              1.103              0.511
 Vibration    21          0.929              1.089              0.498
 Vibration    22          0.938              1.071              0.483
 Vibration    23          0.964              1.021              0.441

 Optimization completed.
    -- Stationary point found.
 Normal termination of Gaussian 16 at Fri Dec 11 12:27:43 2020.

 ----------------------------------------------------------------------
 # B3LYP/6-311++G(d,p) empiricaldispersion=gd3bj scf=xqc pop=npa geom=c
 heck
 ----------------------------------------------------------------------

 --------------------------------------
 CID_15652568_JID_7285_Energie_neutraal
 --------------------------------------
 Structure from the checkpoint file:  "JID_7285.chk"
 Charge =  0 Multiplicity = 1

 SCF Done:  E(RB3LYP) =  -730.757482353     A.U. after   16 cycles
 Normal termination of Gaussian 16 at Fri Dec 11 12:33:38 2020.

 ----------------------------------------------------------------------
 # B3LYP/6-311++G(d,p) empiricaldispersion=gd3bj scf=xqc pop=npa geom=c
 heck
 ----------------------------------------------------------------------

 ------------------------------------
 CID_15652568_JID_7285_Energie_kation
 ------------------------------------
 Structure from the checkpoint file:  "JID_7285.chk"
 Charge =  1 Multiplicity = 2

 SCF Done:  E(UB3LYP) =  -730.465887342     A.U. after   26 cycles
 Normal termination of Gaussian 16 at Fri Dec 11 12:51:36 2020.
 Gaussian 16:  ES64L-G16RevA.03 25-Dec-2016

 ----------------------------------------------------------------------
 # B3LYP/6-311++G(d,p) empiricaldispersion=gd3bj scf=xqc pop=npa geom=c
 heck
 ----------------------------------------------------------------------

 -----------------------------------
 CID_15652568_JID_7285_Energie_anion
 -----------------------------------
 Structure from the checkpoint file:  "JID_7285.chk"
 Charge = -1 Multiplicity = 2

                         Standard orientation:
 ---------------------------------------------------------------------
 Center     Atomic      Atomic             Coordinates (Angstroms)
 Number     Number       Type             X           Y           Z
 ---------------------------------------------------------------------
      1          6           0        4.770696   -0.350879   -0.113215
      2          6           0        3.268105   -0.483747   -0.100194
      3          6           0        2.452094    0.636296   -0.297082
      4          6           0        1.071404    0.508412   -0.314959
      5          6           0        0.432242   -0.727670   -0.136878
      6          6           0        1.259082   -1.838130    0.074957
      7          6           0        2.647386   -1.721738    0.093076
      8          6           0       -1.043741   -0.864360   -0.150101
      9          6           0       -1.819499   -0.301637   -1.176249
     10          6           0       -3.205524   -0.447867   -1.179658
     11          6           0       -3.840520   -1.159623   -0.160087
     12          6           0       -3.078443   -1.725570    0.862462
     13          6           0       -1.692516   -1.577802    0.867595
     14          8           0        0.315282    1.660215   -0.551206
     15          6           0       -0.404875    2.167187    0.505709
     16          8           0       -0.303579    1.765329    1.635901
     17          6           0       -1.333642    3.246572    0.017930
     18          1           0        5.154868   -0.291135   -1.139922
     19          1           0        5.096217    0.556294    0.407400
     20          1           0        5.250016   -1.209009    0.367900
     21          1           0        2.884022    1.623819   -0.429724
     22          1           0        0.796758   -2.811513    0.210396
     23          1           0        3.257102   -2.607098    0.252967
     24          1           0       -1.328885    0.243524   -1.975684
     25          1           0       -3.790055   -0.013008   -1.985990
     26          1           0       -4.921078   -1.271332   -0.162711
     27          1           0       -3.564073   -2.274645    1.664323
     28          1           0       -1.103262   -1.994550    1.678862
     29          1           0       -1.695781    3.828665    0.865924
     30          1           0       -0.838430    3.892365   -0.711725
     31          1           0       -2.184537    2.766611   -0.479431
 ---------------------------------------------------------------------

 SCF Done:  E(UB3LYP) =  -730.745397343     A.U. after   33 cycles
 SCF Done:  E(UB3LYP) =  -730.745397343     a.u. after    2 cycles

 The electronic state is 2-A.
 Alpha  occ. eigenvalues --  -19.06129 -19.00706 -10.19973 -10.11705 -10.07506
 Alpha  occ. eigenvalues --  -10.06573 -10.06358 -10.06070 -10.05901 -10.05892
 Alpha  occ. eigenvalues --  -10.05876 -10.05849 -10.05766 -10.05749 -10.05418
 Alpha  occ. eigenvalues --  -10.05413 -10.05162  -1.00197  -0.92109  -0.75456
 Alpha  occ. eigenvalues --   -0.73575  -0.67837  -0.66287  -0.63149  -0.62866
 Alpha  occ. eigenvalues --   -0.62352  -0.57545  -0.52844  -0.50455  -0.48853
 Alpha  occ. eigenvalues --   -0.47567  -0.44003  -0.40895  -0.38755  -0.38579
 Alpha  occ. eigenvalues --   -0.37776  -0.36716  -0.35036  -0.33941  -0.33160
 Alpha  occ. eigenvalues --   -0.32375  -0.31882  -0.31026  -0.30642  -0.30143
 Alpha  occ. eigenvalues --   -0.29290  -0.29181  -0.27407  -0.26092  -0.25461
 Alpha  occ. eigenvalues --   -0.24578  -0.23519  -0.23217  -0.22784  -0.20320
 Alpha  occ. eigenvalues --   -0.17741  -0.15698  -0.14212  -0.13933  -0.11476
 Alpha  occ. eigenvalues --    0.04943
 Alpha virt. eigenvalues --    0.06765   0.06851   0.07602   0.08638   0.08802
 Alpha virt. eigenvalues --    0.09191   0.09634   0.09757   0.10326   0.10403
 Alpha virt. eigenvalues --    0.10792   0.11061   0.11937   0.12215   0.12519

  Beta  occ. eigenvalues --  -19.06129 -19.00698 -10.19972 -10.11669 -10.07468
  Beta  occ. eigenvalues --  -10.06574 -10.06163 -10.05962 -10.05911 -10.05886
  Beta  occ. eigenvalues --  -10.05875 -10.05767 -10.05746 -10.05693 -10.05369
  Beta  occ. eigenvalues --  -10.05360 -10.04988  -1.00182  -0.92092  -0.75248
  Beta  occ. eigenvalues --   -0.73398  -0.67599  -0.66167  -0.63011  -0.62654
  Beta  occ. eigenvalues --   -0.62258  -0.57404  -0.52780  -0.50264  -0.48706
  Beta  occ. eigenvalues --   -0.47400  -0.43855  -0.40810  -0.38699  -0.38507
  Beta  occ. eigenvalues --   -0.37684  -0.36626  -0.34974  -0.33832  -0.33032
  Beta  occ. eigenvalues --   -0.32289  -0.31660  -0.30979  -0.30604  -0.30023
  Beta  occ. eigenvalues --   -0.29240  -0.29122  -0.27352  -0.25889  -0.25129
  Beta  occ. eigenvalues --   -0.24429  -0.23272  -0.23102  -0.22682  -0.20246
  Beta  occ. eigenvalues --   -0.17704  -0.14866  -0.13874  -0.13617  -0.10729
  Beta virt. eigenvalues --    0.06957   0.07258   0.07940   0.08446   0.08765
  Beta virt. eigenvalues --    0.09062   0.09292   0.09744   0.09946   0.10530
  Beta virt. eigenvalues --    0.10540   0.11037   0.11252   0.12103   0.12324

 Mulliken charges and spin densities:
               1          2
     1  C    0.713437  -1.214859
     2  C    0.557466   0.270202
     3  C   -0.335967   0.226208
     4  C   -0.727755   0.383625
     5  C    0.627233  -0.125013
     6  C   -0.403242   0.017769
     7  C   -0.796062  -0.070429
     8  C    1.481951  -0.286131
     9  C   -0.613803   0.365037
    10  C   -0.440507  -0.022622
    11  C    0.353638  -0.479155
    12  C   -0.494577   0.096134
    13  C   -0.482508   0.004242
    14  O   -0.045560   0.011062
    15  C   -0.826032   0.829393
    16  O   -0.171194  -0.000990
    17  C    1.015408  -1.520487
    18  H    0.172778  -0.023673
    19  H   -0.177876   0.326674
    20  H   -0.105880   0.243849
    21  H   -0.141219   0.295913
    22  H    0.136895  -0.003210
    23  H    0.019208   0.093885
    24  H    0.186363   0.004484
    25  H   -0.236300   0.391368
    26  H    0.013845   0.100972
    27  H    0.043746   0.093010
    28  H    0.118000   0.038074
    29  H   -0.061194   0.217812
    30  H   -0.281747   0.451936
    31  H   -0.098544   0.284919
 Sum of Mulliken charges =  -1.00000   1.00000

 Dipole moment (field-independent basis, Debye):
    X=              0.2574    Y=             -2.5343    Z=             -0.8866  Tot=              2.6972
 Quadrupole moment (field-independent basis, Debye-Ang):
   XX=           -160.4532   YY=           -134.9354   ZZ=           -123.7898
   XY=             -1.2444   XZ=             -7.6508   YZ=             -1.3057

 Summary of Natural Population Analysis:

                                       Natural Population
                Natural  -----------------------------------------------
    Atom  No    Charge         Core      Valence    Rydberg      Total
 -----------------------------------------------------------------------
      C    1   -0.29362      0.99964     2.28862    0.00536     3.29362
      C    2    0.01514      0.99953     1.97700    0.00833     2.98486
      C    3   -0.11760      0.99946     2.10934    0.00880     3.11760
      C    4    0.16559      0.99930     1.82210    0.01302     2.83441
      C    5   -0.02445      0.99943     2.01534    0.00968     3.02445
      C    6   -0.07185      0.99954     2.06482    0.00750     3.07185
      C    7   -0.11699      0.99952     2.10808    0.00939     3.11699
      C    8   -0.00820      0.99949     1.99799    0.01071     3.00820
      C    9   -0.08969      0.99953     2.08135    0.00881     3.08969
      C   10   -0.11109      0.99957     2.10131    0.01022     3.11109
      C   11   -0.08123      0.99957     2.07096    0.01070     3.08123
      C   12   -0.10849      0.99957     2.09933    0.00959     3.10849
      C   13   -0.08239      0.99953     2.07506    0.00781     3.08239
      O   14   -0.28604      0.99985     3.27619    0.01000     4.28604
      C   15    0.40946      0.99970     1.56588    0.02495     2.59054
      O   16   -0.28914      0.99986     3.28395    0.00532     4.28914
      C   17   -0.33397      0.99961     2.32920    0.00516     3.33397
      H   18    0.10043      0.00000     0.39875    0.00082     0.39957
      H   19    0.10429      0.00000     0.39430    0.00141     0.39571
      H   20    0.09952      0.00000     0.39960    0.00088     0.40048
      H   21    0.10225      0.00000     0.39663    0.00113     0.39775
      H   22    0.09739      0.00000     0.40136    0.00125     0.40261
      H   23    0.09467      0.00000     0.40450    0.00084     0.40533
      H   24    0.10198      0.00000     0.39666    0.00136     0.39802
      H   25    0.09680      0.00000     0.40237    0.00083     0.40320
      H   26    0.09354      0.00000     0.40570    0.00076     0.40646
      H   27    0.09512      0.00000     0.40409    0.00080     0.40488
      H   28    0.09885      0.00000     0.39987    0.00128     0.40115
      H   29    0.10794      0.00000     0.39126    0.00080     0.39206
      H   30    0.11147      0.00000     0.38710    0.00143     0.38853
      H   31    0.12034      0.00000     0.37845    0.00121     0.37966
 =======================================================================
   * Total *   -0.00000     16.99268    42.82715    0.18017    60.00000

 Normal termination of Gaussian 16 at Fri Dec 11 14:02:27 2020.
