 Gaussian 16, Revision A.03,

 -----------------------------------------------------------
 # opt freq B3LYP/6-31G(d) empiricaldispersion=gd3bj scf=xqc
 -----------------------------------------------------------

 -------------------------------
 CID_123970897_JID_7855_neutraal
 -------------------------------
 Symbolic Z-matrix:
 Charge =  0 Multiplicity = 1

 SCF Done:  E(RB3LYP) =  -753.803644413     A.U. after   15 cycles
 SCF Done:  E(RB3LYP) =  -753.808646102     A.U. after   13 cycles
 SCF Done:  E(RB3LYP) =  -753.806811373     A.U. after   13 cycles
 SCF Done:  E(RB3LYP) =  -753.809036192     A.U. after   12 cycles
 SCF Done:  E(RB3LYP) =  -753.810198026     A.U. after   13 cycles
 SCF Done:  E(RB3LYP) =  -753.810827686     A.U. after   12 cycles
 SCF Done:  E(RB3LYP) =  -753.811020255     A.U. after   13 cycles
 SCF Done:  E(RB3LYP) =  -753.811620822     A.U. after   12 cycles
 SCF Done:  E(RB3LYP) =  -753.811913235     A.U. after   11 cycles
 SCF Done:  E(RB3LYP) =  -753.812059402     A.U. after   12 cycles
 SCF Done:  E(RB3LYP) =  -753.821463504     A.U. after   10 cycles
 SCF Done:  E(RB3LYP) =  -753.821470067     A.U. after   10 cycles
 SCF Done:  E(RB3LYP) =  -753.821473048     A.U. after   10 cycles
 SCF Done:  E(RB3LYP) =  -753.821474932     A.U. after    9 cycles
 SCF Done:  E(RB3LYP) =  -753.821475059     A.U. after    9 cycles
 SCF Done:  E(RB3LYP) =  -753.821475062     A.U. after    7 cycles
 Optimization completed.
    -- Stationary point found.
 Normal termination of Gaussian 16 at Sun Dec 13 13:18:54 2020.

 --------------------------------------------------------------------
 #N Geom=AllCheck Guess=TCheck SCRF=Check GenChk RB3LYP/6-31G(d) Freq
 --------------------------------------------------------------------

 Structure from the checkpoint file:  "JID_7855.chk"
 -------------------------------
 CID_123970897_JID_7855_neutraal
 -------------------------------
 Charge =  0 Multiplicity = 1

 SCF Done:  E(RB3LYP) =  -753.821475062     A.U. after    1 cycles

  Exact polarizability: 175.436  -1.560 156.573   7.275   1.097 133.237
 Approx polarizability: 218.118  -2.710 231.489  17.075   0.246 215.676

                      1                      2                      3
                      A                      A                      A
 Frequencies --      9.0287                31.8260                51.2516
 Red. masses --      3.2953                 4.9566                 4.9919
 Frc consts  --      0.0002                 0.0030                 0.0077
 IR Inten    --      0.2511                 0.3427                 0.4697

                      4                      5                      6
                      A                      A                      A
 Frequencies --     57.7057                77.3436                93.3594
 Red. masses --      4.1852                 4.4818                 4.2479
 Frc consts  --      0.0082                 0.0158                 0.0218
 IR Inten    --      1.0488                 1.4910                 3.3538

                      7                      8                      9
                      A                      A                      A
 Frequencies --    100.5734               110.4369               137.0963
 Red. masses --      3.4444                 2.8617                 2.3304
 Frc consts  --      0.0205                 0.0206                 0.0258
 IR Inten    --      3.6351                 0.6710                 0.1249

                     10                     11                     12
                      A                      A                      A
 Frequencies --    151.7157               162.7757               194.2559
 Red. masses --      4.5957                 2.6108                 2.6004
 Frc consts  --      0.0623                 0.0408                 0.0578
 IR Inten    --      1.4979                 0.3505                 5.1635

                     13                     14                     15
                      A                      A                      A
 Frequencies --    230.4048               238.7954               244.7332
 Red. masses --      2.8056                 1.5916                 1.1334
 Frc consts  --      0.0878                 0.0535                 0.0400
 IR Inten    --      4.2043                 0.2134                 0.0680

                     16                     17                     18
                      A                      A                      A
 Frequencies --    257.8745               286.8832               312.4745
 Red. masses --      1.9595                 1.1430                 2.2656
 Frc consts  --      0.0768                 0.0554                 0.1303
 IR Inten    --      0.5214                 0.6984                 3.9624

                     19                     20                     21
                      A                      A                      A
 Frequencies --    335.6389               343.6056               360.0550
 Red. masses --      2.0774                 2.0501                 2.2508
 Frc consts  --      0.1379                 0.1426                 0.1719
 IR Inten    --      0.7004                 1.2275                 0.3650

                     22                     23                     24
                      A                      A                      A
 Frequencies --    368.9438               392.7205               420.8549
 Red. masses --      2.2784                 2.5619                 2.2174
 Frc consts  --      0.1827                 0.2328                 0.2314
 IR Inten    --      0.5588                 0.2562                 3.4425

                     25                     26                     27
                      A                      A                      A
 Frequencies --    424.5137               460.4430               478.4225
 Red. masses --      2.3414                 2.8732                 2.3487
 Frc consts  --      0.2486                 0.3589                 0.3167
 IR Inten    --      2.3745                 5.9188                 0.4892

                     28                     29                     30
                      A                      A                      A
 Frequencies --    519.2598               548.2986               567.4623
 Red. masses --      2.4103                 2.9240                 2.8305
 Frc consts  --      0.3829                 0.5179                 0.5370
 IR Inten    --      7.9062                 6.7760                 9.1955

                     31                     32                     33
                      A                      A                      A
 Frequencies --    600.3362               633.3617               701.3340
 Red. masses --      2.7015                 3.1188                 1.6432
 Frc consts  --      0.5736                 0.7371                 0.4762
 IR Inten    --      5.9090                 7.1573                16.0198

                     34                     35                     36
                      A                      A                      A
 Frequencies --    720.6918               741.4261               759.4448
 Red. masses --      1.4511                 2.3732                 2.0845
 Frc consts  --      0.4441                 0.7686                 0.7083
 IR Inten    --     70.8758                 1.6033                15.9286

                     37                     38                     39
                      A                      A                      A
 Frequencies --    795.6074               810.8516               854.4180
 Red. masses --      1.3033                 1.8029                 3.5311
 Frc consts  --      0.4861                 0.6984                 1.5188
 IR Inten    --     19.3549                 5.0665                 3.1239

                     40                     41                     42
                      A                      A                      A
 Frequencies --    888.4382               892.1389               927.2755
 Red. masses --      2.2438                 2.1197                 1.7157
 Frc consts  --      1.0435                 0.9940                 0.8692
 IR Inten    --      1.4659                 8.7054                 4.5835

                     43                     44                     45
                      A                      A                      A
 Frequencies --    935.6530               951.2902               952.1720
 Red. masses --      2.2996                 1.4543                 1.5450
 Frc consts  --      1.1862                 0.7754                 0.8253
 IR Inten    --      3.4686                42.6380                10.1069

                     46                     47                     48
                      A                      A                      A
 Frequencies --    956.2157               980.3889              1002.8139
 Red. masses --      1.6146                 1.6845                 2.4563
 Frc consts  --      0.8698                 0.9539                 1.4554
 IR Inten    --      4.9782                 1.4379                13.6925

                     49                     50                     51
                      A                      A                      A
 Frequencies --   1022.6059              1024.8166              1028.5625
 Red. masses --      1.3162                 1.8524                 1.8731
 Frc consts  --      0.8110                 1.1463                 1.1675
 IR Inten    --      1.6892                 4.2860                 9.1419

                     52                     53                     54
                      A                      A                      A
 Frequencies --   1034.9701              1075.5729              1086.1242
 Red. masses --      1.7845                 1.1534                 1.7956
 Frc consts  --      1.1262                 0.7861                 1.2480
 IR Inten    --      2.3399                18.3869                 2.2861

                     55                     56                     57
                      A                      A                      A
 Frequencies --   1103.1238              1123.1974              1150.6915
 Red. masses --      1.6681                 1.8794                 2.4731
 Frc consts  --      1.1960                 1.3969                 1.9294
 IR Inten    --      1.4322                 2.5044                 4.3127

                     58                     59                     60
                      A                      A                      A
 Frequencies --   1171.1377              1185.9430              1199.5866
 Red. masses --      1.6424                 1.6009                 1.6613
 Frc consts  --      1.3272                 1.3266                 1.4085
 IR Inten    --      7.8373                 8.3686                40.3147

                     61                     62                     63
                      A                      A                      A
 Frequencies --   1223.6954              1254.9397              1261.7570
 Red. masses --      2.2170                 1.6102                 2.1100
 Frc consts  --      1.9560                 1.4941                 1.9792
 IR Inten    --     33.8198                42.2789                13.7744

                     64                     65                     66
                      A                      A                      A
 Frequencies --   1272.5732              1279.3363              1305.1109
 Red. masses --      1.3304                 1.4590                 1.6508
 Frc consts  --      1.2694                 1.4070                 1.6567
 IR Inten    --      4.0979                29.2828                31.4362

                     67                     68                     69
                      A                      A                      A
 Frequencies --   1320.0995              1335.2067              1358.0011
 Red. masses --      1.4728                 1.2347                 1.4345
 Frc consts  --      1.5122                 1.2969                 1.5586
 IR Inten    --     73.3594                 2.3257                22.8423

                     70                     71                     72
                      A                      A                      A
 Frequencies --   1366.1164              1371.2710              1392.2394
 Red. masses --      1.3178                 1.3466                 1.4518
 Frc consts  --      1.4490                 1.4918                 1.6580
 IR Inten    --      1.7541                 1.3124                32.6256

                     73                     74                     75
                      A                      A                      A
 Frequencies --   1399.4278              1408.6206              1427.9233
 Red. masses --      1.4271                 1.4685                 1.2613
 Frc consts  --      1.6466                 1.7168                 1.5152
 IR Inten    --      5.4312                17.3353                 2.9762

                     76                     77                     78
                      A                      A                      A
 Frequencies --   1437.3736              1441.8090              1452.5829
 Red. masses --      1.2971                 1.5281                 1.3157
 Frc consts  --      1.5790                 1.8716                 1.6356
 IR Inten    --     29.2896                64.1744                25.7412

                     79                     80                     81
                      A                      A                      A
 Frequencies --   1468.2717              1492.4096              1494.9975
 Red. masses --      1.1815                 1.0873                 1.1051
 Frc consts  --      1.5008                 1.4268                 1.4553
 IR Inten    --      2.0546                14.2706                 4.7226

                     82                     83                     84
                      A                      A                      A
 Frequencies --   1502.2736              1508.0605              1511.9081
 Red. masses --      1.1072                 1.0742                 1.1296
 Frc consts  --      1.4722                 1.4394                 1.5213
 IR Inten    --      6.4409                 4.0399                16.9913

                     85                     86                     87
                      A                      A                      A
 Frequencies --   1518.1292              1520.0396              1526.2065
 Red. masses --      1.0577                 1.3953                 1.0723
 Frc consts  --      1.4362                 1.8995                 1.4716
 IR Inten    --     10.0615                 7.2927                 7.9850

                     88                     89                     90
                      A                      A                      A
 Frequencies --   1529.8346              1531.8168              1535.2173
 Red. masses --      1.0529                 1.1716                 1.0532
 Frc consts  --      1.4519                 1.6198                 1.4625
 IR Inten    --      6.6930                33.2303                 4.4310

                     91                     92                     93
                      A                      A                      A
 Frequencies --   1543.0116              1547.7999              1725.1825
 Red. masses --      1.0575                 1.0499                 4.5374
 Frc consts  --      1.4834                 1.4820                 7.9566
 IR Inten    --     18.4800                 1.7668                15.2009

                     94                     95                     96
                      A                      A                      A
 Frequencies --   1763.5878              1810.1665              3029.6507
 Red. masses --      6.6275                10.5886                 1.0706
 Frc consts  --     12.1449                20.4421                 5.7896
 IR Inten    --    214.1611               116.8464                33.0227

                     97                     98                     99
                      A                      A                      A
 Frequencies --   3032.4662              3039.5011              3041.2672
 Red. masses --      1.0665                 1.0364                 1.0676
 Frc consts  --      5.7783                 5.6415                 5.8177
 IR Inten    --      8.7388                19.4938                17.9323

                    100                    101                    102
                      A                      A                      A
 Frequencies --   3048.0269              3050.2194              3057.8867
 Red. masses --      1.0391                 1.0403                 1.0599
 Frc consts  --      5.6879                 5.7025                 5.8393
 IR Inten    --     46.2577                16.3781                11.0336

                    103                    104                    105
                      A                      A                      A
 Frequencies --   3062.8596              3079.4229              3089.5245
 Red. masses --      1.0593                 1.0648                 1.0936
 Frc consts  --      5.8552                 5.9493                 6.1505
 IR Inten    --     26.3669                21.6070                25.0458

                    106                    107                    108
                      A                      A                      A
 Frequencies --   3099.2552              3101.7419              3103.6736
 Red. masses --      1.0986                 1.1004                 1.0998
 Frc consts  --      6.2175                 6.2377                 6.2421
 IR Inten    --      0.8470                13.0631                32.1550

                    109                    110                    111
                      A                      A                      A
 Frequencies --   3108.3641              3111.0351              3116.2066
 Red. masses --      1.1002                 1.1029                 1.1014
 Frc consts  --      6.2632                 6.2890                 6.3014
 IR Inten    --     91.4600                24.7433                37.3118

                    112                    113                    114
                      A                      A                      A
 Frequencies --   3117.6322              3124.4937              3134.0165
 Red. masses --      1.1015                 1.0936                 1.0998
 Frc consts  --      6.3080                 6.2902                 6.3643
 IR Inten    --     12.1412                17.6991                22.9312

                    115                    116                    117
                      A                      A                      A
 Frequencies --   3137.9866              3138.7526              3150.9703
 Red. masses --      1.0970                 1.0988                 1.0607
 Frc consts  --      6.3642                 6.3781                 6.2049
 IR Inten    --      4.2472                54.4778                11.9328

                    118                    119                    120
                      A                      A                      A
 Frequencies --   3182.4738              3240.6532              3537.1120
 Red. masses --      1.0902                 1.1146                 1.0763
 Frc consts  --      6.5057                 6.8966                 7.9334
 IR Inten    --      1.7932                10.9837               127.2904

 - Thermochemistry -
 -------------------
 Temperature   298.150 Kelvin.  Pressure   1.00000 Atm.
 Atom     1 has atomic number  6 and mass  12.00000

 Molecular mass:   239.18853 amu.
 Principal axes and moments of inertia in atomic units:
                           1         2         3
     Eigenvalues --  2474.041166332.703727156.99379
           X            0.99995   0.00677   0.00754
           Y           -0.00657   0.99962  -0.02680
           Z           -0.00772   0.02675   0.99961
 This molecule is an asymmetric top.
 Rotational symmetry number  1.
 Warning -- assumption of classical behavior for rotation
           may cause significant error
 Rotational temperatures (Kelvin)      0.03501     0.01368     0.01210
 Rotational constants (GHZ):           0.72947     0.28499     0.25216
 Zero-point vibrational energy     987225.0 (Joules/Mol)
                                  235.95244 (Kcal/Mol)
 Warning -- explicit consideration of  31 degrees of freedom as
           vibrations may cause significant error
 Vibrational temperatures:     12.99    45.79    73.74    83.03   111.28
          (Kelvin)            134.32   144.70   158.89   197.25   218.29
                              234.20   279.49   331.50   343.57   352.12
                              371.02   412.76   449.58   482.91   494.37
                              518.04   530.83   565.04   605.52   610.78
                              662.47   688.34   747.10   788.88   816.45
                              863.75   911.27  1009.06  1036.91  1066.75
                             1092.67  1144.70  1166.63  1229.32  1278.26
                             1283.59  1334.14  1346.20  1368.69  1369.96
                             1375.78  1410.56  1442.83  1471.30  1474.48
                             1479.87  1489.09  1547.51  1562.69  1587.15
                             1616.03  1655.59  1685.01  1706.31  1725.94
                             1760.62  1805.58  1815.39  1830.95  1840.68
                             1877.76  1899.33  1921.06  1953.86  1965.54
                             1972.95  2003.12  2013.46  2026.69  2054.46
                             2068.06  2074.44  2089.94  2112.52  2147.24
                             2150.97  2161.44  2169.76  2175.30  2184.25
                             2187.00  2195.87  2201.09  2203.94  2208.84
                             2220.05  2226.94  2482.15  2537.41  2604.43
                             4358.99  4363.04  4373.16  4375.71  4385.43
                             4388.59  4399.62  4406.77  4430.60  4445.14
                             4459.14  4462.71  4465.49  4472.24  4476.09
                             4483.53  4485.58  4495.45  4509.15  4514.86
                             4515.96  4533.54  4578.87  4662.58  5089.12

 Zero-point correction=                           0.376014 (Hartree/Particle)
 Thermal correction to Energy=                    0.395890
 Thermal correction to Enthalpy=                  0.396834
 Thermal correction to Gibbs Free Energy=         0.326267
 Sum of electronic and zero-point Energies=           -753.445461
 Sum of electronic and thermal Energies=              -753.425585
 Sum of electronic and thermal Enthalpies=            -753.424641
 Sum of electronic and thermal Free Energies=         -753.495208

                     E (Thermal)             CV                S
                      KCal/Mol        Cal/Mol-Kelvin    Cal/Mol-Kelvin
 Total                  248.425             74.135            148.522
 Electronic               0.000              0.000              0.000
 Translational            0.889              2.981             42.318
 Rotational               0.889              2.981             33.083
 Vibrational            246.647             68.174             73.121
 Vibration     1          0.593              1.987              8.214
 Vibration     2          0.594              1.983              5.712
 Vibration     3          0.596              1.977              4.768
 Vibration     4          0.596              1.974              4.534
 Vibration     5          0.599              1.964              3.957
 Vibration     6          0.602              1.954              3.588
 Vibration     7          0.604              1.949              3.443
 Vibration     8          0.606              1.941              3.261
 Vibration     9          0.614              1.916              2.844
 Vibration    10          0.619              1.901              2.651
 Vibration    11          0.623              1.888              2.517
 Vibration    12          0.635              1.848              2.187
 Vibration    13          0.652              1.795              1.876
 Vibration    14          0.657              1.781              1.812
 Vibration    15          0.660              1.771              1.768
 Vibration    16          0.667              1.749              1.676
 Vibration    17          0.684              1.698              1.492
 Vibration    18          0.701              1.650              1.349
 Vibration    19          0.717              1.604              1.233
 Vibration    20          0.722              1.588              1.195
 Vibration    21          0.735              1.555              1.122
 Vibration    22          0.741              1.536              1.084
 Vibration    23          0.760              1.486              0.990
 Vibration    24          0.783              1.425              0.889
 Vibration    25          0.787              1.417              0.877
 Vibration    26          0.818              1.338              0.765
 Vibration    27          0.835              1.298              0.714
 Vibration    28          0.874              1.207              0.612
 Vibration    29          0.904              1.143              0.548
 Vibration    30          0.923              1.102              0.509
 Vibration    31          0.958              1.031              0.449

 Optimization completed.
    -- Stationary point found.
 Normal termination of Gaussian 16 at Sun Dec 13 13:38:51 2020.

 ----------------------------------------------------------------------
 # B3LYP/6-311++G(d,p) empiricaldispersion=gd3bj scf=xqc pop=npa geom=c
 heck
 ----------------------------------------------------------------------

 ---------------------------------------
 CID_123970897_JID_7855_Energie_neutraal
 ---------------------------------------
 Structure from the checkpoint file:  "JID_7855.chk"
 Charge =  0 Multiplicity = 1

 SCF Done:  E(RB3LYP) =  -754.039362995     A.U. after   15 cycles
 Normal termination of Gaussian 16 at Sun Dec 13 13:48:31 2020.

 ----------------------------------------------------------------------
 # B3LYP/6-311++G(d,p) empiricaldispersion=gd3bj scf=xqc pop=npa geom=c
 heck
 ----------------------------------------------------------------------

 -------------------------------------
 CID_123970897_JID_7855_Energie_kation
 -------------------------------------
 Structure from the checkpoint file:  "JID_7855.chk"
 Charge =  1 Multiplicity = 2

 SCF Done:  E(UB3LYP) =  -753.725365518     A.U. after   32 cycles
 Normal termination of Gaussian 16 at Sun Dec 13 14:16:51 2020.
 Gaussian 16:  ES64L-G16RevA.03 25-Dec-2016

 ----------------------------------------------------------------------
 # B3LYP/6-311++G(d,p) empiricaldispersion=gd3bj scf=xqc pop=npa geom=c
 heck
 ----------------------------------------------------------------------

 ------------------------------------
 CID_123970897_JID_7855_Energie_anion
 ------------------------------------
 Structure from the checkpoint file:  "JID_7855.chk"
 Charge = -1 Multiplicity = 2

                         Standard orientation:
 ---------------------------------------------------------------------
 Center     Atomic      Atomic             Coordinates (Angstroms)
 Number     Number       Type             X           Y           Z
 ---------------------------------------------------------------------
      1          6           0       -3.969263    1.756990    0.075792
      2          6           0       -3.221665    0.870912   -0.923052
      3          6           0       -2.635789   -0.449065   -0.361542
      4          6           0       -3.778826   -1.420726   -0.013567
      5          6           0       -1.753784   -1.089692   -1.445222
      6          6           0       -1.805187   -0.242300    0.932761
      7          6           0       -0.593824    0.668261    0.803571
      8          8           0       -0.647073    1.762317    0.245310
      9          7           0        0.577052    0.278474    1.407412
     10          6           0        0.979028   -1.036294    1.882227
     11          6           0        1.307083   -2.040833    0.753728
     12          6           0        2.106408   -1.406194   -0.377444
     13          8           0        1.679986   -1.391877   -1.516782
     14          6           0        3.461281   -0.788658   -0.044788
     15          6           0        3.763391    0.466103   -0.889296
     16          6           0        2.750807    1.555159   -0.655874
     17          6           0        2.966144    2.661326    0.059992
     18          1           0       -4.761331    1.216866    0.608016
     19          1           0       -4.441445    2.598202   -0.443866
     20          1           0       -3.277550    2.177570    0.811882
     21          1           0       -3.897313    0.595537   -1.745284
     22          1           0       -2.408658    1.456112   -1.358824
     23          1           0       -4.394485   -1.620330   -0.898231
     24          1           0       -3.386165   -2.380933    0.343329
     25          1           0       -4.433782   -1.018761    0.767336
     26          1           0       -0.883057   -0.470472   -1.679048
     27          1           0       -1.386206   -2.074892   -1.134474
     28          1           0       -2.326057   -1.228956   -2.369978
     29          1           0       -2.444270    0.207042    1.703764
     30          1           0       -1.516393   -1.226600    1.313883
     31          1           0        1.323914    0.947360    1.241900
     32          1           0        1.857591   -0.883010    2.515902
     33          1           0        0.205785   -1.458722    2.530020
     34          1           0        1.875783   -2.879270    1.180963
     35          1           0        0.390517   -2.440549    0.313279
     36          1           0        3.531000   -0.555131    1.023392
     37          1           0        4.217640   -1.562884   -0.242123
     38          1           0        4.769820    0.822932   -0.642910
     39          1           0        3.757057    0.174975   -1.945284
     40          1           0        1.760676    1.393337   -1.078303
     41          1           0        2.174042    3.388412    0.215106
     42          1           0        3.935402    2.879401    0.505717
 ---------------------------------------------------------------------

 SCF Done:  E(UB3LYP) =  -754.036275922     A.U. after   30 cycles

 The electronic state is 2-A.
 Alpha  occ. eigenvalues --  -18.98519 -18.98308 -14.23057 -10.17309 -10.12599
 Alpha  occ. eigenvalues --  -10.11044 -10.09405 -10.08050 -10.07548 -10.07157
 Alpha  occ. eigenvalues --  -10.07096 -10.06793 -10.06752 -10.06730 -10.06591
 Alpha  occ. eigenvalues --  -10.06502 -10.05566  -0.93720  -0.92022  -0.81965
 Alpha  occ. eigenvalues --   -0.73798  -0.70610  -0.67032  -0.65051  -0.63589
 Alpha  occ. eigenvalues --   -0.62176  -0.59371  -0.56704  -0.53742  -0.53153
 Alpha  occ. eigenvalues --   -0.48752  -0.45883  -0.43163  -0.41556  -0.39822
 Alpha  occ. eigenvalues --   -0.39142  -0.37872  -0.37645  -0.36115  -0.36060
 Alpha  occ. eigenvalues --   -0.34591  -0.34087  -0.33894  -0.33016  -0.32601
 Alpha  occ. eigenvalues --   -0.31018  -0.30575  -0.29682  -0.29419  -0.29071
 Alpha  occ. eigenvalues --   -0.27939  -0.27866  -0.27049  -0.26199  -0.25670
 Alpha  occ. eigenvalues --   -0.25570  -0.25102  -0.24269  -0.23216  -0.22881
 Alpha  occ. eigenvalues --   -0.22413  -0.22216  -0.17021  -0.15547  -0.15341
 Alpha  occ. eigenvalues --   -0.12973   0.04074
 Alpha virt. eigenvalues --    0.06266   0.07263   0.07630   0.08090   0.08395
 Alpha virt. eigenvalues --    0.08923   0.09141   0.09667   0.09870   0.10223
 Alpha virt. eigenvalues --    0.10821   0.11064   0.11293   0.11500   0.11712

  Beta  occ. eigenvalues --  -18.98513 -18.98116 -14.23054 -10.17306 -10.12367
  Beta  occ. eigenvalues --  -10.10990 -10.09403 -10.08037 -10.07545 -10.07144
  Beta  occ. eigenvalues --  -10.07087 -10.06791 -10.06750 -10.06724 -10.06572
  Beta  occ. eigenvalues --  -10.06503 -10.05563  -0.93708  -0.91632  -0.81945
  Beta  occ. eigenvalues --   -0.73790  -0.70551  -0.66884  -0.65039  -0.63523
  Beta  occ. eigenvalues --   -0.62154  -0.59358  -0.56519  -0.53692  -0.53129
  Beta  occ. eigenvalues --   -0.48704  -0.45803  -0.43118  -0.41324  -0.39795
  Beta  occ. eigenvalues --   -0.39019  -0.37844  -0.37607  -0.36083  -0.35817
  Beta  occ. eigenvalues --   -0.34531  -0.34016  -0.33737  -0.32980  -0.32540
  Beta  occ. eigenvalues --   -0.30995  -0.30507  -0.29662  -0.29287  -0.28996
  Beta  occ. eigenvalues --   -0.27901  -0.27818  -0.26997  -0.26153  -0.25632
  Beta  occ. eigenvalues --   -0.25477  -0.24787  -0.24183  -0.23199  -0.22684
  Beta  occ. eigenvalues --   -0.22208  -0.22008  -0.16948  -0.15513  -0.15315
  Beta  occ. eigenvalues --   -0.12812
  Beta virt. eigenvalues --    0.06229   0.07166   0.07752   0.07927   0.08404
  Beta virt. eigenvalues --    0.08700   0.09420   0.09815   0.10014   0.10399
  Beta virt. eigenvalues --    0.10654   0.10853   0.11100   0.11444   0.11780

 Mulliken charges and spin densities:
               1          2
     1  C   -0.556652  -0.091468
     2  C   -0.445945   0.081931
     3  C    0.230381   0.593525
     4  C   -0.254580  -0.258175
     5  C   -0.291271  -0.344493
     6  C    0.455929  -0.577672
     7  C   -0.946950   0.163059
     8  O   -0.283616   0.008192
     9  N   -0.099890   0.105634
    10  C    1.521667  -1.950211
    11  C   -0.218347   0.073596
    12  C   -0.496528   0.597573
    13  O   -0.219232   0.059264
    14  C    0.550195  -0.709235
    15  C    0.138933  -0.834755
    16  C   -0.216823   0.569105
    17  C   -0.300652  -0.321646
    18  H    0.115905   0.010244
    19  H    0.112015   0.007707
    20  H    0.151041   0.027118
    21  H    0.088500   0.021423
    22  H    0.202518  -0.006410
    23  H    0.096550   0.042416
    24  H   -0.062379   0.204096
    25  H    0.053356   0.063179
    26  H    0.202171   0.018967
    27  H    0.149661  -0.003948
    28  H    0.168940  -0.024918
    29  H    0.125307   0.083309
    30  H    0.356100  -0.208767
    31  H    0.330050   0.057949
    32  H   -0.329787   0.504711
    33  H   -0.601095   0.794525
    34  H   -0.778012   1.012043
    35  H   -0.053980   0.191986
    36  H    0.199999  -0.079345
    37  H   -0.475799   0.702699
    38  H   -0.152889   0.313514
    39  H    0.190515  -0.017195
    40  H    0.176800   0.037559
    41  H    0.133674  -0.009633
    42  H    0.034222   0.092545
 Sum of Mulliken charges =  -1.00000   1.00000

 Dipole moment (field-independent basis, Debye):
    X=             -6.3049    Y=              4.7149    Z=             -1.9724  Tot=              8.1162
 Quadrupole moment (field-independent basis, Debye-Ang):
   XX=           -168.7910   YY=           -155.7768   ZZ=           -145.7611
   XY=             13.7227   XZ=              0.6343   YZ=             10.5587

 Summary of Natural Population Analysis:

                                       Natural Population
                Natural  -----------------------------------------------
    Atom  No    Charge         Core      Valence    Rydberg      Total
 -----------------------------------------------------------------------
      C    1   -0.28915      0.99966     2.28463    0.00486     3.28915
      C    2   -0.19064      0.99959     2.18254    0.00850     3.19064
      C    3   -0.03847      0.99958     2.02905    0.00984     3.03847
      C    4   -0.28516      0.99963     2.27835    0.00718     3.28516
      C    5   -0.28565      0.99962     2.27970    0.00633     3.28565
      C    6   -0.23576      0.99954     2.22630    0.00992     3.23576
      C    7    0.34960      0.99966     1.62725    0.02349     2.65040
      O    8   -0.33362      0.99988     3.32843    0.00531     4.33362
      N    9   -0.32472      0.99967     2.81553    0.00951     3.82472
      C   10   -0.08870      0.99961     2.07621    0.01288     3.08870
      C   11   -0.24110      0.99958     2.23175    0.00978     3.24110
      C   12    0.31884      0.99966     1.65987    0.02163     2.68116
      O   13   -0.28180      0.99987     3.27565    0.00628     4.28180
      C   14   -0.23359      0.99958     2.22481    0.00921     3.23359
      C   15   -0.20931      0.99961     2.19844    0.01126     3.20931
      C   16   -0.08472      0.99956     2.07498    0.01017     3.08472
      C   17   -0.20382      0.99956     2.19776    0.00650     3.20382
      H   18    0.09075      0.00000     0.40826    0.00099     0.40925
      H   19    0.09602      0.00000     0.40307    0.00092     0.40398
      H   20    0.10413      0.00000     0.39477    0.00110     0.39587
      H   21    0.08928      0.00000     0.40967    0.00105     0.41072
      H   22    0.11218      0.00000     0.38676    0.00106     0.38782
      H   23    0.09728      0.00000     0.40200    0.00072     0.40272
      H   24    0.10059      0.00000     0.39864    0.00077     0.39941
      H   25    0.09698      0.00000     0.40225    0.00077     0.40302
      H   26    0.11271      0.00000     0.38649    0.00080     0.38729
      H   27    0.10068      0.00000     0.39848    0.00084     0.39932
      H   28    0.09516      0.00000     0.40412    0.00072     0.40484
      H   29    0.11208      0.00000     0.38700    0.00092     0.38792
      H   30    0.10670      0.00000     0.39173    0.00158     0.39330
      H   31    0.20384      0.00000     0.29363    0.00253     0.29616
      H   32    0.10083      0.00000     0.39774    0.00143     0.39917
      H   33    0.10320      0.00000     0.39410    0.00270     0.39680
      H   34    0.11641      0.00000     0.37788    0.00571     0.38359
      H   35    0.10403      0.00000     0.39453    0.00144     0.39597
      H   36    0.09687      0.00000     0.40153    0.00160     0.40313
      H   37    0.11978      0.00000     0.37653    0.00369     0.38022
      H   38    0.09757      0.00000     0.40127    0.00117     0.40243
      H   39    0.11005      0.00000     0.38893    0.00102     0.38995
      H   40    0.10576      0.00000     0.39244    0.00180     0.39424
      H   41    0.09778      0.00000     0.40122    0.00100     0.40222
      H   42    0.08714      0.00000     0.41180    0.00107     0.41286
 =======================================================================
   * Total *   -0.00000     16.99387    48.79606    0.21007    66.00000

 Normal termination of Gaussian 16 at Sun Dec 13 14:42:34 2020.
