 Gaussian 16, Revision A.03,

 -----------------------------------------------------------
 # opt freq B3LYP/6-31G(d) empiricaldispersion=gd3bj scf=xqc
 -----------------------------------------------------------

 -------------------------------
 CID_123794142_JID_3592_neutraal
 -------------------------------
 Symbolic Z-matrix:
 Charge =  0 Multiplicity = 1

 SCF Done:  E(RB3LYP) =  -511.092023389     A.U. after   12 cycles
 SCF Done:  E(RB3LYP) =  -511.098679740     A.U. after   10 cycles
 SCF Done:  E(RB3LYP) =  -511.098918653     A.U. after    9 cycles
 SCF Done:  E(RB3LYP) =  -511.098968945     A.U. after    9 cycles
 SCF Done:  E(RB3LYP) =  -511.099030282     A.U. after    9 cycles
 SCF Done:  E(RB3LYP) =  -511.099034064     A.U. after    8 cycles
 SCF Done:  E(RB3LYP) =  -511.099036485     A.U. after    8 cycles
 SCF Done:  E(RB3LYP) =  -511.099036844     A.U. after    7 cycles
 SCF Done:  E(RB3LYP) =  -511.099036939     A.U. after    6 cycles
 Optimization completed.
    -- Stationary point found.
 Normal termination of Gaussian 16 at Wed Dec  9 23:20:46 2020.

 --------------------------------------------------------------------
 #N Geom=AllCheck Guess=TCheck SCRF=Check GenChk RB3LYP/6-31G(d) Freq
 --------------------------------------------------------------------

 Structure from the checkpoint file:  "JID_3592.chk"
 -------------------------------
 CID_123794142_JID_3592_neutraal
 -------------------------------
 Charge =  0 Multiplicity = 1

 SCF Done:  E(RB3LYP) =  -511.099036939     A.U. after    1 cycles

  Exact polarizability: 154.906   0.808 134.792  -0.976   0.325 115.794
 Approx polarizability: 184.655   0.011 181.297   0.062   0.244 180.752

                      1                      2                      3
                      A                      A                      A
 Frequencies --     23.5230                46.2310                55.1794
 Red. masses --      3.0840                 3.1256                 2.7048
 Frc consts  --      0.0010                 0.0039                 0.0049
 IR Inten    --      0.0030                 0.0050                 0.0028

                      4                      5                      6
                      A                      A                      A
 Frequencies --     78.7307                92.5900               100.0797
 Red. masses --      2.0576                 2.1492                 2.6831
 Frc consts  --      0.0075                 0.0109                 0.0158
 IR Inten    --      0.0020                 0.0051                 0.0130

                      7                      8                      9
                      A                      A                      A
 Frequencies --    144.8945               163.9434               201.1081
 Red. masses --      1.7724                 2.3764                 1.6493
 Frc consts  --      0.0219                 0.0376                 0.0393
 IR Inten    --      0.0607                 0.0140                 0.0165

                     10                     11                     12
                      A                      A                      A
 Frequencies --    220.3899               226.0532               243.8088
 Red. masses --      1.3971                 1.4879                 2.3708
 Frc consts  --      0.0400                 0.0448                 0.0830
 IR Inten    --      0.0261                 0.0503                 0.1073

                     13                     14                     15
                      A                      A                      A
 Frequencies --    268.2068               290.4546               304.0368
 Red. masses --      1.4817                 1.8958                 1.8964
 Frc consts  --      0.0628                 0.0942                 0.1033
 IR Inten    --      0.2345                 0.0717                 0.0502

                     16                     17                     18
                      A                      A                      A
 Frequencies --    339.7563               362.9111               401.6511
 Red. masses --      2.4387                 2.4546                 2.0529
 Frc consts  --      0.1659                 0.1905                 0.1951
 IR Inten    --      0.0985                 0.2687                 0.1966

                     19                     20                     21
                      A                      A                      A
 Frequencies --    418.9172               454.9461               482.8016
 Red. masses --      1.8986                 2.4765                 2.1601
 Frc consts  --      0.1963                 0.3020                 0.2967
 IR Inten    --      0.1370                 0.3772                 0.6543

                     22                     23                     24
                      A                      A                      A
 Frequencies --    558.3986               633.3042               746.6547
 Red. masses --      2.6337                 2.1611                 1.4407
 Frc consts  --      0.4838                 0.5107                 0.4732
 IR Inten    --      0.5283                 0.2433                 6.5459

                     25                     26                     27
                      A                      A                      A
 Frequencies --    771.2056               786.1437               806.5384
 Red. masses --      1.4186                 1.2224                 1.7179
 Frc consts  --      0.4971                 0.4451                 0.6584
 IR Inten    --      3.2312                 1.8552                 0.2356

                     28                     29                     30
                      A                      A                      A
 Frequencies --    821.8169               832.4852               867.3213
 Red. masses --      1.4264                 1.5134                 2.0784
 Frc consts  --      0.5676                 0.6179                 0.9211
 IR Inten    --      2.9250                 1.9996                 2.1450

                     31                     32                     33
                      A                      A                      A
 Frequencies --    884.0851               912.8530               924.1711
 Red. masses --      1.5228                 1.9838                 2.1032
 Frc consts  --      0.7013                 0.9740                 1.0584
 IR Inten    --      0.1909                 2.4958                 2.8236

                     34                     35                     36
                      A                      A                      A
 Frequencies --    954.1977               969.2603               983.6702
 Red. masses --      2.1253                 1.7864                 1.8090
 Frc consts  --      1.1401                 0.9888                 1.0313
 IR Inten    --      0.0066                 0.1277                 1.3142

                     37                     38                     39
                      A                      A                      A
 Frequencies --   1028.4281              1032.3899              1041.4014
 Red. masses --      1.7549                 1.9958                 1.5222
 Frc consts  --      1.0936                 1.2533                 0.9726
 IR Inten    --      0.4221                 1.2889                 0.5244

                     40                     41                     42
                      A                      A                      A
 Frequencies --   1044.5864              1055.3627              1057.0597
 Red. masses --      1.4624                 1.3266                 2.4415
 Frc consts  --      0.9401                 0.8706                 1.6074
 IR Inten    --      1.3540                 0.9219                 0.1057

                     43                     44                     45
                      A                      A                      A
 Frequencies --   1069.2612              1096.4784              1102.1472
 Red. masses --      1.6739                 1.4786                 2.1457
 Frc consts  --      1.1276                 1.0474                 1.5357
 IR Inten    --      1.0203                 0.0390                 0.6446

                     46                     47                     48
                      A                      A                      A
 Frequencies --   1131.3987              1144.6009              1155.4056
 Red. masses --      2.1735                 2.3247                 1.9314
 Frc consts  --      1.6392                 1.7944                 1.5191
 IR Inten    --      1.3245                 0.7582                 0.2695

                     49                     50                     51
                      A                      A                      A
 Frequencies --   1188.0690              1197.4709              1228.5821
 Red. masses --      2.0416                 1.8003                 1.9117
 Frc consts  --      1.6978                 1.5210                 1.7001
 IR Inten    --      1.2512                 0.2887                 0.0311

                     52                     53                     54
                      A                      A                      A
 Frequencies --   1244.6572              1269.0601              1277.5275
 Red. masses --      1.3760                 1.2670                 1.3495
 Frc consts  --      1.2559                 1.2023                 1.2976
 IR Inten    --      0.3952                 0.3463                 0.0878

                     55                     56                     57
                      A                      A                      A
 Frequencies --   1284.4323              1290.8063              1306.4314
 Red. masses --      1.3442                 1.2497                 1.3121
 Frc consts  --      1.3066                 1.2268                 1.3195
 IR Inten    --      0.0679                 0.2078                 1.9686

                     58                     59                     60
                      A                      A                      A
 Frequencies --   1312.0989              1319.7339              1326.5124
 Red. masses --      1.3259                 1.1509                 1.3836
 Frc consts  --      1.3449                 1.1811                 1.4345
 IR Inten    --      0.4405                 1.0830                 0.3744

                     61                     62                     63
                      A                      A                      A
 Frequencies --   1344.3457              1360.3365              1364.8431
 Red. masses --      1.1657                 1.2360                 1.3856
 Frc consts  --      1.2413                 1.3476                 1.5207
 IR Inten    --      3.0615                11.7113                 9.2325

                     64                     65                     66
                      A                      A                      A
 Frequencies --   1390.2420              1397.2653              1409.9675
 Red. masses --      1.4507                 1.3702                 1.4489
 Frc consts  --      1.6519                 1.5761                 1.6971
 IR Inten    --      5.2498                 2.7231                 3.6040

                     67                     68                     69
                      A                      A                      A
 Frequencies --   1412.8118              1416.6749              1432.3555
 Red. masses --      1.4382                 1.4786                 1.5167
 Frc consts  --      1.6914                 1.7484                 1.8333
 IR Inten    --      0.4145                 2.0454                 2.1134

                     70                     71                     72
                      A                      A                      A
 Frequencies --   1442.2918              1443.1547              1444.6252
 Red. masses --      1.2696                 1.2962                 1.2565
 Frc consts  --      1.5561                 1.5905                 1.5450
 IR Inten    --      8.7818                 0.9370                 8.8732

                     73                     74                     75
                      A                      A                      A
 Frequencies --   1503.1793              1509.6607              1517.5999
 Red. masses --      1.0893                 1.0757                 1.0733
 Frc consts  --      1.4501                 1.4445                 1.4564
 IR Inten    --      1.0388                 0.8886                 1.3446

                     76                     77                     78
                      A                      A                      A
 Frequencies --   1520.2206              1520.6872              1522.5283
 Red. masses --      1.0937                 1.0647                 1.0650
 Frc consts  --      1.4893                 1.4507                 1.4546
 IR Inten    --      2.7772                 1.6605                 0.7516

                     79                     80                     81
                      A                      A                      A
 Frequencies --   1528.3114              1530.6582              1533.9725
 Red. masses --      1.0971                 1.0448                 1.0624
 Frc consts  --      1.5098                 1.4423                 1.4729
 IR Inten    --      1.9941                 5.8212                13.1077

                     82                     83                     84
                      A                      A                      A
 Frequencies --   1534.6155              1538.1839              1541.1599
 Red. masses --      1.0504                 1.0607                 1.0663
 Frc consts  --      1.4575                 1.4787                 1.4922
 IR Inten    --      0.4405                 5.6091                 4.0061

                     85                     86                     87
                      A                      A                      A
 Frequencies --   1543.0276              2986.2749              3016.1407
 Red. masses --      1.0753                 1.0815                 1.0615
 Frc consts  --      1.5085                 5.6826                 5.6894
 IR Inten    --      2.8904                16.2431                14.3940

                     88                     89                     90
                      A                      A                      A
 Frequencies --   3023.2707              3024.6304              3030.7055
 Red. masses --      1.0617                 1.0616                 1.0850
 Frc consts  --      5.7175                 5.7223                 5.8719
 IR Inten    --     35.9814                28.7804                12.4356

                     91                     92                     93
                      A                      A                      A
 Frequencies --   3035.5181              3040.8510              3042.2378
 Red. masses --      1.0632                 1.0654                 1.0801
 Frc consts  --      5.7719                 5.8041                 5.8897
 IR Inten    --     31.9522                35.4232                 9.3689

                     94                     95                     96
                      A                      A                      A
 Frequencies --   3045.4856              3046.6993              3048.6104
 Red. masses --      1.0435                 1.0517                 1.0536
 Frc consts  --      5.7022                 5.7516                 5.7695
 IR Inten    --     13.1911                 8.4553                52.6312

                     97                     98                     99
                      A                      A                      A
 Frequencies --   3049.8306              3052.0979              3054.5076
 Red. masses --      1.0920                 1.0430                 1.0683
 Frc consts  --      5.9846                 5.7245                 5.8725
 IR Inten    --     53.2085                13.4242                 1.9077

                    100                    101                    102
                      A                      A                      A
 Frequencies --   3061.6072              3063.2640              3068.0494
 Red. masses --      1.0916                 1.0931                 1.1001
 Frc consts  --      6.0284                 6.0434                 6.1013
 IR Inten    --     23.5270               125.0497                39.7611

                    103                    104                    105
                      A                      A                      A
 Frequencies --   3080.3826              3104.8965              3106.5207
 Red. masses --      1.0968                 1.1051                 1.1025
 Frc consts  --      6.1320                 6.2767                 6.2689
 IR Inten    --     30.6554                15.6330                21.9615

                    106                    107                    108
                      A                      A                      A
 Frequencies --   3109.4437              3110.2795              3114.4702
 Red. masses --      1.1024                 1.1032                 1.1016
 Frc consts  --      6.2801                 6.2877                 6.2958
 IR Inten    --     37.4684               102.5108                52.6067

                    109                    110                    111
                      A                      A                      A
 Frequencies --   3120.4625              3120.9444              3135.0644
 Red. masses --      1.1013                 1.1021                 1.0991
 Frc consts  --      6.3182                 6.3248                 6.3648
 IR Inten    --     60.3973                55.7010                42.9102

 - Thermochemistry -
 -------------------
 Temperature   298.150 Kelvin.  Pressure   1.00000 Atm.
 Atom     1 has atomic number  6 and mass  12.00000

 Molecular mass:   182.20345 amu.
 Principal axes and moments of inertia in atomic units:
                           1         2         3
     Eigenvalues --  1489.204014975.166935858.30256
           X            0.99998   0.00463   0.00354
           Y           -0.00461   0.99996  -0.00759
           Z           -0.00358   0.00757   0.99996
 This molecule is an asymmetric top.
 Rotational symmetry number  1.
 Warning -- assumption of classical behavior for rotation
           may cause significant error
 Rotational temperatures (Kelvin)      0.05816     0.01741     0.01478
 Rotational constants (GHZ):           1.21188     0.36275     0.30807
 Zero-point vibrational energy     968802.8 (Joules/Mol)
                                  231.54944 (Kcal/Mol)
 Warning -- explicit consideration of  22 degrees of freedom as
           vibrations may cause significant error
 Vibrational temperatures:     33.84    66.52    79.39   113.28   133.22
          (Kelvin)            143.99   208.47   235.88   289.35   317.09
                              325.24   350.79   385.89   417.90   437.44
                              488.83   522.15   577.89   602.73   654.57
                              694.64   803.41   911.18  1074.27  1109.59
                             1131.09  1160.43  1182.41  1197.76  1247.88
                             1272.00  1313.39  1329.68  1372.88  1394.55
                             1415.28  1479.68  1485.38  1498.34  1502.93
                             1518.43  1520.87  1538.43  1577.59  1585.74
                             1627.83  1646.83  1662.37  1709.37  1722.89
                             1767.66  1790.78  1825.89  1838.08  1848.01
                             1857.18  1879.66  1887.82  1898.80  1908.56
                             1934.21  1957.22  1963.70  2000.25  2010.35
                             2028.63  2032.72  2038.28  2060.84  2075.14
                             2076.38  2078.49  2162.74  2172.07  2183.49
                             2187.26  2187.93  2190.58  2198.90  2202.28
                             2207.04  2207.97  2213.10  2217.39  2220.07
                             4296.58  4339.55  4349.81  4351.77  4360.51
                             4367.43  4375.11  4377.10  4381.77  4383.52
                             4386.27  4388.03  4391.29  4394.76  4404.97
                             4407.35  4414.24  4431.98  4467.25  4469.59
                             4473.80  4475.00  4481.03  4489.65  4490.34
                             4510.66

 Zero-point correction=                           0.368998 (Hartree/Particle)
 Thermal correction to Energy=                    0.384931
 Thermal correction to Enthalpy=                  0.385875
 Thermal correction to Gibbs Free Energy=         0.324910
 Sum of electronic and zero-point Energies=           -510.730039
 Sum of electronic and thermal Energies=              -510.714106
 Sum of electronic and thermal Enthalpies=            -510.713162
 Sum of electronic and thermal Free Energies=         -510.774127

                     E (Thermal)             CV                S
                      KCal/Mol        Cal/Mol-Kelvin    Cal/Mol-Kelvin
 Total                  241.548             59.585            128.312
 Electronic               0.000              0.000              0.000
 Translational            0.889              2.981             41.506
 Rotational               0.889              2.981             32.140
 Vibrational            239.770             53.624             54.665
 Vibration     1          0.593              1.985              6.312
 Vibration     2          0.595              1.979              4.972
 Vibration     3          0.596              1.976              4.623
 Vibration     4          0.600              1.963              3.922
 Vibration     5          0.602              1.954              3.605
 Vibration     6          0.604              1.949              3.453
 Vibration     7          0.616              1.908              2.738
 Vibration     8          0.623              1.887              2.504
 Vibration     9          0.638              1.838              2.123
 Vibration    10          0.647              1.810              1.956
 Vibration    11          0.650              1.801              1.910
 Vibration    12          0.659              1.773              1.775
 Vibration    13          0.673              1.732              1.608
 Vibration    14          0.686              1.691              1.471
 Vibration    15          0.695              1.666              1.395
 Vibration    16          0.720              1.596              1.213
 Vibration    17          0.737              1.549              1.110
 Vibration    18          0.767              1.467              0.957
 Vibration    19          0.782              1.429              0.896
 Vibration    20          0.813              1.350              0.781
 Vibration    21          0.839              1.288              0.703
 Vibration    22          0.914              1.121              0.527

                           ! Non-Optimized Parameters !
 Normal termination of Gaussian 16 at Wed Dec  9 23:33:15 2020.

 ----------------------------------------------------------------------
 # B3LYP/6-311++G(d,p) empiricaldispersion=gd3bj scf=xqc pop=npa geom=c
 heck
 ----------------------------------------------------------------------

 ---------------------------------------
 CID_123794142_JID_3592_Energie_neutraal
 ---------------------------------------
 Structure from the checkpoint file:  "JID_3592.chk"
 Charge =  0 Multiplicity = 1

 SCF Done:  E(RB3LYP) =  -511.237996712     A.U. after   13 cycles
 Normal termination of Gaussian 16 at Wed Dec  9 23:39:32 2020.

 ----------------------------------------------------------------------
 # B3LYP/6-311++G(d,p) empiricaldispersion=gd3bj scf=xqc pop=npa geom=c
 heck
 ----------------------------------------------------------------------

 -------------------------------------
 CID_123794142_JID_3592_Energie_kation
 -------------------------------------
 Structure from the checkpoint file:  "JID_3592.chk"
 Charge =  1 Multiplicity = 2

 SCF Done:  E(UB3LYP) =  -510.899729626     A.U. after   21 cycles
 Normal termination of Gaussian 16 at Wed Dec  9 23:53:40 2020.
 Gaussian 16:  ES64L-G16RevA.03 25-Dec-2016

 ----------------------------------------------------------------------
 # B3LYP/6-311++G(d,p) empiricaldispersion=gd3bj scf=xqc pop=npa geom=c
 heck
 ----------------------------------------------------------------------

 ------------------------------------
 CID_123794142_JID_3592_Energie_anion
 ------------------------------------
 Structure from the checkpoint file:  "JID_3592.chk"
 Charge = -1 Multiplicity = 2

                         Standard orientation:
 ---------------------------------------------------------------------
 Center     Atomic      Atomic             Coordinates (Angstroms)
 Number     Number       Type             X           Y           Z
 ---------------------------------------------------------------------
      1          6           0        3.765395    1.241782    1.224351
      2          6           0        3.788391    0.795576   -0.240438
      3          6           0        3.659656   -0.723377   -0.433654
      4          6           0        2.346335   -1.352784    0.056107
      5          6           0        1.091576   -0.887205   -0.675527
      6          6           0       -0.253510   -1.565501   -0.307879
      7          6           0       -0.963335   -0.191120   -0.469087
      8          6           0        0.430969    0.475866   -0.326722
      9          6           0       -2.070482    0.235621    0.499168
     10          6           0       -2.256001    1.769305    0.492697
     11          6           0       -2.692134    2.371980   -0.847525
     12          6           0       -3.407040   -0.488780    0.250697
     13          6           0       -3.398890   -1.988576    0.562586
     14          1           0        2.808787    1.010785    1.704803
     15          1           0        3.924203    2.322556    1.310628
     16          1           0        4.553826    0.740901    1.800057
     17          1           0        2.992158    1.309092   -0.792711
     18          1           0        4.732442    1.122015   -0.696843
     19          1           0        3.779463   -0.954931   -1.501548
     20          1           0        4.498321   -1.214131    0.080596
     21          1           0        2.424999   -2.443301   -0.061003
     22          1           0        2.218068   -1.177062    1.133333
     23          1           0        1.253509   -0.951427   -1.760308
     24          1           0       -0.587876   -2.401151   -0.930967
     25          1           0       -0.256306   -1.890319    0.740146
     26          1           0       -1.316823   -0.085662   -1.502972
     27          1           0        0.628217    0.749226    0.717312
     28          1           0        0.653681    1.341803   -0.958296
     29          1           0       -1.733609   -0.033325    1.513746
     30          1           0       -2.994944    2.032294    1.261797
     31          1           0       -1.314177    2.239807    0.802539
     32          1           0       -3.653523    1.967544   -1.182338
     33          1           0       -2.803586    3.458786   -0.763914
     34          1           0       -1.956237    2.176789   -1.635420
     35          1           0       -4.179791   -0.005789    0.865184
     36          1           0       -3.714025   -0.339820   -0.793295
     37          1           0       -3.062516   -2.175570    1.589762
     38          1           0       -4.403886   -2.413578    0.459361
     39          1           0       -2.735965   -2.542261   -0.108296
 ---------------------------------------------------------------------

 SCF Done:  E(UB3LYP) =  -511.221336395     A.U. after   29 cycles

 The electronic state is 2-A.
 Alpha  occ. eigenvalues --  -10.07225 -10.07177 -10.07093 -10.06744 -10.06709
 Alpha  occ. eigenvalues --  -10.06648 -10.06646 -10.06599 -10.06501 -10.06362
 Alpha  occ. eigenvalues --  -10.06289 -10.06153 -10.06024  -0.75884  -0.71184
 Alpha  occ. eigenvalues --   -0.69344  -0.65408  -0.63626  -0.59416  -0.56209
 Alpha  occ. eigenvalues --   -0.55965  -0.51891  -0.51647  -0.47378  -0.45141
 Alpha  occ. eigenvalues --   -0.44178  -0.39365  -0.36589  -0.36465  -0.35977
 Alpha  occ. eigenvalues --   -0.34841  -0.34466  -0.32485  -0.32110  -0.30141
 Alpha  occ. eigenvalues --   -0.29787  -0.29414  -0.28895  -0.27920  -0.27561
 Alpha  occ. eigenvalues --   -0.26657  -0.25767  -0.25513  -0.23890  -0.23785
 Alpha  occ. eigenvalues --   -0.23440  -0.22577  -0.22021  -0.21191  -0.20848
 Alpha  occ. eigenvalues --   -0.19578  -0.18294   0.04358
 Alpha virt. eigenvalues --    0.05929   0.06649   0.06810   0.07794   0.08076
 Alpha virt. eigenvalues --    0.08348   0.09232   0.09459   0.10011   0.10258
 Alpha virt. eigenvalues --    0.10726   0.10809   0.11384   0.12591   0.12616

  Beta  occ. eigenvalues --  -10.07217 -10.07173 -10.07086 -10.06728 -10.06694
  Beta  occ. eigenvalues --  -10.06636 -10.06630 -10.06590 -10.06491 -10.06350
  Beta  occ. eigenvalues --  -10.06270 -10.06129 -10.05999  -0.75866  -0.71160
  Beta  occ. eigenvalues --   -0.69315  -0.65377  -0.63597  -0.59381  -0.56171
  Beta  occ. eigenvalues --   -0.55928  -0.51847  -0.51592  -0.47327  -0.45103
  Beta  occ. eigenvalues --   -0.44139  -0.39324  -0.36559  -0.36441  -0.35950
  Beta  occ. eigenvalues --   -0.34812  -0.34438  -0.32461  -0.32079  -0.30112
  Beta  occ. eigenvalues --   -0.29760  -0.29386  -0.28875  -0.27886  -0.27523
  Beta  occ. eigenvalues --   -0.26627  -0.25734  -0.25489  -0.23863  -0.23754
  Beta  occ. eigenvalues --   -0.23412  -0.22548  -0.21992  -0.21170  -0.20822
  Beta  occ. eigenvalues --   -0.19552  -0.18275
  Beta virt. eigenvalues --    0.06261   0.06731   0.07201   0.07250   0.08292
  Beta virt. eigenvalues --    0.08506   0.08684   0.09540   0.09849   0.10466
  Beta virt. eigenvalues --    0.10566   0.11025   0.11109   0.11637   0.12825

 Mulliken charges and spin densities:
               1          2
     1  C    0.615168  -1.221572
     2  C   -0.610106   0.586332
     3  C    0.722619  -1.153375
     4  C    0.058986  -0.343317
     5  C    0.619142   0.009250
     6  C    0.006115  -1.104427
     7  C    1.452069  -1.062902
     8  C   -1.477793   0.369297
     9  C   -0.316519   0.783648
    10  C   -0.271838  -0.014364
    11  C    0.385743  -1.005318
    12  C   -0.575805   0.292260
    13  C    0.581046  -1.203515
    14  H   -0.119966   0.261857
    15  H   -0.107789   0.235265
    16  H   -0.097954   0.228929
    17  H   -0.229237   0.363475
    18  H   -0.512256   0.699915
    19  H    0.020647   0.109533
    20  H   -0.154168   0.302186
    21  H   -0.026327   0.184908
    22  H    0.027969   0.103750
    23  H   -0.124779   0.300889
    24  H   -0.186205   0.336176
    25  H    0.189009  -0.023749
    26  H    0.044995   0.147295
    27  H    0.192815  -0.043640
    28  H    0.280206  -0.121695
    29  H   -0.088614   0.261227
    30  H   -0.210453   0.364618
    31  H   -0.045115   0.170005
    32  H   -0.067706   0.208507
    33  H   -0.319584   0.464077
    34  H   -0.279503   0.434074
    35  H   -0.100301   0.258211
    36  H    0.045299   0.069544
    37  H    0.049217   0.074186
    38  H   -0.379823   0.530959
    39  H    0.010797   0.147506
 Sum of Mulliken charges =  -1.00000   1.00000

 Dipole moment (field-independent basis, Debye):
    X=             -0.4383    Y=             -1.9097    Z=              0.8072  Tot=              2.1191
 Quadrupole moment (field-independent basis, Debye-Ang):
   XX=           -184.5918   YY=           -139.5934   ZZ=           -121.5058
   XY=             -3.6993   XZ=              0.6397   YZ=             -0.4707

 Summary of Natural Population Analysis:

                                       Natural Population
                Natural  -----------------------------------------------
    Atom  No    Charge         Core      Valence    Rydberg      Total
 -----------------------------------------------------------------------
      C    1   -0.28690      0.99967     2.28157    0.00566     3.28690
      C    2   -0.19245      0.99964     2.18510    0.00771     3.19245
      C    3   -0.18540      0.99963     2.17736    0.00842     3.18540
      C    4   -0.18981      0.99960     2.18149    0.00871     3.18981
      C    5   -0.10819      0.99960     2.09809    0.01050     3.10819
      C    6   -0.18171      0.99961     2.17311    0.00899     3.18171
      C    7   -0.10765      0.99958     2.09722    0.01085     3.10765
      C    8   -0.18608      0.99961     2.17799    0.00848     3.18608
      C    9   -0.10721      0.99957     2.09680    0.01085     3.10721
      C   10   -0.18648      0.99962     2.17751    0.00935     3.18648
      C   11   -0.28829      0.99966     2.28367    0.00496     3.28829
      C   12   -0.18812      0.99962     2.17976    0.00874     3.18812
      C   13   -0.28237      0.99966     2.27862    0.00409     3.28237
      H   14    0.09572      0.00000     0.40322    0.00106     0.40428
      H   15    0.09945      0.00000     0.39961    0.00094     0.40055
      H   16    0.09429      0.00000     0.40468    0.00103     0.40571
      H   17    0.09577      0.00000     0.40267    0.00156     0.40423
      H   18    0.09497      0.00000     0.40371    0.00132     0.40503
      H   19    0.09514      0.00000     0.40354    0.00132     0.40486
      H   20    0.09344      0.00000     0.40550    0.00106     0.40656
      H   21    0.09819      0.00000     0.40079    0.00101     0.40181
      H   22    0.09336      0.00000     0.40526    0.00138     0.40664
      H   23    0.09436      0.00000     0.40423    0.00141     0.40564
      H   24    0.09699      0.00000     0.40203    0.00098     0.40301
      H   25    0.09442      0.00000     0.40435    0.00123     0.40558
      H   26    0.09659      0.00000     0.40183    0.00159     0.40341
      H   27    0.09491      0.00000     0.40366    0.00143     0.40509
      H   28    0.09903      0.00000     0.39962    0.00136     0.40097
      H   29    0.09245      0.00000     0.40579    0.00176     0.40755
      H   30    0.09407      0.00000     0.40478    0.00114     0.40593
      H   31    0.09715      0.00000     0.40170    0.00116     0.40285
      H   32    0.09578      0.00000     0.40311    0.00111     0.40422
      H   33    0.09916      0.00000     0.39989    0.00095     0.40084
      H   34    0.09738      0.00000     0.40158    0.00104     0.40262
      H   35    0.09427      0.00000     0.40454    0.00119     0.40573
      H   36    0.09450      0.00000     0.40416    0.00134     0.40550
      H   37    0.09405      0.00000     0.40485    0.00111     0.40595
      H   38    0.09718      0.00000     0.40187    0.00095     0.40282
      H   39    0.09804      0.00000     0.40069    0.00127     0.40196
 =======================================================================
   * Total *   -0.00000     12.99507    38.86593    0.13900    52.00000

 Normal termination of Gaussian 16 at Thu Dec 10 00:13:03 2020.
