 Gaussian 16, Revision A.03,

 -----------------------------------------------------------
 # opt freq B3LYP/6-31G(d) empiricaldispersion=gd3bj scf=xqc
 -----------------------------------------------------------

 -------------------------------
 CID_54229636_JID_10153_neutraal
 -------------------------------
 Symbolic Z-matrix:
 Charge =  0 Multiplicity = 1

 SCF Done:  E(RB3LYP) =  -1072.04282416     A.U. after   15 cycles
 SCF Done:  E(RB3LYP) =  -1072.06104553     A.U. after   14 cycles
 SCF Done:  E(RB3LYP) =  -1072.06002872     A.U. after   15 cycles
 SCF Done:  E(RB3LYP) =  -1072.05924847     A.U. after   14 cycles
 SCF Done:  E(RB3LYP) =  -1072.05818372     A.U. after   13 cycles
 SCF Done:  E(RB3LYP) =  -1072.06229932     A.U. after   11 cycles
 SCF Done:  E(RB3LYP) =  -1072.06484155     A.U. after   15 cycles
 SCF Done:  E(RB3LYP) =  -1072.06535487     A.U. after   15 cycles
 SCF Done:  E(RB3LYP) =  -1072.06620938     A.U. after   14 cycles
 SCF Done:  E(RB3LYP) =  -1072.06695765     A.U. after   14 cycles
 SCF Done:  E(RB3LYP) =  -1072.07768806     A.U. after    9 cycles
 SCF Done:  E(RB3LYP) =  -1072.07768845     A.U. after    9 cycles
 SCF Done:  E(RB3LYP) =  -1072.07768862     A.U. after    8 cycles
 SCF Done:  E(RB3LYP) =  -1072.07768865     A.U. after    7 cycles
 Optimization completed.
    -- Stationary point found.
 Normal termination of Gaussian 16 at Sat Dec 12 15:45:46 2020.

 --------------------------------------------------------------------
 #N Geom=AllCheck Guess=TCheck SCRF=Check GenChk RB3LYP/6-31G(d) Freq
 --------------------------------------------------------------------

 Structure from the checkpoint file:  "JID_10153.chk"
 -------------------------------
 CID_54229636_JID_10153_neutraal
 -------------------------------
 Charge =  0 Multiplicity = 1

 SCF Done:  E(RB3LYP) =  -1072.07768865     A.U. after    1 cycles

  Exact polarizability: 179.521   3.620 171.274  -0.028   1.025 137.330
 Approx polarizability: 231.227   5.980 230.549  -6.332  -4.258 224.382

                      1                      2                      3
                      A                      A                      A
 Frequencies --     19.3739                20.1588                25.0309
 Red. masses --      4.4583                 4.2471                 3.0510
 Frc consts  --      0.0010                 0.0010                 0.0011
 IR Inten    --      0.3832                 0.5508                 0.1238

                      4                      5                      6
                      A                      A                      A
 Frequencies --     40.6484                45.4766                59.4545
 Red. masses --      5.4556                 3.3437                 4.6817
 Frc consts  --      0.0053                 0.0041                 0.0098
 IR Inten    --      0.7481                 0.0714                 1.5180

                      7                      8                      9
                      A                      A                      A
 Frequencies --     63.7350                84.0949                98.1978
 Red. masses --      5.3955                 8.4631                 5.0111
 Frc consts  --      0.0129                 0.0353                 0.0285
 IR Inten    --      0.8250                 3.5413                 0.4184

                     10                     11                     12
                      A                      A                      A
 Frequencies --    124.5409               159.4324               177.0713
 Red. masses --      4.0074                 4.4657                 4.5165
 Frc consts  --      0.0366                 0.0669                 0.0834
 IR Inten    --      0.5291                 0.8746                 0.8875

                     13                     14                     15
                      A                      A                      A
 Frequencies --    195.2016               203.2035               210.3254
 Red. masses --      1.4036                 1.5122                 1.0662
 Frc consts  --      0.0315                 0.0368                 0.0278
 IR Inten    --      1.0799                 1.0770                 0.2063

                     16                     17                     18
                      A                      A                      A
 Frequencies --    216.8676               230.1837               252.2159
 Red. masses --      1.3733                 3.3200                 1.1206
 Frc consts  --      0.0381                 0.1036                 0.0420
 IR Inten    --      0.3099                 1.6490                 0.1409

                     19                     20                     21
                      A                      A                      A
 Frequencies --    257.4263               271.4454               282.5708
 Red. masses --      1.4439                 2.0029                 1.0508
 Frc consts  --      0.0564                 0.0870                 0.0494
 IR Inten    --      0.3319                 0.9309                 0.2512

                     22                     23                     24
                      A                      A                      A
 Frequencies --    285.5321               292.0024               297.4049
 Red. masses --      1.1249                 3.0417                 3.2227
 Frc consts  --      0.0540                 0.1528                 0.1679
 IR Inten    --      0.4753                 1.2343                 3.2499

                     25                     26                     27
                      A                      A                      A
 Frequencies --    333.4146               336.5846               351.0674
 Red. masses --      4.0158                 3.3825                 2.7506
 Frc consts  --      0.2630                 0.2258                 0.1997
 IR Inten    --      4.7371                 5.5665                 1.9900

                     28                     29                     30
                      A                      A                      A
 Frequencies --    373.0624               386.5126               394.9471
 Red. masses --      3.6939                 3.5240                 2.8842
 Frc consts  --      0.3029                 0.3102                 0.2651
 IR Inten    --      0.1434                 1.7079                 0.2538

                     31                     32                     33
                      A                      A                      A
 Frequencies --    411.6614               413.9544               431.7721
 Red. masses --      3.6360                 2.5275                 3.7492
 Frc consts  --      0.3630                 0.2552                 0.4118
 IR Inten    --      3.2261                 2.3496                 0.6819

                     34                     35                     36
                      A                      A                      A
 Frequencies --    450.2329               487.0896               519.7083
 Red. masses --      3.4133                 4.1091                 4.0358
 Frc consts  --      0.4077                 0.5744                 0.6422
 IR Inten    --      1.2718                 3.7095                 4.9103

                     37                     38                     39
                      A                      A                      A
 Frequencies --    561.9395               589.7608               611.4103
 Red. masses --      4.7925                 6.2593                 6.7693
 Frc consts  --      0.8917                 1.2827                 1.4909
 IR Inten    --      2.9397                 3.4337                 4.5688

                     40                     41                     42
                      A                      A                      A
 Frequencies --    654.5596               709.2179               718.2130
 Red. masses --      9.3269                 8.7997                 6.5133
 Frc consts  --      2.3544                 2.6078                 1.9795
 IR Inten    --     63.7487                80.1566                59.4759

                     43                     44                     45
                      A                      A                      A
 Frequencies --    745.7522               749.2392               754.7966
 Red. masses --      4.9047                 5.0310                 4.9116
 Frc consts  --      1.6071                 1.6640                 1.6487
 IR Inten    --      7.3398                41.1060                28.8218

                     46                     47                     48
                      A                      A                      A
 Frequencies --    795.7927               841.5585               855.5965
 Red. masses --      5.3725                 3.1064                 3.1018
 Frc consts  --      2.0046                 1.2962                 1.3378
 IR Inten    --     18.9855                 8.3433                15.3894

                     49                     50                     51
                      A                      A                      A
 Frequencies --    877.2107               920.0218               934.4202
 Red. masses --      9.6502                 3.7292                 1.6973
 Frc consts  --      4.3751                 1.8598                 0.8731
 IR Inten    --      4.9410                29.4891                 0.8288

                     52                     53                     54
                      A                      A                      A
 Frequencies --    939.1626               940.3643               944.5445
 Red. masses --      1.6189                 1.7703                 1.5822
 Frc consts  --      0.8413                 0.9223                 0.8317
 IR Inten    --      0.4391                 0.3076                 0.7839

                     55                     56                     57
                      A                      A                      A
 Frequencies --    951.0056               978.2890               980.6627
 Red. masses --      3.8569                 7.8039                 1.2032
 Frc consts  --      2.0552                 4.4004                 0.6817
 IR Inten    --     14.6703                22.5745                 0.0441

                     58                     59                     60
                      A                      A                      A
 Frequencies --    985.6623               998.5605              1061.2983
 Red. masses --      1.2592                 2.2035                 1.4087
 Frc consts  --      0.7208                 1.2945                 0.9349
 IR Inten    --      1.8635                66.8806                 1.2918

                     61                     62                     63
                      A                      A                      A
 Frequencies --   1064.6485              1066.0245              1067.4265
 Red. masses --      1.4149                 1.4346                 1.4405
 Frc consts  --      0.9449                 0.9605                 0.9670
 IR Inten    --      1.2684                 1.2725                 2.4794

                     64                     65                     66
                      A                      A                      A
 Frequencies --   1077.4597              1103.2741              1168.1785
 Red. masses --      3.2999                 1.9552                 3.3441
 Frc consts  --      2.2571                 1.4022                 2.6887
 IR Inten    --     92.4194                20.1816               166.0018

                     67                     68                     69
                      A                      A                      A
 Frequencies --   1207.0649              1229.5982              1232.8624
 Red. masses --      4.0834                 2.1487                 2.2526
 Frc consts  --      3.5054                 1.9140                 2.0173
 IR Inten    --    210.8951                23.0592                36.5931

                     70                     71                     72
                      A                      A                      A
 Frequencies --   1285.5847              1286.9808              1303.6769
 Red. masses --      2.7161                 2.7004                 2.8714
 Frc consts  --      2.6449                 2.6352                 2.8753
 IR Inten    --     18.2734                16.3753                12.7802

                     73                     74                     75
                      A                      A                      A
 Frequencies --   1306.5962              1310.0502              1342.6469
 Red. masses --      2.9288                 1.4215                 1.5435
 Frc consts  --      2.9459                 1.4374                 1.6393
 IR Inten    --     11.5476                10.1074                20.0148

                     76                     77                     78
                      A                      A                      A
 Frequencies --   1426.3507              1427.3103              1429.0784
 Red. masses --      1.2835                 1.2835                 1.2834
 Frc consts  --      1.5385                 1.5406                 1.5442
 IR Inten    --      1.8354                19.8186                 8.0175

                     79                     80                     81
                      A                      A                      A
 Frequencies --   1430.5625              1436.6121              1452.9699
 Red. masses --      1.2795                 1.2049                 1.2276
 Frc consts  --      1.5427                 1.4651                 1.5270
 IR Inten    --     31.6399                 3.6385                12.4602

                     82                     83                     84
                      A                      A                      A
 Frequencies --   1454.8382              1500.8273              1501.8507
 Red. masses --      1.2265                 1.0468                 1.0459
 Frc consts  --      1.5295                 1.3892                 1.3900
 IR Inten    --      2.9492                 0.3499                 1.5857

                     85                     86                     87
                      A                      A                      A
 Frequencies --   1512.8461              1514.8382              1517.2395
 Red. masses --      1.0465                 1.0501                 1.0463
 Frc consts  --      1.4112                 1.4198                 1.4190
 IR Inten    --      2.3911                 0.3252                 0.4496

                     88                     89                     90
                      A                      A                      A
 Frequencies --   1518.9674              1520.5878              1523.8943
 Red. masses --      1.0477                 1.0419                 1.0497
 Frc consts  --      1.4242                 1.4194                 1.4362
 IR Inten    --      0.9368                 7.5427                 7.2450

                     91                     92                     93
                      A                      A                      A
 Frequencies --   1527.1031              1528.9185              1529.8103
 Red. masses --      1.0574                 1.0571                 1.0593
 Frc consts  --      1.4528                 1.4559                 1.4607
 IR Inten    --      2.2105                 1.6208                 3.9387

                     94                     95                     96
                      A                      A                      A
 Frequencies --   1538.5686              1549.2097              1553.8743
 Red. masses --      1.0568                 1.0560                 1.0535
 Frc consts  --      1.4739                 1.4932                 1.4987
 IR Inten    --      2.6245                 8.5873                 9.3209

                     97                     98                     99
                      A                      A                      A
 Frequencies --   1842.9714              1890.1797              3061.7280
 Red. masses --     12.6526                12.4974                 1.0356
 Frc consts  --     25.3201                26.3074                 5.7195
 IR Inten    --    259.0626               217.1408                11.2598

                    100                    101                    102
                      A                      A                      A
 Frequencies --   3062.3722              3062.7655              3062.8484
 Red. masses --      1.0356                 1.0381                 1.0352
 Frc consts  --      5.7223                 5.7373                 5.7220
 IR Inten    --     16.8537                10.6517                16.1211

                    103                    104                    105
                      A                      A                      A
 Frequencies --   3069.9627              3070.0992              3079.0224
 Red. masses --      1.0365                 1.0395                 1.0343
 Frc consts  --      5.7554                 5.7725                 5.7771
 IR Inten    --     15.8652                15.2194                12.0371

                    106                    107                    108
                      A                      A                      A
 Frequencies --   3101.3248              3129.2143              3130.3847
 Red. masses --      1.0841                 1.1025                 1.1020
 Frc consts  --      6.1434                 6.3605                 6.3627
 IR Inten    --      1.0641                11.0907                 7.1920

                    109                    110                    111
                      A                      A                      A
 Frequencies --   3133.1546              3133.4114              3139.9038
 Red. masses --      1.1023                 1.0989                 1.1009
 Frc consts  --      6.3755                 6.3571                 6.3948
 IR Inten    --      8.1013                 3.7178                29.3708

                    112                    113                    114
                      A                      A                      A
 Frequencies --   3141.0467              3143.3420              3143.4522
 Red. masses --      1.1027                 1.1032                 1.1032
 Frc consts  --      6.4100                 6.4220                 6.4229
 IR Inten    --     35.3438                19.9349                28.9703

                    115                    116                    117
                      A                      A                      A
 Frequencies --   3147.7965              3155.6453              3156.9155
 Red. masses --      1.1029                 1.1038                 1.1015
 Frc consts  --      6.4385                 6.4764                 6.4679
 IR Inten    --     17.7927                 8.7364                18.1109

                    118                    119                    120
                      A                      A                      A
 Frequencies --   3160.7731              3164.5153              3178.5875
 Red. masses --      1.1020                 1.1037                 1.1003
 Frc consts  --      6.4866                 6.5118                 6.5501
 IR Inten    --      5.0291                10.7183                 7.6591

 - Thermochemistry -
 -------------------
 Temperature   298.150 Kelvin.  Pressure   1.00000 Atm.
 Atom     1 has atomic number  6 and mass  12.00000

 Molecular mass:   294.13147 amu.
 Principal axes and moments of inertia in atomic units:
                           1         2         3
     Eigenvalues --  4093.391658287.99238**********
           X            0.99993   0.00952   0.00759
           Y           -0.00962   0.99986   0.01357
           Z           -0.00746  -0.01364   0.99988
 This molecule is an asymmetric top.
 Rotational symmetry number  1.
 Warning -- assumption of classical behavior for rotation
           may cause significant error
 Rotational temperatures (Kelvin)      0.02116     0.01045     0.00838
 Rotational constants (GHZ):           0.44089     0.21775     0.17467
 Zero-point vibrational energy     901448.3 (Joules/Mol)
                                  215.45132 (Kcal/Mol)
 Warning -- explicit consideration of  39 degrees of freedom as
           vibrations may cause significant error
 Vibrational temperatures:     27.87    29.00    36.01    58.48    65.43
          (Kelvin)             85.54    91.70   120.99   141.28   179.19
                              229.39   254.77   280.85   292.36   302.61
                              312.02   331.18   362.88   370.38   390.55
                              406.56   410.82   420.13   427.90   479.71
                              484.27   505.11   536.75   556.11   568.24
                              592.29   595.59   621.22   647.78   700.81
                              747.74   808.51   848.53   879.68   941.77
                             1020.41  1033.35  1072.97  1077.99  1085.98
                             1144.97  1210.82  1231.01  1262.11  1323.71
                             1344.42  1351.25  1352.97  1358.99  1368.29
                             1407.54  1410.95  1418.15  1436.71  1526.97
                             1531.79  1533.77  1535.79  1550.22  1587.37
                             1680.75  1736.70  1769.12  1773.81  1849.67
                             1851.68  1875.70  1879.90  1884.87  1931.77
                             2052.20  2053.58  2056.13  2058.26  2066.96
                             2090.50  2093.19  2159.36  2160.83  2176.65
                             2179.51  2182.97  2185.46  2187.79  2192.54
                             2197.16  2199.77  2201.06  2213.66  2228.97
                             2235.68  2651.62  2719.55  4405.14  4406.07
                             4406.64  4406.76  4416.99  4417.19  4430.03
                             4462.11  4502.24  4503.93  4507.91  4508.28
                             4517.62  4519.27  4522.57  4522.73  4528.98
                             4540.27  4542.10  4547.65  4553.03  4573.28

 Zero-point correction=                           0.343344 (Hartree/Particle)
 Thermal correction to Energy=                    0.367385
 Thermal correction to Enthalpy=                  0.368330
 Thermal correction to Gibbs Free Energy=         0.287830
 Sum of electronic and zero-point Energies=          -1071.734345
 Sum of electronic and thermal Energies=             -1071.710303
 Sum of electronic and thermal Enthalpies=           -1071.709359
 Sum of electronic and thermal Free Energies=        -1071.789859

                     E (Thermal)             CV                S
                      KCal/Mol        Cal/Mol-Kelvin    Cal/Mol-Kelvin
 Total                  230.538             87.648            169.426
 Electronic               0.000              0.000              0.000
 Translational            0.889              2.981             42.934
 Rotational               0.889              2.981             34.216
 Vibrational            228.760             81.686             92.276
 Vibration     1          0.593              1.986              6.697
 Vibration     2          0.593              1.986              6.618
 Vibration     3          0.593              1.985              6.189
 Vibration     4          0.594              1.981              5.227
 Vibration     5          0.595              1.979              5.005
 Vibration     6          0.597              1.974              4.475
 Vibration     7          0.597              1.972              4.338
 Vibration     8          0.601              1.960              3.793
 Vibration     9          0.604              1.950              3.490
 Vibration    10          0.610              1.928              3.029
 Vibration    11          0.621              1.892              2.557
 Vibration    12          0.628              1.871              2.359
 Vibration    13          0.636              1.847              2.178
 Vibration    14          0.639              1.835              2.104
 Vibration    15          0.642              1.825              2.041
 Vibration    16          0.646              1.815              1.985
 Vibration    17          0.652              1.795              1.878
 Vibration    18          0.664              1.759              1.715
 Vibration    19          0.667              1.750              1.679
 Vibration    20          0.675              1.726              1.587
 Vibration    21          0.682              1.706              1.518
 Vibration    22          0.683              1.701              1.500
 Vibration    23          0.687              1.689              1.462
 Vibration    24          0.691              1.679              1.431
 Vibration    25          0.715              1.609              1.243
 Vibration    26          0.717              1.602              1.228
 Vibration    27          0.728              1.573              1.161
 Vibration    28          0.744              1.527              1.067
 Vibration    29          0.755              1.499              1.014
 Vibration    30          0.762              1.481              0.981
 Vibration    31          0.776              1.445              0.921
 Vibration    32          0.778              1.440              0.913
 Vibration    33          0.793              1.401              0.853
 Vibration    34          0.809              1.360              0.795
 Vibration    35          0.843              1.279              0.691
 Vibration    36          0.875              1.206              0.611
 Vibration    37          0.918              1.114              0.520
 Vibration    38          0.947              1.054              0.468
 Vibration    39          0.971              1.008              0.430

 Optimization completed.
    -- Stationary point found.
 Normal termination of Gaussian 16 at Sat Dec 12 16:07:47 2020.

 ----------------------------------------------------------------------
 # B3LYP/6-311++G(d,p) empiricaldispersion=gd3bj scf=xqc pop=npa geom=c
 heck
 ----------------------------------------------------------------------

 ---------------------------------------
 CID_54229636_JID_10153_Energie_neutraal
 ---------------------------------------
 Structure from the checkpoint file:  "JID_10153.chk"
 Charge =  0 Multiplicity = 1

 SCF Done:  E(RB3LYP) =  -1072.39222109     A.U. after   16 cycles
 Normal termination of Gaussian 16 at Sat Dec 12 16:18:38 2020.

 ----------------------------------------------------------------------
 # B3LYP/6-311++G(d,p) empiricaldispersion=gd3bj scf=xqc pop=npa geom=c
 heck
 ----------------------------------------------------------------------

 -------------------------------------
 CID_54229636_JID_10153_Energie_kation
 -------------------------------------
 Structure from the checkpoint file:  "JID_10153.chk"
 Charge =  1 Multiplicity = 2

 SCF Done:  E(UB3LYP) =  -1072.03887494     A.U. after   33 cycles
 SCF Done:  E(UB3LYP) =  -1072.03887494     a.u. after    1 cycles
 Normal termination of Gaussian 16 at Sat Dec 12 16:51:03 2020.
 Gaussian 16:  ES64L-G16RevA.03 25-Dec-2016

 ----------------------------------------------------------------------
 # B3LYP/6-311++G(d,p) empiricaldispersion=gd3bj scf=xqc pop=npa geom=c
 heck
 ----------------------------------------------------------------------

 ------------------------------------
 CID_54229636_JID_10153_Energie_anion
 ------------------------------------
 Structure from the checkpoint file:  "JID_10153.chk"
 Charge = -1 Multiplicity = 2

                         Standard orientation:
 ---------------------------------------------------------------------
 Center     Atomic      Atomic             Coordinates (Angstroms)
 Number     Number       Type             X           Y           Z
 ---------------------------------------------------------------------
      1          6           0        0.677506    3.039918    1.272220
      2          6           0       -0.108045    2.581869    0.035058
      3          6           0        0.797576    1.783954   -0.905498
      4          8           0        1.341565    2.195820   -1.888362
      5          8           0        0.923942    0.521575   -0.375625
      6          8           0        1.803110   -0.318925   -1.190354
      7          8           0        3.109251   -0.161778   -0.691423
      8          6           0        3.418753   -1.200598    0.300309
      9          6           0        2.553619   -1.033042    1.549549
     10          6           0        3.247259   -2.579776   -0.333585
     11          6           0        4.887922   -0.890886    0.593235
     12          6           0       -1.353360    1.788994    0.449906
     13          8           0       -1.703348    1.578255    1.582646
     14          8           0       -1.996756    1.396734   -0.680223
     15          8           0       -3.300926    0.739685   -0.357791
     16          8           0       -3.287106   -0.522842   -0.937653
     17          6           0       -2.938839   -1.589828    0.024833
     18          6           0       -1.431982   -1.618362    0.276047
     19          6           0       -3.733267   -1.407364    1.314243
     20          6           0       -3.390441   -2.822858   -0.760568
     21          1           0        1.001775    2.178652    1.860710
     22          1           0        0.044988    3.666115    1.905477
     23          1           0        1.554980    3.614622    0.962845
     24          1           0       -0.437915    3.443817   -0.552861
     25          1           0        1.502098   -1.238442    1.336341
     26          1           0        2.889133   -1.732362    2.323005
     27          1           0        2.636444   -0.015491    1.943033
     28          1           0        3.856881   -2.664311   -1.238523
     29          1           0        3.560019   -3.357257    0.371322
     30          1           0        2.201619   -2.757659   -0.598151
     31          1           0        5.488268   -0.962330   -0.318488
     32          1           0        4.997315    0.116618    1.005995
     33          1           0        5.274336   -1.609490    1.322746
     34          1           0       -1.114912   -0.785136    0.904106
     35          1           0       -1.170670   -2.546579    0.797041
     36          1           0       -0.879158   -1.582037   -0.666287
     37          1           0       -4.806771   -1.364795    1.103746
     38          1           0       -3.544522   -2.254657    1.982098
     39          1           0       -3.432495   -0.489562    1.824204
     40          1           0       -4.461848   -2.774947   -0.975822
     41          1           0       -2.845952   -2.902384   -1.706693
     42          1           0       -3.191660   -3.722697   -0.170054
 ---------------------------------------------------------------------

 SCF Done:  E(UB3LYP) =  -1072.39348898     A.U. after   33 cycles
 SCF Done:  E(UB3LYP) =  -1072.39348898     a.u. after    2 cycles

 The electronic state is 2-A.
 Alpha  occ. eigenvalues --  -19.11814 -19.09059 -19.08162 -19.07863 -19.06127
 Alpha  occ. eigenvalues --  -19.05687 -19.01506 -19.00346 -10.20258 -10.19037
 Alpha  occ. eigenvalues --  -10.14267 -10.13090 -10.10253 -10.07382 -10.07254
 Alpha  occ. eigenvalues --  -10.07173 -10.07164 -10.06565 -10.05974 -10.05337
 Alpha  occ. eigenvalues --   -1.07770  -1.04898  -0.97935  -0.96586  -0.92183
 Alpha  occ. eigenvalues --   -0.90217  -0.78501  -0.76570  -0.70399  -0.68120
 Alpha  occ. eigenvalues --   -0.66758  -0.60662  -0.60267  -0.60017  -0.59190
 Alpha  occ. eigenvalues --   -0.56773  -0.51369  -0.48004  -0.45656  -0.44583
 Alpha  occ. eigenvalues --   -0.41860  -0.40838  -0.40273  -0.39539  -0.38018
 Alpha  occ. eigenvalues --   -0.37490  -0.36675  -0.36483  -0.35850  -0.35350
 Alpha  occ. eigenvalues --   -0.35098  -0.33650  -0.32554  -0.31849  -0.31392
 Alpha  occ. eigenvalues --   -0.30812  -0.30515  -0.30082  -0.29767  -0.29152
 Alpha  occ. eigenvalues --   -0.28895  -0.28412  -0.28040  -0.28026  -0.27454
 Alpha  occ. eigenvalues --   -0.27084  -0.26734  -0.25928  -0.25032  -0.24815
 Alpha  occ. eigenvalues --   -0.23614  -0.21573  -0.20367  -0.20228  -0.18731
 Alpha  occ. eigenvalues --   -0.18156  -0.17546  -0.16257  -0.15215   0.04186
 Alpha virt. eigenvalues --    0.05787   0.06898   0.07323   0.07637   0.08398
 Alpha virt. eigenvalues --    0.08642   0.09409   0.09485   0.09875   0.10186
 Alpha virt. eigenvalues --    0.10723   0.11068   0.11339   0.11506   0.11996

  Beta  occ. eigenvalues --  -19.11393 -19.08813 -19.08112 -19.07019 -19.06027
  Beta  occ. eigenvalues --  -19.05134 -19.01499 -19.00342 -10.20258 -10.19044
  Beta  occ. eigenvalues --  -10.14264 -10.13090 -10.10252 -10.07354 -10.07253
  Beta  occ. eigenvalues --  -10.07164 -10.07122 -10.06552 -10.05970 -10.05331
  Beta  occ. eigenvalues --   -1.07088  -1.03663  -0.97790  -0.96338  -0.91941
  Beta  occ. eigenvalues --   -0.89610  -0.78089  -0.75833  -0.70284  -0.67937
  Beta  occ. eigenvalues --   -0.66370  -0.60620  -0.60233  -0.59984  -0.59174
  Beta  occ. eigenvalues --   -0.56589  -0.50993  -0.47559  -0.45457  -0.44269
  Beta  occ. eigenvalues --   -0.41441  -0.40625  -0.39996  -0.39301  -0.37768
  Beta  occ. eigenvalues --   -0.37379  -0.36567  -0.36230  -0.35749  -0.35277
  Beta  occ. eigenvalues --   -0.34907  -0.33576  -0.32399  -0.31615  -0.31193
  Beta  occ. eigenvalues --   -0.30709  -0.30437  -0.29952  -0.29676  -0.28997
  Beta  occ. eigenvalues --   -0.28776  -0.28286  -0.28019  -0.27823  -0.27285
  Beta  occ. eigenvalues --   -0.26978  -0.26560  -0.25844  -0.24957  -0.24543
  Beta  occ. eigenvalues --   -0.23544  -0.21336  -0.20065  -0.19839  -0.18537
  Beta  occ. eigenvalues --   -0.17819  -0.17137  -0.16064  -0.14540
  Beta virt. eigenvalues --    0.06255   0.07048   0.07565   0.08443   0.08642
  Beta virt. eigenvalues --    0.08868   0.09281   0.09677   0.10078   0.10423
  Beta virt. eigenvalues --    0.10768   0.11037   0.11320   0.11548   0.11925

 Mulliken charges and spin densities:
               1          2
     1  C    0.084221  -0.644793
     2  C   -0.345708   0.650211
     3  C   -0.252013  -0.009662
     4  O   -0.214932  -0.000531
     5  O    0.186717   0.059425
     6  O    0.075450   0.095806
     7  O   -0.034206   0.021645
     8  C   -0.705482   0.534155
     9  C   -0.123045  -0.327684
    10  C   -0.124918  -0.305949
    11  C    0.336922  -0.793500
    12  C   -0.114866  -0.297770
    13  O   -0.195359  -0.004284
    14  O   -0.042132   0.186753
    15  O    0.107174   0.154370
    16  O   -0.087959   0.042038
    17  C    0.187306   0.070916
    18  C   -0.786054  -0.076341
    19  C   -0.516191  -0.066864
    20  C   -0.433123   0.006445
    21  H    0.148698   0.043485
    22  H    0.063774   0.104330
    23  H   -0.028684   0.174226
    24  H    0.148880   0.120674
    25  H    0.014722   0.153692
    26  H   -0.023323   0.169467
    27  H    0.088586   0.062137
    28  H    0.118100   0.033904
    29  H    0.037548   0.094889
    30  H    0.160865   0.004108
    31  H    0.038250   0.115312
    32  H   -0.011925   0.166244
    33  H   -0.227111   0.380796
    34  H    0.327749  -0.027159
    35  H    0.077355   0.028223
    36  H    0.241701  -0.008335
    37  H    0.105680   0.036653
    38  H    0.100025   0.012751
    39  H    0.176153   0.039182
    40  H    0.158633   0.001538
    41  H    0.158506   0.000261
    42  H    0.124019  -0.000761
 Sum of Mulliken charges =  -1.00000   1.00000

 Dipole moment (field-independent basis, Debye):
    X=             -1.3850    Y=             -3.3054    Z=              0.7850  Tot=              3.6688
 Quadrupole moment (field-independent basis, Debye-Ang):
   XX=           -188.7686   YY=           -146.2894   ZZ=           -151.6811
   XY=              9.2303   XZ=             -4.0037   YZ=              4.5580

 Summary of Natural Population Analysis:

                                       Natural Population
                Natural  -----------------------------------------------
    Atom  No    Charge         Core      Valence    Rydberg      Total
 -----------------------------------------------------------------------
      C    1   -0.28032      0.99965     2.27367    0.00699     3.28032
      C    2   -0.19658      0.99950     2.18617    0.01091     3.19658
      C    3    0.41361      0.99968     1.55902    0.02768     2.58639
      O    4   -0.28464      0.99986     3.27898    0.00580     4.28464
      O    5   -0.14605      0.99987     3.13701    0.00917     4.14605
      O    6    0.01325      0.99994     2.97782    0.00898     3.98675
      O    7   -0.15163      0.99987     3.14240    0.00936     4.15163
      C    8    0.12680      0.99956     1.85967    0.01397     2.87320
      C    9   -0.30019      0.99960     2.29346    0.00713     3.30019
      C   10   -0.29973      0.99960     2.29350    0.00663     3.29973
      C   11   -0.29316      0.99959     2.28621    0.00736     3.29316
      C   12    0.40267      0.99970     1.56923    0.02840     2.59733
      O   13   -0.30725      0.99986     3.30150    0.00588     4.30725
      O   14   -0.12345      0.99986     3.11622    0.00737     4.12345
      O   15    0.04334      0.99994     2.94698    0.00974     3.95666
      O   16   -0.15356      0.99987     3.14275    0.01093     4.15356
      C   17    0.12726      0.99956     1.85917    0.01401     2.87274
      C   18   -0.30376      0.99960     2.29591    0.00825     3.30376
      C   19   -0.30250      0.99960     2.29722    0.00568     3.30250
      C   20   -0.29077      0.99960     2.28533    0.00584     3.29077
      H   21    0.10702      0.00000     0.39191    0.00107     0.39298
      H   22    0.10517      0.00000     0.39400    0.00083     0.39483
      H   23    0.10133      0.00000     0.39773    0.00094     0.39867
      H   24    0.12195      0.00000     0.37679    0.00126     0.37805
      H   25    0.11005      0.00000     0.38878    0.00117     0.38995
      H   26    0.09956      0.00000     0.39959    0.00085     0.40044
      H   27    0.10502      0.00000     0.39394    0.00104     0.39498
      H   28    0.10195      0.00000     0.39724    0.00081     0.39805
      H   29    0.10056      0.00000     0.39871    0.00073     0.39944
      H   30    0.10834      0.00000     0.39071    0.00095     0.39166
      H   31    0.10348      0.00000     0.39560    0.00092     0.39652
      H   32    0.10546      0.00000     0.39361    0.00093     0.39454
      H   33    0.10401      0.00000     0.39459    0.00140     0.39599
      H   34    0.11202      0.00000     0.38658    0.00140     0.38798
      H   35    0.09440      0.00000     0.40480    0.00080     0.40560
      H   36    0.10869      0.00000     0.39025    0.00105     0.39131
      H   37    0.09920      0.00000     0.39967    0.00113     0.40080
      H   38    0.09513      0.00000     0.40409    0.00078     0.40487
      H   39    0.12043      0.00000     0.37841    0.00116     0.37957
      H   40    0.10149      0.00000     0.39763    0.00088     0.39851
      H   41    0.10414      0.00000     0.39504    0.00082     0.39586
      H   42    0.09722      0.00000     0.40206    0.00072     0.40278
 =======================================================================
   * Total *   -0.00000     19.99432    58.77392    0.23176    79.00000

 Normal termination of Gaussian 16 at Sat Dec 12 17:50:54 2020.
