 Gaussian 16, Revision A.03,

 -----------------------------------------------------------
 # opt freq B3LYP/6-31G(d) empiricaldispersion=gd3bj scf=xqc
 -----------------------------------------------------------

 -------------------------------
 CID_131521455_JID_6737_neutraal
 -------------------------------
 Symbolic Z-matrix:
 Charge =  0 Multiplicity = 1

 SCF Done:  E(RB3LYP) =  -694.843015098     A.U. after   15 cycles
 SCF Done:  E(RB3LYP) =  -694.845720993     A.U. after   13 cycles
 SCF Done:  E(RB3LYP) =  -694.845909139     A.U. after   12 cycles
 SCF Done:  E(RB3LYP) =  -694.845681353     A.U. after   12 cycles
 SCF Done:  E(RB3LYP) =  -694.846012652     A.U. after   12 cycles
 SCF Done:  E(RB3LYP) =  -694.846036937     A.U. after    9 cycles
 SCF Done:  E(RB3LYP) =  -694.846060423     A.U. after   10 cycles
 SCF Done:  E(RB3LYP) =  -694.846061546     A.U. after   10 cycles
 SCF Done:  E(RB3LYP) =  -694.846066098     A.U. after    9 cycles
 SCF Done:  E(RB3LYP) =  -694.846099440     A.U. after   11 cycles
 SCF Done:  E(RB3LYP) =  -694.846252842     A.U. after   11 cycles
 SCF Done:  E(RB3LYP) =  -694.846257258     A.U. after   10 cycles
 SCF Done:  E(RB3LYP) =  -694.846258434     A.U. after    8 cycles
 SCF Done:  E(RB3LYP) =  -694.846258561     A.U. after    9 cycles
 SCF Done:  E(RB3LYP) =  -694.846258564     A.U. after    7 cycles
 Optimization completed.
    -- Stationary point found.
 Normal termination of Gaussian 16 at Thu Dec 10 23:20:40 2020.

 --------------------------------------------------------------------
 #N Geom=AllCheck Guess=TCheck SCRF=Check GenChk RB3LYP/6-31G(d) Freq
 --------------------------------------------------------------------

 Structure from the checkpoint file:  "JID_6737.chk"
 -------------------------------
 CID_131521455_JID_6737_neutraal
 -------------------------------
 Charge =  0 Multiplicity = 1

 SCF Done:  E(RB3LYP) =  -694.846258564     A.U. after    1 cycles

  Exact polarizability: 208.977  -3.064 142.715  -4.360  -1.362  96.854
 Approx polarizability: 258.827  -5.158 242.842 -12.694  -1.584 150.717

                      1                      2                      3
                      A                      A                      A
 Frequencies --     28.6774                34.5112                73.2093
 Red. masses --      4.5260                 3.6416                 3.6759
 Frc consts  --      0.0022                 0.0026                 0.0116
 IR Inten    --      1.1065                 2.7027                 4.4822

                      4                      5                      6
                      A                      A                      A
 Frequencies --     81.6318               108.8180               131.6651
 Red. masses --      4.2129                 2.9845                 2.5514
 Frc consts  --      0.0165                 0.0208                 0.0261
 IR Inten    --      3.1463                 0.4833                 0.3828

                      7                      8                      9
                      A                      A                      A
 Frequencies --    133.4593               176.5453               200.9490
 Red. masses --      1.1128                 4.4181                 3.3317
 Frc consts  --      0.0117                 0.0811                 0.0793
 IR Inten    --      0.2670                 1.8262                 0.2452

                     10                     11                     12
                      A                      A                      A
 Frequencies --    237.9249               255.0120               256.0843
 Red. masses --      2.6878                 3.0433                 1.1708
 Frc consts  --      0.0896                 0.1166                 0.0452
 IR Inten    --      0.8225                 1.2218                 0.0361

                     13                     14                     15
                      A                      A                      A
 Frequencies --    311.3465               352.1332               370.4561
 Red. masses --      3.9801                 3.2740                 2.6706
 Frc consts  --      0.2273                 0.2392                 0.2159
 IR Inten    --      0.2867                 3.6804                 2.2094

                     16                     17                     18
                      A                      A                      A
 Frequencies --    387.4827               446.1168               456.4207
 Red. masses --      2.2811                 2.6272                 2.9051
 Frc consts  --      0.2018                 0.3081                 0.3566
 IR Inten    --      0.9345                 1.2293                 1.8478

                     19                     20                     21
                      A                      A                      A
 Frequencies --    467.0796               487.6985               539.4930
 Red. masses --      3.5577                 3.4238                 3.3678
 Frc consts  --      0.4573                 0.4798                 0.5775
 IR Inten    --      0.1425                 0.7696                20.5044

                     22                     23                     24
                      A                      A                      A
 Frequencies --    566.3880               585.3132               606.0615
 Red. masses --      3.6381                 3.5690                 3.2170
 Frc consts  --      0.6876                 0.7204                 0.6962
 IR Inten    --      1.5871                 4.4853                 0.4727

                     25                     26                     27
                      A                      A                      A
 Frequencies --    647.9616               713.3365               739.5556
 Red. masses --      2.5985                 3.2290                 5.0503
 Frc consts  --      0.6428                 0.9681                 1.6274
 IR Inten    --      2.5152                 0.1183                 6.1022

                     28                     29                     30
                      A                      A                      A
 Frequencies --    767.1190               810.6530               821.1911
 Red. masses --      3.9514                 1.4950                 2.4167
 Frc consts  --      1.3700                 0.5788                 0.9602
 IR Inten    --      2.2287                16.2923                 2.2570

                     31                     32                     33
                      A                      A                      A
 Frequencies --    823.9252               884.3795               889.3190
 Red. masses --      2.2666                 1.5206                 1.7313
 Frc consts  --      0.9066                 0.7007                 0.8068
 IR Inten    --      8.2920                11.6670                 2.7263

                     34                     35                     36
                      A                      A                      A
 Frequencies --    921.2572               926.5671               944.5921
 Red. masses --      2.1132                 1.4980                 1.9594
 Frc consts  --      1.0567                 0.7577                 1.0301
 IR Inten    --      4.9032                 1.5208                 1.0042

                     37                     38                     39
                      A                      A                      A
 Frequencies --    954.5703               994.8254              1012.7467
 Red. masses --      1.9554                 1.6383                 2.3714
 Frc consts  --      1.0498                 0.9553                 1.4330
 IR Inten    --      2.8108                14.8347                 1.6905

                     40                     41                     42
                      A                      A                      A
 Frequencies --   1046.7495              1068.3893              1090.4433
 Red. masses --      1.9975                 2.8659                 3.4729
 Frc consts  --      1.2895                 1.9274                 2.4330
 IR Inten    --      3.4170                 0.9717                64.7902

                     43                     44                     45
                      A                      A                      A
 Frequencies --   1107.9603              1131.1459              1159.6397
 Red. masses --      1.9975                 2.3976                 2.1200
 Frc consts  --      1.4448                 1.8074                 1.6797
 IR Inten    --      3.2850                 0.8789                29.8340

                     46                     47                     48
                      A                      A                      A
 Frequencies --   1169.8232              1186.9221              1187.7184
 Red. masses --      1.2492                 1.2819                 1.3337
 Frc consts  --      1.0072                 1.0640                 1.1085
 IR Inten    --      9.2079                 1.2758                15.4516

                     49                     50                     51
                      A                      A                      A
 Frequencies --   1194.8862              1224.5607              1231.0994
 Red. masses --      1.5723                 1.4151                 2.0082
 Frc consts  --      1.3226                 1.2503                 1.7933
 IR Inten    --     26.7310                 2.6903                15.6203

                     52                     53                     54
                      A                      A                      A
 Frequencies --   1246.8181              1267.7397              1278.7460
 Red. masses --      1.7338                 1.4322                 1.5425
 Frc consts  --      1.5880                 1.3562                 1.4861
 IR Inten    --     57.9603                 7.7993                53.8251

                     55                     56                     57
                      A                      A                      A
 Frequencies --   1297.9564              1317.8005              1327.7195
 Red. masses --      1.4590                 2.9503                 1.4049
 Frc consts  --      1.4482                 3.0187                 1.4592
 IR Inten    --      9.8112               136.8604                92.0014

                     58                     59                     60
                      A                      A                      A
 Frequencies --   1346.6057              1362.8698              1373.6692
 Red. masses --      2.2939                 1.2742                 1.9936
 Frc consts  --      2.4508                 1.3944                 2.2164
 IR Inten    --      4.7614                 4.8762                24.8908

                     61                     62                     63
                      A                      A                      A
 Frequencies --   1384.4362              1401.0851              1411.0818
 Red. masses --      1.6101                 1.4914                 1.3497
 Frc consts  --      1.8183                 1.7249                 1.5834
 IR Inten    --     26.3700                 2.2083                47.3462

                     64                     65                     66
                      A                      A                      A
 Frequencies --   1425.6190              1480.2046              1492.5181
 Red. masses --      1.5868                 3.4837                 1.0549
 Frc consts  --      1.9001                 4.4971                 1.3846
 IR Inten    --      6.2338                20.7949                 8.8946

                     67                     68                     69
                      A                      A                      A
 Frequencies --   1500.0167              1503.1156              1506.8287
 Red. masses --      1.2189                 1.0803                 1.1045
 Frc consts  --      1.6159                 1.4381                 1.4776
 IR Inten    --     13.5981                 1.5142                 6.1995

                     70                     71                     72
                      A                      A                      A
 Frequencies --   1509.6557              1514.4835              1520.7411
 Red. masses --      1.0920                 1.1043                 1.0480
 Frc consts  --      1.4663                 1.4923                 1.4279
 IR Inten    --      0.7441                 8.2032                 5.1279

                     73                     74                     75
                      A                      A                      A
 Frequencies --   1530.2491              1536.8990              1557.6169
 Red. masses --      1.1005                 1.0695                 2.4979
 Frc consts  --      1.5183                 1.4884                 3.5707
 IR Inten    --      4.1371                45.3579                94.8639

                     76                     77                     78
                      A                      A                      A
 Frequencies --   1633.6932              1678.4572              1811.6427
 Red. masses --      6.4681                 6.2977                10.1146
 Frc consts  --     10.1710                10.4533                19.5589
 IR Inten    --     20.8402                79.3195               142.0053

                     79                     80                     81
                      A                      A                      A
 Frequencies --   2998.4324              3008.7307              3016.2186
 Red. masses --      1.0762                 1.0721                 1.0706
 Frc consts  --      5.7009                 5.7179                 5.7387
 IR Inten    --      7.1560                30.5703                22.5343

                     82                     83                     84
                      A                      A                      A
 Frequencies --   3022.5872              3038.0716              3044.6779
 Red. masses --      1.0350                 1.0677                 1.0548
 Frc consts  --      5.5712                 5.8061                 5.7611
 IR Inten    --     61.6844                25.6447                19.3526

                     85                     86                     87
                      A                      A                      A
 Frequencies --   3049.4306              3056.5343              3073.3988
 Red. masses --      1.0466                 1.0934                 1.0928
 Frc consts  --      5.7343                 6.0187                 6.0819
 IR Inten    --     10.2583                34.9314                32.1505

                     88                     89                     90
                      A                      A                      A
 Frequencies --   3079.6988              3105.0538              3105.7103
 Red. masses --      1.1065                 1.0986                 1.1022
 Frc consts  --      6.1830                 6.2409                 6.2636
 IR Inten    --     46.9226                16.2983                18.8936

                     91                     92                     93
                      A                      A                      A
 Frequencies --   3111.7497              3156.5051              3167.2493
 Red. masses --      1.0949                 1.0994                 1.1019
 Frc consts  --      6.2466                 6.4539                 6.5127
 IR Inten    --     22.0211                30.9772                12.7798

                     94                     95                     96
                      A                      A                      A
 Frequencies --   3171.6130              3195.3473              3228.3290
 Red. masses --      1.0891                 1.0903                 1.0911
 Frc consts  --      6.4546                 6.5589                 6.6998
 IR Inten    --     18.6023                 7.3451                14.8639

 - Thermochemistry -
 -------------------
 Temperature   298.150 Kelvin.  Pressure   1.00000 Atm.
 Atom     1 has atomic number  6 and mass  12.00000

 Molecular mass:   218.13068 amu.
 Principal axes and moments of inertia in atomic units:
                           1         2         3
     Eigenvalues --  1032.812488759.735529304.34492
           X            0.99998   0.00173   0.00521
           Y           -0.00173   1.00000   0.00006
           Z           -0.00521  -0.00007   0.99999
 This molecule is an asymmetric top.
 Rotational symmetry number  1.
 Warning -- assumption of classical behavior for rotation
           may cause significant error
 Rotational temperatures (Kelvin)      0.08386     0.00989     0.00931
 Rotational constants (GHZ):           1.74740     0.20603     0.19397
 Zero-point vibrational energy     770355.7 (Joules/Mol)
                                  184.11944 (Kcal/Mol)
 Warning -- explicit consideration of  24 degrees of freedom as
           vibrations may cause significant error
 Vibrational temperatures:     41.26    49.65   105.33   117.45   156.56
          (Kelvin)            189.44   192.02   254.01   289.12   342.32
                              366.91   368.45   447.96   506.64   533.00
                              557.50   641.86   656.69   672.02   701.69
                              776.21   814.91   842.14   871.99   932.27
                             1026.33  1064.06  1103.71  1166.35  1181.51
                             1185.44  1272.42  1279.53  1325.48  1333.12
                             1359.06  1373.41  1431.33  1457.12  1506.04
                             1537.17  1568.90  1594.11  1627.47  1668.46
                             1683.11  1707.72  1708.86  1719.17  1761.87
                             1771.28  1793.89  1823.99  1839.83  1867.47
                             1896.02  1910.29  1937.47  1960.87  1976.40
                             1991.89  2015.85  2030.23  2051.15  2129.68
                             2147.40  2158.19  2162.65  2167.99  2172.06
                             2179.00  2188.01  2201.69  2211.25  2241.06
                             2350.52  2414.93  2606.55  4314.08  4328.89
                             4339.67  4348.83  4371.11  4380.61  4387.45
                             4397.67  4421.94  4431.00  4467.48  4468.42
                             4477.11  4541.51  4556.97  4563.24  4597.39
                             4644.85

 Zero-point correction=                           0.293413 (Hartree/Particle)
 Thermal correction to Energy=                    0.308830
 Thermal correction to Enthalpy=                  0.309774
 Thermal correction to Gibbs Free Energy=         0.249712
 Sum of electronic and zero-point Energies=           -694.552846
 Sum of electronic and thermal Energies=              -694.537428
 Sum of electronic and thermal Enthalpies=            -694.536484
 Sum of electronic and thermal Free Energies=         -694.596547

                     E (Thermal)             CV                S
                      KCal/Mol        Cal/Mol-Kelvin    Cal/Mol-Kelvin
 Total                  193.794             58.730            126.412
 Electronic               0.000              0.000              0.000
 Translational            0.889              2.981             42.043
 Rotational               0.889              2.981             32.798
 Vibrational            192.016             52.769             51.571
 Vibration     1          0.593              1.984              5.919
 Vibration     2          0.594              1.983              5.552
 Vibration     3          0.599              1.967              4.065
 Vibration     4          0.600              1.962              3.851
 Vibration     5          0.606              1.942              3.290
 Vibration     6          0.612              1.922              2.922
 Vibration     7          0.613              1.920              2.896
 Vibration     8          0.628              1.871              2.365
 Vibration     9          0.638              1.839              2.124
 Vibration    10          0.656              1.783              1.818
 Vibration    11          0.665              1.754              1.696
 Vibration    12          0.666              1.753              1.688
 Vibration    13          0.700              1.652              1.355
 Vibration    14          0.729              1.571              1.157
 Vibration    15          0.742              1.533              1.078
 Vibration    16          0.756              1.497              1.010
 Vibration    17          0.805              1.369              0.808
 Vibration    18          0.815              1.347              0.777
 Vibration    19          0.824              1.323              0.746
 Vibration    20          0.844              1.277              0.690
 Vibration    21          0.895              1.163              0.566
 Vibration    22          0.922              1.104              0.511
 Vibration    23          0.942              1.063              0.476
 Vibration    24          0.965              1.019              0.439

 Optimization completed.
    -- Stationary point found.
 Normal termination of Gaussian 16 at Thu Dec 10 23:30:32 2020.

 ----------------------------------------------------------------------
 # B3LYP/6-311++G(d,p) empiricaldispersion=gd3bj scf=xqc pop=npa geom=c
 heck
 ----------------------------------------------------------------------

 ---------------------------------------
 CID_131521455_JID_6737_Energie_neutraal
 ---------------------------------------
 Structure from the checkpoint file:  "JID_6737.chk"
 Charge =  0 Multiplicity = 1

 SCF Done:  E(RB3LYP) =  -695.035358325     A.U. after   15 cycles
 Normal termination of Gaussian 16 at Thu Dec 10 23:35:01 2020.

 ----------------------------------------------------------------------
 # B3LYP/6-311++G(d,p) empiricaldispersion=gd3bj scf=xqc pop=npa geom=c
 heck
 ----------------------------------------------------------------------

 -------------------------------------
 CID_131521455_JID_6737_Energie_kation
 -------------------------------------
 Structure from the checkpoint file:  "JID_6737.chk"
 Charge =  1 Multiplicity = 2

 SCF Done:  E(UB3LYP) =  -694.751207436     A.U. after   25 cycles
 Normal termination of Gaussian 16 at Thu Dec 10 23:45:19 2020.
 Gaussian 16:  ES64L-G16RevA.03 25-Dec-2016

 ----------------------------------------------------------------------
 # B3LYP/6-311++G(d,p) empiricaldispersion=gd3bj scf=xqc pop=npa geom=c
 heck
 ----------------------------------------------------------------------

 ------------------------------------
 CID_131521455_JID_6737_Energie_anion
 ------------------------------------
 Structure from the checkpoint file:  "JID_6737.chk"
 Charge = -1 Multiplicity = 2

                         Standard orientation:
 ---------------------------------------------------------------------
 Center     Atomic      Atomic             Coordinates (Angstroms)
 Number     Number       Type             X           Y           Z
 ---------------------------------------------------------------------
      1          6           0        4.828010    0.444366    1.480619
      2          6           0        4.340854    0.009513    0.110046
      3          8           0        4.807406   -0.961369   -0.457617
      4          6           0        3.212855    0.825124   -0.501226
      5          6           0        1.829422    0.290797   -0.066159
      6          6           0        1.526593   -1.096761   -0.644016
      7          6           0        0.229550   -1.650298   -0.048890
      8          6           0       -0.913941   -0.654299   -0.076036
      9          6           0       -0.675185    0.722522   -0.247700
     10          6           0        0.720733    1.263112   -0.488832
     11          6           0       -1.764635    1.595748   -0.221214
     12          6           0       -3.072399    1.148034   -0.038664
     13          6           0       -3.301196   -0.222517    0.125026
     14          6           0       -2.220029   -1.107619    0.105604
     15          8           0       -4.531845   -0.788191    0.309746
     16          6           0       -5.656969    0.072018    0.329763
     17          1           0        5.507837   -0.303894    1.892196
     18          1           0        3.985409    0.603021    2.164352
     19          1           0        5.353214    1.404712    1.396612
     20          1           0        3.302842    1.876676   -0.199538
     21          1           0        3.296212    0.767666   -1.591959
     22          1           0        1.812706    0.215073    1.032392
     23          1           0        1.430559   -1.006705   -1.735338
     24          1           0        2.354205   -1.787916   -0.458863
     25          1           0       -0.067351   -2.567754   -0.571097
     26          1           0        0.414573   -1.946142    0.994764
     27          1           0        0.842841    2.221686    0.032291
     28          1           0        0.848515    1.483950   -1.560271
     29          1           0       -1.589101    2.661910   -0.349316
     30          1           0       -3.887354    1.861845   -0.024624
     31          1           0       -2.422214   -2.166983    0.237597
     32          1           0       -5.595456    0.798990    1.150756
     33          1           0       -5.768635    0.613315   -0.619318
     34          1           0       -6.525272   -0.571408    0.482396
 ---------------------------------------------------------------------

 SCF Done:  E(UB3LYP) =  -695.025264131     A.U. after   33 cycles
 SCF Done:  E(UB3LYP) =  -695.025264131     a.u. after    1 cycles

 The electronic state is 2-A.
 Alpha  occ. eigenvalues --  -19.06271 -19.00964 -10.15561 -10.14140 -10.13011
 Alpha  occ. eigenvalues --  -10.09193 -10.09070 -10.08602 -10.08292 -10.08179
 Alpha  occ. eigenvalues --  -10.08014 -10.07930 -10.07919 -10.07713 -10.07635
 Alpha  occ. eigenvalues --  -10.07635  -0.97863  -0.94331  -0.77745  -0.73553
 Alpha  occ. eigenvalues --   -0.68882  -0.67762  -0.65071  -0.63988  -0.61530
 Alpha  occ. eigenvalues --   -0.58294  -0.54521  -0.51525  -0.50373  -0.46335
 Alpha  occ. eigenvalues --   -0.43836  -0.43562  -0.40696  -0.38618  -0.37898
 Alpha  occ. eigenvalues --   -0.37326  -0.36574  -0.35745  -0.35647  -0.34237
 Alpha  occ. eigenvalues --   -0.33947  -0.33469  -0.32265  -0.30604  -0.30537
 Alpha  occ. eigenvalues --   -0.29816  -0.28893  -0.28039  -0.27454  -0.27161
 Alpha  occ. eigenvalues --   -0.26157  -0.24514  -0.23951  -0.23032  -0.22497
 Alpha  occ. eigenvalues --   -0.22028  -0.15764  -0.15166  -0.12817   0.03920
 Alpha virt. eigenvalues --    0.05150   0.06482   0.07105   0.07152   0.07527
 Alpha virt. eigenvalues --    0.08200   0.08566   0.09053   0.09397   0.09782
 Alpha virt. eigenvalues --    0.10019   0.10460   0.10601   0.11422   0.11873

  Beta  occ. eigenvalues --  -19.06263 -19.00864 -10.15443 -10.14141 -10.12963
  Beta  occ. eigenvalues --  -10.09179 -10.09061 -10.08600 -10.08294 -10.08172
  Beta  occ. eigenvalues --  -10.07995 -10.07913 -10.07912 -10.07690 -10.07632
  Beta  occ. eigenvalues --  -10.07632  -0.97844  -0.94127  -0.77727  -0.73524
  Beta  occ. eigenvalues --   -0.68840  -0.67709  -0.64978  -0.63958  -0.61478
  Beta  occ. eigenvalues --   -0.58236  -0.54495  -0.51496  -0.50318  -0.46291
  Beta  occ. eigenvalues --   -0.43654  -0.43512  -0.40659  -0.38555  -0.37867
  Beta  occ. eigenvalues --   -0.37283  -0.36456  -0.35693  -0.35564  -0.34134
  Beta  occ. eigenvalues --   -0.33891  -0.33403  -0.32233  -0.30565  -0.30491
  Beta  occ. eigenvalues --   -0.29755  -0.28860  -0.28004  -0.27420  -0.27130
  Beta  occ. eigenvalues --   -0.25802  -0.24470  -0.23871  -0.22977  -0.22453
  Beta  occ. eigenvalues --   -0.22006  -0.15730  -0.15078  -0.12800
  Beta virt. eigenvalues --    0.06147   0.06469   0.06892   0.07393   0.07631
  Beta virt. eigenvalues --    0.07854   0.08678   0.08920   0.09240   0.09916
  Beta virt. eigenvalues --    0.10220   0.10262   0.10515   0.10710   0.11790

 Mulliken charges and spin densities:
               1          2
     1  C    0.793121  -1.373030
     2  C   -0.803321   0.955468
     3  O   -0.263782   0.021557
     4  C   -0.050334  -0.451697
     5  C    0.862950   0.115885
     6  C   -0.331288  -0.476105
     7  C   -0.515971   0.421805
     8  C   -0.254569   0.515450
     9  C    1.305091  -1.363206
    10  C    0.003556  -1.014062
    11  C    0.271209  -0.439475
    12  C   -0.025713   0.195288
    13  C   -0.441739   0.036959
    14  C   -0.749440   0.599137
    15  O   -0.209533   0.052023
    16  C    0.857879  -1.192592
    17  H    0.057089   0.090819
    18  H   -0.172722   0.320045
    19  H   -0.407806   0.588124
    20  H   -0.297995   0.469065
    21  H    0.006604   0.168441
    22  H    0.246196  -0.125306
    23  H    0.093451   0.052951
    24  H    0.215673  -0.028310
    25  H    0.142631   0.005328
    26  H    0.102562   0.078374
    27  H   -0.115683   0.278815
    28  H    0.193561  -0.016276
    29  H   -0.426510   0.593003
    30  H   -0.249254   0.433755
    31  H    0.146662   0.021293
    32  H   -0.222234   0.377399
    33  H   -0.239320   0.396199
    34  H   -0.521022   0.692877
 Sum of Mulliken charges =  -1.00000   1.00000

 Dipole moment (field-independent basis, Debye):
    X=              1.1088    Y=             -3.9074    Z=             -0.9815  Tot=              4.1786
 Quadrupole moment (field-independent basis, Debye-Ang):
   XX=           -242.1857   YY=           -135.3280   ZZ=           -123.1849
   XY=             -0.1129   XZ=              0.3546   YZ=             -4.6084

 Summary of Natural Population Analysis:

                                       Natural Population
                Natural  -----------------------------------------------
    Atom  No    Charge         Core      Valence    Rydberg      Total
 -----------------------------------------------------------------------
      C    1   -0.33522      0.99962     2.33032    0.00529     3.33522
      C    2    0.30733      0.99968     1.67178    0.02121     2.69267
      O    3   -0.28572      0.99987     3.27939    0.00646     4.28572
      C    4   -0.23407      0.99957     2.22449    0.01002     3.23407
      C    5   -0.10302      0.99959     2.09363    0.00981     3.10302
      C    6   -0.18931      0.99961     2.18214    0.00755     3.18931
      C    7   -0.19381      0.99960     2.18654    0.00766     3.19381
      C    8   -0.00559      0.99948     1.99828    0.00784     3.00559
      C    9   -0.03051      0.99947     2.02172    0.00932     3.03051
      C   10   -0.19065      0.99959     2.18149    0.00957     3.19065
      C   11   -0.08400      0.99953     2.07484    0.00964     3.08400
      C   12   -0.14299      0.99952     2.13482    0.00865     3.14299
      C   13    0.16072      0.99938     1.82601    0.01389     2.83928
      C   14   -0.11823      0.99948     2.11014    0.00861     3.11823
      O   15   -0.27475      0.99986     3.26512    0.00978     4.27475
      C   16   -0.10076      0.99960     2.09199    0.00917     3.10076
      H   17    0.10641      0.00000     0.39269    0.00090     0.39359
      H   18    0.10646      0.00000     0.39248    0.00106     0.39354
      H   19    0.11492      0.00000     0.38202    0.00306     0.38508
      H   20    0.10768      0.00000     0.39031    0.00202     0.39232
      H   21    0.10705      0.00000     0.39188    0.00106     0.39295
      H   22    0.09327      0.00000     0.40475    0.00198     0.40673
      H   23    0.09438      0.00000     0.40452    0.00110     0.40562
      H   24    0.10886      0.00000     0.39014    0.00100     0.39114
      H   25    0.10120      0.00000     0.39769    0.00111     0.39880
      H   26    0.10115      0.00000     0.39757    0.00128     0.39885
      H   27    0.10569      0.00000     0.39301    0.00130     0.39431
      H   28    0.09995      0.00000     0.39885    0.00119     0.40005
      H   29    0.09942      0.00000     0.39911    0.00147     0.40058
      H   30    0.10740      0.00000     0.39108    0.00152     0.39260
      H   31    0.10187      0.00000     0.39666    0.00148     0.39813
      H   32    0.08540      0.00000     0.41276    0.00184     0.41460
      H   33    0.08547      0.00000     0.41271    0.00182     0.41453
      H   34    0.09401      0.00000     0.40462    0.00137     0.40599
 =======================================================================
   * Total *    0.00000     15.99345    42.82551    0.18104    59.00000

 Normal termination of Gaussian 16 at Thu Dec 10 23:59:31 2020.
