 Gaussian 16, Revision A.03,

 -----------------------------------------------------------
 # opt freq B3LYP/6-31G(d) empiricaldispersion=gd3bj scf=xqc
 -----------------------------------------------------------

 ------------------------------
 CID_63862515_JID_6792_neutraal
 ------------------------------
 Symbolic Z-matrix:
 Charge =  0 Multiplicity = 1

 SCF Done:  E(RB3LYP) =  -715.709905416     A.U. after   14 cycles
 SCF Done:  E(RB3LYP) =  -715.710835917     A.U. after   13 cycles
 SCF Done:  E(RB3LYP) =  -715.710972526     A.U. after   13 cycles
 SCF Done:  E(RB3LYP) =  -715.713785765     A.U. after   13 cycles
 SCF Done:  E(RB3LYP) =  -715.715235882     A.U. after   12 cycles
 SCF Done:  E(RB3LYP) =  -715.716167615     A.U. after   12 cycles
 SCF Done:  E(RB3LYP) =  -715.716920350     A.U. after   11 cycles
 SCF Done:  E(RB3LYP) =  -715.716997621     A.U. after   12 cycles
 SCF Done:  E(RB3LYP) =  -715.718236934     A.U. after   12 cycles
 SCF Done:  E(RB3LYP) =  -715.718299374     A.U. after   11 cycles
 SCF Done:  E(RB3LYP) =  -715.719640841     A.U. after    9 cycles
 SCF Done:  E(RB3LYP) =  -715.719642550     A.U. after    8 cycles
 SCF Done:  E(RB3LYP) =  -715.719643021     A.U. after    8 cycles
 SCF Done:  E(RB3LYP) =  -715.719643304     A.U. after    8 cycles
 SCF Done:  E(RB3LYP) =  -715.719643358     A.U. after    7 cycles
 Optimization completed.
    -- Stationary point found.
 Normal termination of Gaussian 16 at Fri Dec 11 01:20:06 2020.

 --------------------------------------------------------------------
 #N Geom=AllCheck Guess=TCheck SCRF=Check GenChk RB3LYP/6-31G(d) Freq
 --------------------------------------------------------------------

 Structure from the checkpoint file:  "JID_6792.chk"
 ------------------------------
 CID_63862515_JID_6792_neutraal
 ------------------------------
 Charge =  0 Multiplicity = 1

 SCF Done:  E(RB3LYP) =  -715.719643358     A.U. after    1 cycles

  Exact polarizability: 156.317   1.775 138.718   2.804   3.715 138.265
 Approx polarizability: 207.583   8.359 201.169   6.031   2.150 197.295

                      1                      2                      3
                      A                      A                      A
 Frequencies --     29.9897                40.3202                50.2886
 Red. masses --      4.8327                 3.9243                 6.2561
 Frc consts  --      0.0026                 0.0038                 0.0093
 IR Inten    --      0.1319                 0.9708                 0.9275

                      4                      5                      6
                      A                      A                      A
 Frequencies --     55.6945                73.3061               114.1674
 Red. masses --      3.5484                 5.1266                 2.5332
 Frc consts  --      0.0065                 0.0162                 0.0195
 IR Inten    --      0.6890                 1.0255                 0.0489

                      7                      8                      9
                      A                      A                      A
 Frequencies --    132.3934               147.3136               172.2582
 Red. masses --      2.4849                 2.5326                 2.2379
 Frc consts  --      0.0257                 0.0324                 0.0391
 IR Inten    --      0.3096                 0.0576                 0.0155

                     10                     11                     12
                      A                      A                      A
 Frequencies --    183.3035               195.8127               228.4031
 Red. masses --      2.2704                 1.8791                 1.5859
 Frc consts  --      0.0449                 0.0425                 0.0487
 IR Inten    --      0.1349                 0.2048                 0.1846

                     13                     14                     15
                      A                      A                      A
 Frequencies --    260.3680               269.5980               282.6315
 Red. masses --      1.7466                 1.6762                 3.2681
 Frc consts  --      0.0698                 0.0718                 0.1538
 IR Inten    --      2.9345                 0.0219                 1.3267

                     16                     17                     18
                      A                      A                      A
 Frequencies --    311.1538               313.9038               368.0929
 Red. masses --      2.6623                 2.2220                 2.4717
 Frc consts  --      0.1519                 0.1290                 0.1973
 IR Inten    --      0.8181                 2.8200                 2.5367

                     19                     20                     21
                      A                      A                      A
 Frequencies --    382.7201               393.8580               433.0773
 Red. masses --      2.5985                 2.7313                 2.3001
 Frc consts  --      0.2243                 0.2496                 0.2542
 IR Inten    --      0.3062                 2.0179                 0.6249

                     22                     23                     24
                      A                      A                      A
 Frequencies --    466.6474               486.1244               494.6763
 Red. masses --      1.8552                 2.5545                 2.0600
 Frc consts  --      0.2380                 0.3557                 0.2970
 IR Inten    --      2.6327                 7.2108                 0.8172

                     25                     26                     27
                      A                      A                      A
 Frequencies --    536.1374               557.9105               611.9553
 Red. masses --      2.9609                 2.4075                 1.9130
 Frc consts  --      0.5015                 0.4415                 0.4221
 IR Inten    --     25.5176                 4.0466                58.3027

                     28                     29                     30
                      A                      A                      A
 Frequencies --    646.9977               712.5875               753.8945
 Red. masses --      1.8987                 2.3594                 2.0836
 Frc consts  --      0.4683                 0.7059                 0.6977
 IR Inten    --     41.4570                56.4834                 4.5879

                     31                     32                     33
                      A                      A                      A
 Frequencies --    780.9573               797.5104               804.7856
 Red. masses --      1.6084                 1.5472                 1.4009
 Frc consts  --      0.5780                 0.5798                 0.5346
 IR Inten    --      8.9322                 1.4086                 7.8268

                     34                     35                     36
                      A                      A                      A
 Frequencies --    850.9322               856.4297               861.8136
 Red. masses --      2.7842                 4.4985                 2.5405
 Frc consts  --      1.1878                 1.9440                 1.1117
 IR Inten    --      2.3497                 5.6884                 1.9725

                     37                     38                     39
                      A                      A                      A
 Frequencies --    886.5456               908.6471               916.5812
 Red. masses --      1.7787                 1.4643                 1.9271
 Frc consts  --      0.8237                 0.7123                 0.9539
 IR Inten    --      2.0504                 0.5102                 0.4536

                     40                     41                     42
                      A                      A                      A
 Frequencies --    931.2271               941.7280               974.3402
 Red. masses --      1.6658                 1.9409                 2.2451
 Frc consts  --      0.8511                 1.0141                 1.2557
 IR Inten    --      7.6013                 4.3601                34.9264

                     43                     44                     45
                      A                      A                      A
 Frequencies --   1007.3888              1042.4753              1044.6826
 Red. masses --      1.8883                 1.9433                 2.0013
 Frc consts  --      1.1291                 1.2443                 1.2869
 IR Inten    --      7.3623                 2.2087                 2.3072

                     46                     47                     48
                      A                      A                      A
 Frequencies --   1049.9037              1060.7633              1095.6362
 Red. masses --      1.6118                 1.8914                 2.1714
 Frc consts  --      1.0468                 1.2539                 1.5358
 IR Inten    --      0.0703                 3.6978                32.4748

                     49                     50                     51
                      A                      A                      A
 Frequencies --   1109.9848              1114.7660              1123.4411
 Red. masses --      2.0884                 1.8770                 2.0657
 Frc consts  --      1.5160                 1.3743                 1.5361
 IR Inten    --      8.8785                 2.2672                13.2643

                     52                     53                     54
                      A                      A                      A
 Frequencies --   1125.8675              1157.1334              1171.7775
 Red. masses --      1.4091                 1.5262                 2.0169
 Frc consts  --      1.0524                 1.2040                 1.6316
 IR Inten    --      4.4196                 7.8207               119.6382

                     55                     56                     57
                      A                      A                      A
 Frequencies --   1180.1050              1217.7297              1234.9364
 Red. masses --      1.9697                 2.0269                 1.8729
 Frc consts  --      1.6162                 1.7708                 1.6829
 IR Inten    --     24.6267                55.4207                26.5588

                     58                     59                     60
                      A                      A                      A
 Frequencies --   1252.2876              1286.3325              1292.4920
 Red. masses --      2.0013                 1.2842                 1.2318
 Frc consts  --      1.8492                 1.2520                 1.2124
 IR Inten    --     31.4469                 1.1183                 4.6102

                     61                     62                     63
                      A                      A                      A
 Frequencies --   1307.3895              1312.3670              1319.0422
 Red. masses --      1.2020                 1.1942                 1.4052
 Frc consts  --      1.2105                 1.2118                 1.4405
 IR Inten    --      0.6782                 2.4899                 2.7346

                     64                     65                     66
                      A                      A                      A
 Frequencies --   1340.4904              1345.3540              1372.6543
 Red. masses --      1.2674                 1.3067                 1.8000
 Frc consts  --      1.3418                 1.3935                 1.9982
 IR Inten    --      1.1017                 1.0870                26.0179

                     67                     68                     69
                      A                      A                      A
 Frequencies --   1377.9670              1380.8716              1391.1361
 Red. masses --      1.4163                 1.3899                 1.4357
 Frc consts  --      1.5844                 1.5615                 1.6370
 IR Inten    --     17.4396                 1.1570                 3.5054

                     70                     71                     72
                      A                      A                      A
 Frequencies --   1394.3642              1395.2902              1405.1424
 Red. masses --      1.5698                 1.4516                 1.3724
 Frc consts  --      1.7982                 1.6650                 1.5965
 IR Inten    --     10.3528                 8.0560                 0.9071

                     73                     74                     75
                      A                      A                      A
 Frequencies --   1410.8240              1414.6206              1420.4921
 Red. masses --      1.4029                 1.2732                 1.5855
 Frc consts  --      1.6452                 1.5011                 1.8849
 IR Inten    --      1.2640                 7.7671                 4.0201

                     76                     77                     78
                      A                      A                      A
 Frequencies --   1426.4113              1441.8084              1443.6276
 Red. masses --      1.4887                 1.2602                 1.2701
 Frc consts  --      1.7847                 1.5435                 1.5596
 IR Inten    --     27.9658                10.0126                 8.7525

                     79                     80                     81
                      A                      A                      A
 Frequencies --   1459.8448              1492.4920              1510.7393
 Red. masses --      1.3074                 1.0813                 1.0867
 Frc consts  --      1.6417                 1.4191                 1.4613
 IR Inten    --      8.0538                11.0926                 3.4780

                     82                     83                     84
                      A                      A                      A
 Frequencies --   1514.4268              1520.6047              1522.1067
 Red. masses --      1.0759                 1.0800                 1.0770
 Frc consts  --      1.4539                 1.4713                 1.4702
 IR Inten    --      1.4304                 2.6259                 1.9407

                     85                     86                     87
                      A                      A                      A
 Frequencies --   1525.1313              1528.4883              1530.9162
 Red. masses --      1.0815                 1.0451                 1.0705
 Frc consts  --      1.4822                 1.4385                 1.4782
 IR Inten    --      1.4345                 3.1671                 6.3685

                     88                     89                     90
                      A                      A                      A
 Frequencies --   1534.1520              1539.5445              1541.3512
 Red. masses --      1.0568                 1.0598                 1.0782
 Frc consts  --      1.4654                 1.4801                 1.5092
 IR Inten    --      9.5048                10.0621                 3.5209

                     91                     92                     93
                      A                      A                      A
 Frequencies --   1543.5481              1835.8118              2975.1184
 Red. masses --      1.0937                 9.5427                 1.0818
 Frc consts  --      1.5353                18.9485                 5.6416
 IR Inten    --      2.4197               237.9497                24.6046

                     94                     95                     96
                      A                      A                      A
 Frequencies --   3019.6976              3022.6295              3030.3415
 Red. masses --      1.0674                 1.0672                 1.0670
 Frc consts  --      5.7348                 5.7449                 5.7729
 IR Inten    --     30.5485                15.9478                 4.5883

                     97                     98                     99
                      A                      A                      A
 Frequencies --   3032.1302              3035.1843              3043.5404
 Red. masses --      1.0659                 1.0699                 1.0479
 Frc consts  --      5.7739                 5.8072                 5.7190
 IR Inten    --     44.6500                 7.9394                 4.1054

                    100                    101                    102
                      A                      A                      A
 Frequencies --   3044.9292              3045.9838              3047.3153
 Red. masses --      1.0385                 1.0665                 1.0663
 Frc consts  --      5.6728                 5.8301                 5.8341
 IR Inten    --     15.0557                76.0012                65.3985

                    103                    104                    105
                      A                      A                      A
 Frequencies --   3050.2211              3054.8936              3058.7252
 Red. masses --      1.0698                 1.0738                 1.0985
 Frc consts  --      5.8641                 5.9044                 6.0550
 IR Inten    --     53.2554                30.6437                35.8239

                    106                    107                    108
                      A                      A                      A
 Frequencies --   3072.9807              3075.0844              3089.2386
 Red. masses --      1.1002                 1.0945                 1.0933
 Frc consts  --      6.1213                 6.0980                 6.1472
 IR Inten    --     34.6978                51.1051                 0.6110

                    109                    110                    111
                      A                      A                      A
 Frequencies --   3098.7241              3107.3663              3108.2341
 Red. masses --      1.0945                 1.0970                 1.1004
 Frc consts  --      6.1921                 6.2407                 6.2634
 IR Inten    --      9.4302                34.1360                23.2274

                    112                    113                    114
                      A                      A                      A
 Frequencies --   3110.5698              3112.5515              3123.3027
 Red. masses --      1.1007                 1.1002                 1.1013
 Frc consts  --      6.2745                 6.2800                 6.3294
 IR Inten    --    124.4004                49.0666                35.0497

                    115                    116                    117
                      A                      A                      A
 Frequencies --   3129.3130              3132.7340              3683.3747
 Red. masses --      1.0913                 1.0913                 1.0641
 Frc consts  --      6.2964                 6.3103                 8.5060
 IR Inten    --     30.0056                17.5198                48.1574

 - Thermochemistry -
 -------------------
 Temperature   298.150 Kelvin.  Pressure   1.00000 Atm.
 Atom     1 has atomic number  6 and mass  12.00000

 Molecular mass:   227.18853 amu.
 Principal axes and moments of inertia in atomic units:
                           1         2         3
     Eigenvalues --  3321.129324021.336304659.95640
           X            0.99874  -0.05017   0.00120
           Y            0.04991   0.99560   0.07936
           Z           -0.00517  -0.07920   0.99685
 This molecule is an asymmetric top.
 Rotational symmetry number  1.
 Warning -- assumption of classical behavior for rotation
           may cause significant error
 Rotational temperatures (Kelvin)      0.02608     0.02154     0.01859
 Rotational constants (GHZ):           0.54341     0.44879     0.38729
 Zero-point vibrational energy     984454.8 (Joules/Mol)
                                  235.29033 (Kcal/Mol)
 Warning -- explicit consideration of  27 degrees of freedom as
           vibrations may cause significant error
 Vibrational temperatures:     43.15    58.01    72.35    80.13   105.47
          (Kelvin)            164.26   190.48   211.95   247.84   263.73
                              281.73   328.62   374.61   387.89   406.64
                              447.68   451.64   529.60   550.65   566.67
                              623.10   671.40   699.42   711.73   771.38
                              802.71   880.47   930.89  1025.25  1084.69
                             1123.62  1147.44  1157.91  1224.30  1232.21
                             1239.96  1275.54  1307.34  1318.76  1339.83
                             1354.94  1401.86  1449.41  1499.89  1503.07
                             1510.58  1526.20  1576.38  1597.02  1603.90
                             1616.38  1619.87  1664.86  1685.93  1697.91
                             1752.04  1776.80  1801.76  1850.75  1859.61
                             1881.04  1888.20  1897.81  1928.67  1935.66
                             1974.94  1982.59  1986.77  2001.53  2006.18
                             2007.51  2021.69  2029.86  2035.32  2043.77
                             2052.29  2074.44  2077.06  2100.39  2147.36
                             2173.62  2178.92  2187.81  2189.97  2194.32
                             2199.15  2202.65  2207.30  2215.06  2217.66
                             2220.82  2641.32  4280.53  4344.67  4348.89
                             4359.99  4362.56  4366.95  4378.98  4380.97
                             4382.49  4384.41  4388.59  4395.31  4400.82
                             4421.33  4424.36  4444.73  4458.37  4470.81
                             4472.06  4475.42  4478.27  4493.74  4502.38
                             4507.31  5299.55

 Zero-point correction=                           0.374959 (Hartree/Particle)
 Thermal correction to Energy=                    0.392639
 Thermal correction to Enthalpy=                  0.393583
 Thermal correction to Gibbs Free Energy=         0.328889
 Sum of electronic and zero-point Energies=           -715.344684
 Sum of electronic and thermal Energies=              -715.327004
 Sum of electronic and thermal Enthalpies=            -715.326060
 Sum of electronic and thermal Free Energies=         -715.390754

                     E (Thermal)             CV                S
                      KCal/Mol        Cal/Mol-Kelvin    Cal/Mol-Kelvin
 Total                  246.385             67.015            136.160
 Electronic               0.000              0.000              0.000
 Translational            0.889              2.981             42.164
 Rotational               0.889              2.981             32.498
 Vibrational            244.607             61.054             61.498
 Vibration     1          0.594              1.984              5.830
 Vibration     2          0.594              1.981              5.243
 Vibration     3          0.595              1.977              4.806
 Vibration     4          0.596              1.975              4.604
 Vibration     5          0.599              1.967              4.063
 Vibration     6          0.607              1.938              3.197
 Vibration     7          0.613              1.921              2.911
 Vibration     8          0.617              1.906              2.707
 Vibration     9          0.626              1.877              2.411
 Vibration    10          0.631              1.863              2.295
 Vibration    11          0.636              1.846              2.172
 Vibration    12          0.651              1.798              1.891
 Vibration    13          0.668              1.745              1.659
 Vibration    14          0.674              1.729              1.599
 Vibration    15          0.682              1.706              1.518
 Vibration    16          0.700              1.652              1.356
 Vibration    17          0.702              1.647              1.342
 Vibration    18          0.741              1.538              1.088
 Vibration    19          0.752              1.507              1.028
 Vibration    20          0.761              1.483              0.986
 Vibration    21          0.794              1.398              0.849
 Vibration    22          0.824              1.324              0.747
 Vibration    23          0.842              1.281              0.694
 Vibration    24          0.850              1.262              0.672
 Vibration    25          0.891              1.170              0.574
 Vibration    26          0.913              1.122              0.528
 Vibration    27          0.971              1.007              0.430

 Optimization completed.
    -- Stationary point found.
 Normal termination of Gaussian 16 at Fri Dec 11 01:37:35 2020.

 ----------------------------------------------------------------------
 # B3LYP/6-311++G(d,p) empiricaldispersion=gd3bj scf=xqc pop=npa geom=c
 heck
 ----------------------------------------------------------------------

 --------------------------------------
 CID_63862515_JID_6792_Energie_neutraal
 --------------------------------------
 Structure from the checkpoint file:  "JID_6792.chk"
 Charge =  0 Multiplicity = 1

 SCF Done:  E(RB3LYP) =  -715.928493091     A.U. after   15 cycles
 Normal termination of Gaussian 16 at Fri Dec 11 01:45:36 2020.

 ----------------------------------------------------------------------
 # B3LYP/6-311++G(d,p) empiricaldispersion=gd3bj scf=xqc pop=npa geom=c
 heck
 ----------------------------------------------------------------------

 ------------------------------------
 CID_63862515_JID_6792_Energie_kation
 ------------------------------------
 Structure from the checkpoint file:  "JID_6792.chk"
 Charge =  1 Multiplicity = 2

 SCF Done:  E(UB3LYP) =  -715.662772634     A.U. after   20 cycles
 Normal termination of Gaussian 16 at Fri Dec 11 01:59:48 2020.
 Gaussian 16:  ES64L-G16RevA.03 25-Dec-2016

 ----------------------------------------------------------------------
 # B3LYP/6-311++G(d,p) empiricaldispersion=gd3bj scf=xqc pop=npa geom=c
 heck
 ----------------------------------------------------------------------

 -----------------------------------
 CID_63862515_JID_6792_Energie_anion
 -----------------------------------
 Structure from the checkpoint file:  "JID_6792.chk"
 Charge = -1 Multiplicity = 2

                         Standard orientation:
 ---------------------------------------------------------------------
 Center     Atomic      Atomic             Coordinates (Angstroms)
 Number     Number       Type             X           Y           Z
 ---------------------------------------------------------------------
      1          6           0        3.484376   -0.123422   -1.511975
      2          6           0        3.279167   -0.824849   -0.168620
      3          6           0        2.082141   -0.280198    0.631137
      4          7           0        0.792983   -0.415380   -0.030311
      5          6           0        0.255283   -1.742942   -0.114429
      6          6           0       -0.839989   -2.089255    0.892448
      7          8           0       -1.859243   -2.693532    0.637051
      8          8           0       -0.542253   -1.661907    2.145072
      9          6           0        0.199273    0.741391   -0.709745
     10          6           0       -0.445459    0.406034   -2.076127
     11          6           0       -1.886437   -0.133115   -2.024593
     12          6           0       -2.791642    0.771440   -1.183218
     13          6           0       -2.199408    0.990211    0.211840
     14          6           0       -0.790851    1.600842    0.142434
     15          6           0       -0.254291    1.949277    1.539263
     16          6           0        0.824129    3.038225    1.541601
     17          1           0        2.603496   -0.241659   -2.151747
     18          1           0        4.346468   -0.533109   -2.049642
     19          1           0        3.656330    0.951598   -1.375139
     20          1           0        3.153178   -1.903662   -0.336006
     21          1           0        4.179300   -0.719926    0.453013
     22          1           0        2.044648   -0.773689    1.612447
     23          1           0        2.251931    0.779472    0.836192
     24          1           0       -0.145735   -1.982027   -1.101312
     25          1           0        1.063681   -2.464661    0.063852
     26          1           0       -1.295970   -1.927411    2.704884
     27          1           0        1.050752    1.393718   -0.934782
     28          1           0       -0.461974    1.340178   -2.653646
     29          1           0        0.208647   -0.281712   -2.626350
     30          1           0       -1.923672   -1.142564   -1.602850
     31          1           0       -2.272655   -0.212666   -3.048674
     32          1           0       -3.795674    0.336573   -1.110371
     33          1           0       -2.903097    1.746471   -1.680569
     34          1           0       -2.177649    0.040821    0.759122
     35          1           0       -2.847324    1.660002    0.792319
     36          1           0       -0.896398    2.546500   -0.416241
     37          1           0       -1.093359    2.299390    2.155644
     38          1           0        0.111611    1.034663    2.018972
     39          1           0        0.419492    3.986101    1.166320
     40          1           0        1.207771    3.216531    2.552509
     41          1           0        1.679530    2.780418    0.907158
 ---------------------------------------------------------------------

 SCF Done:  E(UB3LYP) =  -715.915347508     A.U. after   33 cycles
 SCF Done:  E(UB3LYP) =  -715.915347508     a.u. after    1 cycles

 The electronic state is 2-A.
 Alpha  occ. eigenvalues --  -19.07465 -19.02342 -14.20267 -10.20834 -10.11511
 Alpha  occ. eigenvalues --  -10.10437 -10.09316 -10.07077 -10.06815 -10.06777
 Alpha  occ. eigenvalues --  -10.06740 -10.06630 -10.06269 -10.06183 -10.06068
 Alpha  occ. eigenvalues --  -10.05951  -1.01547  -0.92694  -0.82997  -0.73356
 Alpha  occ. eigenvalues --   -0.68428  -0.67958  -0.65639  -0.63126  -0.61646
 Alpha  occ. eigenvalues --   -0.56744  -0.53381  -0.52571  -0.50564  -0.48337
 Alpha  occ. eigenvalues --   -0.47811  -0.45658  -0.40457  -0.39862  -0.38718
 Alpha  occ. eigenvalues --   -0.38228  -0.36851  -0.36115  -0.35199  -0.34974
 Alpha  occ. eigenvalues --   -0.33891  -0.32971  -0.32508  -0.31520  -0.30845
 Alpha  occ. eigenvalues --   -0.30132  -0.29392  -0.28637  -0.28128  -0.27098
 Alpha  occ. eigenvalues --   -0.26614  -0.25429  -0.25167  -0.24390  -0.24287
 Alpha  occ. eigenvalues --   -0.23803  -0.23436  -0.22787  -0.21996  -0.20775
 Alpha  occ. eigenvalues --   -0.19944  -0.19449  -0.10160   0.04200
 Alpha virt. eigenvalues --    0.06134   0.06387   0.06944   0.08024   0.08286
 Alpha virt. eigenvalues --    0.08504   0.08821   0.09298   0.09616   0.10351
 Alpha virt. eigenvalues --    0.10761   0.11433   0.11761   0.11840   0.12406

  Beta  occ. eigenvalues --  -19.07428 -19.02329 -14.20267 -10.20822 -10.11490
  Beta  occ. eigenvalues --  -10.10433 -10.09304 -10.07063 -10.06808 -10.06769
  Beta  occ. eigenvalues --  -10.06734 -10.06608 -10.06258 -10.06162 -10.06057
  Beta  occ. eigenvalues --  -10.05920  -1.01491  -0.92648  -0.82987  -0.73336
  Beta  occ. eigenvalues --   -0.68398  -0.67926  -0.65607  -0.63092  -0.61611
  Beta  occ. eigenvalues --   -0.56695  -0.53333  -0.52514  -0.50508  -0.48273
  Beta  occ. eigenvalues --   -0.47769  -0.45623  -0.40420  -0.39831  -0.38691
  Beta  occ. eigenvalues --   -0.38199  -0.36815  -0.36087  -0.35158  -0.34948
  Beta  occ. eigenvalues --   -0.33860  -0.32940  -0.32484  -0.31493  -0.30810
  Beta  occ. eigenvalues --   -0.30101  -0.29367  -0.28603  -0.28100  -0.27070
  Beta  occ. eigenvalues --   -0.26584  -0.25405  -0.25134  -0.24361  -0.24250
  Beta  occ. eigenvalues --   -0.23769  -0.23401  -0.22756  -0.21969  -0.20750
  Beta  occ. eigenvalues --   -0.19923  -0.19418  -0.10146
  Beta virt. eigenvalues --    0.06181   0.06980   0.07198   0.07347   0.08313
  Beta virt. eigenvalues --    0.08703   0.08818   0.09274   0.09538   0.09831
  Beta virt. eigenvalues --    0.10754   0.11000   0.11623   0.12001   0.12136

 Mulliken charges and spin densities:
               1          2
     1  C    0.705379  -1.187731
     2  C   -0.522085   0.167940
     3  C    0.102414  -0.094578
     4  N    0.188336   0.222454
     5  C   -0.273967  -0.020933
     6  C    0.485706  -0.787340
     7  O   -0.224719   0.049286
     8  O   -0.180751   0.069814
     9  C    0.271292  -0.390475
    10  C   -0.092027  -0.606710
    11  C   -0.342450   0.228592
    12  C    0.190492  -0.971010
    13  C   -0.278343   0.203331
    14  C    0.065940  -0.169148
    15  C   -0.428180   0.274114
    16  C    0.213828  -0.873814
    17  H   -0.081742   0.243479
    18  H   -0.450598   0.613531
    19  H   -0.084673   0.213067
    20  H   -0.000025   0.099542
    21  H   -0.333077   0.487730
    22  H   -0.132770   0.315248
    23  H    0.540434  -0.432062
    24  H   -0.014361   0.257613
    25  H   -0.054095   0.207217
    26  H   -0.247954   0.531293
    27  H    0.604185  -0.446622
    28  H   -0.198684   0.360976
    29  H    0.034889   0.081911
    30  H    0.226587  -0.100390
    31  H   -0.078726   0.259322
    32  H    0.015449   0.150957
    33  H    0.073389   0.042557
    34  H   -0.032409   0.250264
    35  H   -0.099168   0.263712
    36  H   -0.086694   0.267131
    37  H   -0.227275   0.388385
    38  H    0.248948  -0.086514
    39  H   -0.057616   0.182220
    40  H   -0.138220   0.283443
    41  H   -0.306660   0.452197
 Sum of Mulliken charges =  -1.00000   1.00000

 Dipole moment (field-independent basis, Debye):
    X=             -2.0535    Y=              0.2910    Z=             -1.1647  Tot=              2.3786
 Quadrupole moment (field-independent basis, Debye-Ang):
   XX=           -168.1000   YY=           -152.9945   ZZ=           -150.3099
   XY=             -2.0846   XZ=              7.2975   YZ=              0.7304

 Summary of Natural Population Analysis:

                                       Natural Population
                Natural  -----------------------------------------------
    Atom  No    Charge         Core      Valence    Rydberg      Total
 -----------------------------------------------------------------------
      C    1   -0.28739      0.99966     2.28232    0.00541     3.28739
      C    2   -0.19472      0.99963     2.18762    0.00747     3.19472
      C    3   -0.07820      0.99959     2.06725    0.01136     3.07820
      N    4   -0.29911      0.99968     2.78261    0.01681     3.79911
      C    5   -0.12909      0.99954     2.11775    0.01180     3.12909
      C    6    0.40132      0.99972     1.57365    0.02531     2.59868
      O    7   -0.30911      0.99987     3.30331    0.00594     4.30911
      O    8   -0.34261      0.99987     3.33567    0.00707     4.34261
      C    9    0.00841      0.99954     1.97815    0.01390     2.99159
      C   10   -0.19604      0.99961     2.18759    0.00884     3.19604
      C   11   -0.19481      0.99962     2.18773    0.00746     3.19481
      C   12   -0.18626      0.99963     2.17903    0.00760     3.18626
      C   13   -0.18982      0.99960     2.18147    0.00875     3.18982
      C   14   -0.11092      0.99956     2.10025    0.01111     3.11092
      C   15   -0.19386      0.99961     2.18525    0.00900     3.19386
      C   16   -0.28184      0.99966     2.27807    0.00410     3.28184
      H   17    0.09740      0.00000     0.40106    0.00154     0.40260
      H   18    0.09911      0.00000     0.39978    0.00111     0.40089
      H   19    0.09510      0.00000     0.40376    0.00114     0.40490
      H   20    0.09168      0.00000     0.40706    0.00126     0.40832
      H   21    0.09527      0.00000     0.40345    0.00128     0.40473
      H   22    0.09529      0.00000     0.40304    0.00167     0.40471
      H   23    0.09678      0.00000     0.40153    0.00169     0.40322
      H   24    0.10529      0.00000     0.39350    0.00121     0.39471
      H   25    0.11102      0.00000     0.38758    0.00140     0.38898
      H   26    0.24229      0.00000     0.25039    0.00732     0.25771
      H   27    0.09900      0.00000     0.39893    0.00208     0.40100
      H   28    0.09985      0.00000     0.39904    0.00111     0.40015
      H   29    0.10138      0.00000     0.39742    0.00120     0.39862
      H   30    0.09915      0.00000     0.39914    0.00171     0.40085
      H   31    0.09660      0.00000     0.40254    0.00086     0.40340
      H   32    0.09775      0.00000     0.40142    0.00083     0.40225
      H   33    0.09046      0.00000     0.40834    0.00119     0.40954
      H   34    0.09596      0.00000     0.40166    0.00238     0.40404
      H   35    0.09782      0.00000     0.40106    0.00111     0.40218
      H   36    0.09065      0.00000     0.40752    0.00183     0.40935
      H   37    0.09440      0.00000     0.40441    0.00119     0.40560
      H   38    0.10478      0.00000     0.39298    0.00224     0.39522
      H   39    0.09475      0.00000     0.40419    0.00106     0.40525
      H   40    0.09817      0.00000     0.40098    0.00084     0.40183
      H   41    0.09410      0.00000     0.40468    0.00123     0.40590
 =======================================================================
   * Total *    0.00000     15.99440    46.80318    0.20242    63.00000

 Normal termination of Gaussian 16 at Fri Dec 11 02:23:26 2020.
