 Gaussian 16, Revision A.03,

 -----------------------------------------------------------
 # opt freq B3LYP/6-31G(d) empiricaldispersion=gd3bj scf=xqc
 -----------------------------------------------------------

 ------------------------------
 CID_79269798_JID_6401_neutraal
 ------------------------------
 Symbolic Z-matrix:
 Charge =  0 Multiplicity = 1

 SCF Done:  E(RB3LYP) =  -743.847065942     A.U. after   16 cycles
 SCF Done:  E(RB3LYP) =  -743.940422408     A.U. after   16 cycles
 SCF Done:  E(RB3LYP) =  -743.942390213     A.U. after   15 cycles
 SCF Done:  E(RB3LYP) =  -743.994868061     A.U. after   15 cycles
 SCF Done:  E(RB3LYP) =  -743.989777128     A.U. after   15 cycles
 SCF Done:  E(RB3LYP) =  -744.016884806     A.U. after   13 cycles
 SCF Done:  E(RB3LYP) =  -744.027915282     A.U. after   15 cycles
 SCF Done:  E(RB3LYP) =  -744.030921412     A.U. after   15 cycles
 SCF Done:  E(RB3LYP) =  -744.032295321     A.U. after   13 cycles
 SCF Done:  E(RB3LYP) =  -744.037241165     A.U. after   13 cycles
 SCF Done:  E(RB3LYP) =  -744.049960987     A.U. after    9 cycles
 SCF Done:  E(RB3LYP) =  -744.049963646     A.U. after   10 cycles
 SCF Done:  E(RB3LYP) =  -744.049964462     A.U. after    9 cycles
 SCF Done:  E(RB3LYP) =  -744.049964533     A.U. after    7 cycles
 SCF Done:  E(RB3LYP) =  -744.049964559     A.U. after    8 cycles
 Optimization completed.
    -- Stationary point found.
 Normal termination of Gaussian 16 at Thu Dec 10 23:03:58 2020.

 --------------------------------------------------------------------
 #N Geom=AllCheck Guess=TCheck SCRF=Check GenChk RB3LYP/6-31G(d) Freq
 --------------------------------------------------------------------

 Structure from the checkpoint file:  "JID_6401.chk"
 ------------------------------
 CID_79269798_JID_6401_neutraal
 ------------------------------
 Charge =  0 Multiplicity = 1

 SCF Done:  E(RB3LYP) =  -744.049964559     A.U. after    1 cycles

  Exact polarizability: 152.043  -8.221 126.946  15.306  -8.654 116.251
 Approx polarizability: 201.798  -9.851 172.864  36.360 -21.745 198.598

                      1                      2                      3
                      A                      A                      A
 Frequencies --     25.5765                35.6020                41.3672
 Red. masses --      5.7892                 5.0770                 3.9826
 Frc consts  --      0.0022                 0.0038                 0.0040
 IR Inten    --      0.3491                 2.8667                 1.3550

                      4                      5                      6
                      A                      A                      A
 Frequencies --     45.8719                61.8319                76.6406
 Red. masses --      3.9695                 4.4926                 4.9807
 Frc consts  --      0.0049                 0.0101                 0.0172
 IR Inten    --      0.3031                 3.3389                 3.0970

                      7                      8                      9
                      A                      A                      A
 Frequencies --     92.8981               123.0661               132.9301
 Red. masses --      6.1146                 3.9832                 3.3320
 Frc consts  --      0.0311                 0.0355                 0.0347
 IR Inten    --      1.3527                 5.0587                11.7128

                     10                     11                     12
                      A                      A                      A
 Frequencies --    158.7773               170.3870               213.1824
 Red. masses --      3.3160                 4.0841                 3.2750
 Frc consts  --      0.0493                 0.0699                 0.0877
 IR Inten    --      1.2311                 1.2433                 3.8683

                     13                     14                     15
                      A                      A                      A
 Frequencies --    230.0744               252.3824               274.0007
 Red. masses --      3.6242                 1.3092                 2.7709
 Frc consts  --      0.1130                 0.0491                 0.1226
 IR Inten    --      0.4052                 0.3946                 6.1850

                     16                     17                     18
                      A                      A                      A
 Frequencies --    300.9465               334.0505               350.2699
 Red. masses --      4.5188                 3.2486                 2.3592
 Frc consts  --      0.2411                 0.2136                 0.1705
 IR Inten    --      4.2898                 3.3032                 5.7924

                     19                     20                     21
                      A                      A                      A
 Frequencies --    362.5648               384.2912               408.2543
 Red. masses --      2.5266                 2.7709                 4.1088
 Frc consts  --      0.1957                 0.2411                 0.4035
 IR Inten    --      3.8317                 0.2057                 2.3447

                     22                     23                     24
                      A                      A                      A
 Frequencies --    418.1233               476.3391               528.3368
 Red. masses --      2.4349                 2.5839                 2.3842
 Frc consts  --      0.2508                 0.3454                 0.3921
 IR Inten    --      5.2768                12.7577                 4.7974

                     25                     26                     27
                      A                      A                      A
 Frequencies --    563.8149               590.5141               606.9904
 Red. masses --      5.2796                 3.4739                 1.1992
 Frc consts  --      0.9888                 0.7137                 0.2603
 IR Inten    --     13.5284                 8.3901                45.8467

                     28                     29                     30
                      A                      A                      A
 Frequencies --    614.6499               640.8669               696.9173
 Red. masses --      3.5270                 1.2203                 4.1180
 Frc consts  --      0.7851                 0.2953                 1.1784
 IR Inten    --      9.7053                43.8600                 9.9116

                     31                     32                     33
                      A                      A                      A
 Frequencies --    751.1715               822.7655               833.4413
 Red. masses --      3.3152                 2.6528                 1.7255
 Frc consts  --      1.1021                 1.0581                 0.7062
 IR Inten    --     11.8171                12.8857                66.8985

                     34                     35                     36
                      A                      A                      A
 Frequencies --    844.7406               914.1591               933.0827
 Red. masses --      2.5865                 2.7214                 2.5334
 Frc consts  --      1.0875                 1.3400                 1.2995
 IR Inten    --      4.6099                 1.6872                12.5465

                     37                     38                     39
                      A                      A                      A
 Frequencies --    940.8133               955.1638               991.7746
 Red. masses --      2.7253                 2.4284                 3.0831
 Frc consts  --      1.4212                 1.3054                 1.7868
 IR Inten    --      4.8430                 9.6517                25.4309

                     40                     41                     42
                      A                      A                      A
 Frequencies --   1006.7983              1016.1915              1050.0452
 Red. masses --      2.2246                 2.6285                 2.1876
 Frc consts  --      1.3286                 1.5992                 1.4211
 IR Inten    --     67.1663                 4.0084                16.1811

                     43                     44                     45
                      A                      A                      A
 Frequencies --   1062.5305              1106.2046              1129.7596
 Red. masses --      2.3366                 2.0695                 2.3144
 Frc consts  --      1.5542                 1.4921                 1.7405
 IR Inten    --     26.6294                15.1062                25.5059

                     46                     47                     48
                      A                      A                      A
 Frequencies --   1132.0502              1173.5117              1200.7826
 Red. masses --      4.0859                 2.3381                 1.6852
 Frc consts  --      3.0851                 1.8971                 1.4316
 IR Inten    --     30.8433                49.8633                19.4177

                     49                     50                     51
                      A                      A                      A
 Frequencies --   1204.1724              1221.8206              1249.7482
 Red. masses --      1.4418                 1.2638                 1.6407
 Frc consts  --      1.2318                 1.1116                 1.5098
 IR Inten    --      5.8446                39.4469                46.3027

                     52                     53                     54
                      A                      A                      A
 Frequencies --   1270.5135              1282.3917              1322.7559
 Red. masses --      1.4967                 1.3182                 1.6040
 Frc consts  --      1.4235                 1.2772                 1.6536
 IR Inten    --      4.6759                70.9943                22.3609

                     55                     56                     57
                      A                      A                      A
 Frequencies --   1326.5902              1354.1703              1370.9616
 Red. masses --      1.2567                 1.1652                 1.3533
 Frc consts  --      1.3030                 1.2590                 1.4986
 IR Inten    --     21.0034                 5.3547                23.4259

                     58                     59                     60
                      A                      A                      A
 Frequencies --   1379.3355              1397.4249              1401.2534
 Red. masses --      1.2868                 1.3033                 1.3237
 Frc consts  --      1.4425                 1.4995                 1.5314
 IR Inten    --      8.7098                19.8061                 9.4627

                     61                     62                     63
                      A                      A                      A
 Frequencies --   1419.0157              1435.7697              1475.5276
 Red. masses --      1.3504                 1.2762                 1.7680
 Frc consts  --      1.6021                 1.5500                 2.2679
 IR Inten    --     19.0663                 9.0665               114.0023

                     64                     65                     66
                      A                      A                      A
 Frequencies --   1494.3095              1494.8964              1498.7496
 Red. masses --      1.1735                 1.1073                 1.0979
 Frc consts  --      1.5438                 1.4580                 1.4530
 IR Inten    --      8.5103                 3.2944                 2.6417

                     67                     68                     69
                      A                      A                      A
 Frequencies --   1500.8885              1512.9507              1517.3596
 Red. masses --      1.1220                 1.1167                 1.2065
 Frc consts  --      1.4891                 1.5061                 1.6366
 IR Inten    --     30.8222                13.6690                 7.7883

                     70                     71                     72
                      A                      A                      A
 Frequencies --   1524.2126              1537.5582              1553.6020
 Red. masses --      1.1191                 1.0808                 1.0758
 Frc consts  --      1.5318                 1.5054                 1.5299
 IR Inten    --      4.5731                 9.7756                 3.0661

                     73                     74                     75
                      A                      A                      A
 Frequencies --   1557.4806              1758.7632              2234.3493
 Red. masses --      1.0504                 9.8538                 5.9292
 Frc consts  --      1.5012                17.9585                17.4399
 IR Inten    --     10.6544               245.5376                 0.7057

                     76                     77                     78
                      A                      A                      A
 Frequencies --   2370.7907              2968.7011              2998.0197
 Red. masses --     12.5917                 1.0708                 1.0482
 Frc consts  --     41.6987                 5.5600                 5.5509
 IR Inten    --      6.6199                51.4238                57.2510

                     79                     80                     81
                      A                      A                      A
 Frequencies --   3038.6321              3046.4395              3061.6581
 Red. masses --      1.0720                 1.0593                 1.0611
 Frc consts  --      5.8317                 5.7923                 5.8602
 IR Inten    --     35.4590                24.4263                13.3710

                     82                     83                     84
                      A                      A                      A
 Frequencies --   3063.4059              3078.7384              3084.0190
 Red. masses --      1.0603                 1.0693                 1.1039
 Frc consts  --      5.8625                 5.9717                 6.1862
 IR Inten    --      5.2314                35.6334                14.6106

                     85                     86                     87
                      A                      A                      A
 Frequencies --   3091.6119              3093.7719              3102.1902
 Red. masses --      1.0887                 1.0882                 1.1030
 Frc consts  --      6.1309                 6.1370                 6.2540
 IR Inten    --     56.9304                25.9228                 6.8129

                     88                     89                     90
                      A                      A                      A
 Frequencies --   3113.5407              3132.1025              3163.2072
 Red. masses --      1.1023                 1.1042                 1.0964
 Frc consts  --      6.2958                 6.3821                 6.4634
 IR Inten    --      6.2756                34.0418                10.1020

                     91                     92                     93
                      A                      A                      A
 Frequencies --   3164.6944              3481.6534              3493.9166
 Red. masses --      1.0916                 1.0740                 1.1605
 Frc consts  --      6.4412                 7.6706                 8.3472
 IR Inten    --      4.1832                 0.4775                56.6674

 - Thermochemistry -
 -------------------
 Temperature   298.150 Kelvin.  Pressure   1.00000 Atm.
 Atom     1 has atomic number  6 and mass  12.00000

 Molecular mass:   223.13208 amu.
 Principal axes and moments of inertia in atomic units:
                           1         2         3
     Eigenvalues --  3147.804024893.295496836.30888
           X            0.99987  -0.01539   0.00490
           Y            0.01544   0.99983  -0.00985
           Z           -0.00474   0.00992   0.99994
 This molecule is an asymmetric top.
 Rotational symmetry number  1.
 Warning -- assumption of classical behavior for rotation
           may cause significant error
 Rotational temperatures (Kelvin)      0.02752     0.01770     0.01267
 Rotational constants (GHZ):           0.57333     0.36882     0.26399
 Zero-point vibrational energy     729244.6 (Joules/Mol)
                                  174.29363 (Kcal/Mol)
 Warning -- explicit consideration of  28 degrees of freedom as
           vibrations may cause significant error
 Vibrational temperatures:     36.80    51.22    59.52    66.00    88.96
          (Kelvin)            110.27   133.66   177.06   191.26   228.45
                              245.15   306.72   331.03   363.12   394.23
                              432.99   480.62   503.96   521.65   552.91
                              587.39   601.59   685.35   760.16   811.20
                              849.62   873.32   884.34   922.06  1002.71
                             1080.77  1183.78  1199.14  1215.39  1315.27
                             1342.50  1353.62  1374.27  1426.94  1448.56
                             1462.07  1510.78  1528.74  1591.58  1625.47
                             1628.77  1688.42  1727.66  1732.54  1757.93
                             1798.11  1827.99  1845.08  1903.15  1908.67
                             1948.35  1972.51  1984.56  2010.58  2016.09
                             2041.65  2065.75  2122.96  2149.98  2150.82
                             2156.37  2159.44  2176.80  2183.14  2193.00
                             2212.20  2235.29  2240.87  2530.47  3214.73
                             3411.04  4271.30  4313.48  4371.91  4383.15
                             4405.04  4407.56  4429.62  4437.22  4448.14
                             4451.25  4463.36  4479.69  4506.40  4551.15
                             4553.29  5009.32  5026.97

 Zero-point correction=                           0.277755 (Hartree/Particle)
 Thermal correction to Energy=                    0.295707
 Thermal correction to Enthalpy=                  0.296651
 Thermal correction to Gibbs Free Energy=         0.229600
 Sum of electronic and zero-point Energies=           -743.772210
 Sum of electronic and thermal Energies=              -743.754258
 Sum of electronic and thermal Enthalpies=            -743.753313
 Sum of electronic and thermal Free Energies=         -743.820365

                     E (Thermal)             CV                S
                      KCal/Mol        Cal/Mol-Kelvin    Cal/Mol-Kelvin
 Total                  185.559             63.786            141.122
 Electronic               0.000              0.000              0.000
 Translational            0.889              2.981             42.110
 Rotational               0.889              2.981             33.021
 Vibrational            183.781             57.825             65.991
 Vibration     1          0.593              1.985              6.146
 Vibration     2          0.594              1.982              5.490
 Vibration     3          0.594              1.981              5.193
 Vibration     4          0.595              1.979              4.988
 Vibration     5          0.597              1.973              4.398
 Vibration     6          0.599              1.965              3.975
 Vibration     7          0.602              1.954              3.598
 Vibration     8          0.610              1.930              3.052
 Vibration     9          0.613              1.920              2.903
 Vibration    10          0.621              1.893              2.564
 Vibration    11          0.625              1.879              2.431
 Vibration    12          0.644              1.821              2.016
 Vibration    13          0.652              1.795              1.878
 Vibration    14          0.664              1.759              1.714
 Vibration    15          0.676              1.721              1.571
 Vibration    16          0.693              1.672              1.412
 Vibration    17          0.716              1.608              1.240
 Vibration    18          0.727              1.575              1.165
 Vibration    19          0.736              1.549              1.111
 Vibration    20          0.753              1.504              1.022
 Vibration    21          0.773              1.452              0.933
 Vibration    22          0.781              1.431              0.898
 Vibration    23          0.833              1.303              0.720
 Vibration    24          0.883              1.187              0.591
 Vibration    25          0.920              1.110              0.516
 Vibration    26          0.948              1.052              0.466
 Vibration    27          0.966              1.017              0.438
 Vibration    28          0.974              1.001              0.425

 Optimization completed.
    -- Stationary point found.
 Normal termination of Gaussian 16 at Thu Dec 10 23:14:54 2020.

 ----------------------------------------------------------------------
 # B3LYP/6-311++G(d,p) empiricaldispersion=gd3bj scf=xqc pop=npa geom=c
 heck
 ----------------------------------------------------------------------

 --------------------------------------
 CID_79269798_JID_6401_Energie_neutraal
 --------------------------------------
 Structure from the checkpoint file:  "JID_6401.chk"
 Charge =  0 Multiplicity = 1

 SCF Done:  E(RB3LYP) =  -744.271222029     A.U. after   15 cycles
 Normal termination of Gaussian 16 at Thu Dec 10 23:20:10 2020.

 ----------------------------------------------------------------------
 # B3LYP/6-311++G(d,p) empiricaldispersion=gd3bj scf=xqc pop=npa geom=c
 heck
 ----------------------------------------------------------------------

 ------------------------------------
 CID_79269798_JID_6401_Energie_kation
 ------------------------------------
 Structure from the checkpoint file:  "JID_6401.chk"
 Charge =  1 Multiplicity = 2

 SCF Done:  E(UB3LYP) =  -743.955893298     A.U. after   29 cycles
 Normal termination of Gaussian 16 at Thu Dec 10 23:34:33 2020.
 Gaussian 16:  ES64L-G16RevA.03 25-Dec-2016

 ----------------------------------------------------------------------
 # B3LYP/6-311++G(d,p) empiricaldispersion=gd3bj scf=xqc pop=npa geom=c
 heck
 ----------------------------------------------------------------------

 -----------------------------------
 CID_79269798_JID_6401_Energie_anion
 -----------------------------------
 Structure from the checkpoint file:  "JID_6401.chk"
 Charge = -1 Multiplicity = 2

                         Standard orientation:
 ---------------------------------------------------------------------
 Center     Atomic      Atomic             Coordinates (Angstroms)
 Number     Number       Type             X           Y           Z
 ---------------------------------------------------------------------
      1          6           0       -1.832273   -2.736356   -0.324570
      2          8           0       -3.112300   -2.179337   -0.077866
      3          6           0       -3.246763   -0.812771   -0.387938
      4          6           0       -2.465333    0.158813    0.512497
      5          7           0       -1.070055    0.374925    0.119971
      6          6           0       -0.832259    1.193420   -1.056748
      7          6           0       -1.007293    2.711291   -0.807652
      8          6           0       -0.031329    3.246318    0.141120
      9          7           0        0.762055    3.641667    0.890371
     10          6           0       -0.068233   -0.122854    0.924962
     11          8           0       -0.315648   -0.762180    1.942246
     12          6           0        1.385119    0.081106    0.492461
     13          7           0        1.651879   -0.595078   -0.784201
     14          6           0        3.054205   -0.476363   -1.207384
     15          6           0        4.032846   -1.062708   -0.279035
     16          6           0        4.789029   -1.568343    0.515337
     17          1           0       -1.120826   -2.482948    0.469375
     18          1           0       -1.429222   -2.404615   -1.295236
     19          1           0       -1.963799   -3.821749   -0.349866
     20          1           0       -2.991069   -0.635215   -1.447966
     21          1           0       -4.314297   -0.597757   -0.269001
     22          1           0       -2.983184    1.127332    0.506604
     23          1           0       -2.462124   -0.217159    1.535973
     24          1           0        0.158003    0.967416   -1.451201
     25          1           0       -1.550999    0.908394   -1.832344
     26          1           0       -0.903079    3.244937   -1.760090
     27          1           0       -2.014000    2.925955   -0.431324
     28          1           0        1.611385    1.145384    0.371470
     29          1           0        1.995312   -0.297267    1.321138
     30          1           0        1.431771   -1.584809   -0.675868
     31          1           0        3.149289   -0.948533   -2.192672
     32          1           0        3.271124    0.590371   -1.348020
     33          1           0        5.465850   -2.007519    1.212705
 ---------------------------------------------------------------------

 SCF Done:  E(UB3LYP) =  -744.268186343     A.U. after   33 cycles
 SCF Done:  E(UB3LYP) =  -744.268186343     a.u. after    1 cycles

 The electronic state is 2-A.
 Alpha  occ. eigenvalues --  -19.03518 -19.00109 -14.25711 -14.23189 -14.21928
 Alpha  occ. eigenvalues --  -10.18448 -10.14178 -10.12849 -10.12300 -10.11987
 Alpha  occ. eigenvalues --  -10.11943 -10.11772 -10.11337 -10.11210 -10.10005
 Alpha  occ. eigenvalues --  -10.09052  -0.95517  -0.94697  -0.85430  -0.83734
 Alpha  occ. eigenvalues --   -0.81676  -0.70446  -0.69613  -0.67153  -0.64080
 Alpha  occ. eigenvalues --   -0.60535  -0.59026  -0.57216  -0.52464  -0.46675
 Alpha  occ. eigenvalues --   -0.46288  -0.44411  -0.43323  -0.41298  -0.40354
 Alpha  occ. eigenvalues --   -0.39710  -0.39143  -0.37415  -0.37111  -0.36641
 Alpha  occ. eigenvalues --   -0.35080  -0.34444  -0.33198  -0.31923  -0.31701
 Alpha  occ. eigenvalues --   -0.30929  -0.29700  -0.29294  -0.28117  -0.27778
 Alpha  occ. eigenvalues --   -0.27333  -0.24065  -0.23701  -0.22937  -0.21023
 Alpha  occ. eigenvalues --   -0.20133  -0.18019  -0.17069  -0.16530  -0.15367
 Alpha  occ. eigenvalues --    0.03710
 Alpha virt. eigenvalues --    0.05750   0.06803   0.07166   0.08138   0.08421
 Alpha virt. eigenvalues --    0.08680   0.08951   0.09795   0.10020   0.10500
 Alpha virt. eigenvalues --    0.10923   0.11174   0.11607   0.11796   0.11976

  Beta  occ. eigenvalues --  -19.03513 -19.00101 -14.25713 -14.23174 -14.21907
  Beta  occ. eigenvalues --  -10.18445 -10.14151 -10.12825 -10.12262 -10.11977
  Beta  occ. eigenvalues --  -10.11879 -10.11760 -10.11333 -10.11190 -10.10002
  Beta  occ. eigenvalues --  -10.09039  -0.95505  -0.94684  -0.85414  -0.83711
  Beta  occ. eigenvalues --   -0.81632  -0.70359  -0.69579  -0.67117  -0.64051
  Beta  occ. eigenvalues --   -0.60491  -0.58942  -0.57167  -0.52418  -0.46647
  Beta  occ. eigenvalues --   -0.46238  -0.44384  -0.43240  -0.41253  -0.40326
  Beta  occ. eigenvalues --   -0.39681  -0.39091  -0.37374  -0.37078  -0.36601
  Beta  occ. eigenvalues --   -0.35006  -0.34375  -0.33183  -0.31880  -0.31665
  Beta  occ. eigenvalues --   -0.30897  -0.29655  -0.29262  -0.28090  -0.27751
  Beta  occ. eigenvalues --   -0.27295  -0.23981  -0.23662  -0.22912  -0.20980
  Beta  occ. eigenvalues --   -0.20115  -0.17985  -0.17058  -0.16511  -0.15342
  Beta virt. eigenvalues --    0.05928   0.06797   0.07211   0.07601   0.08411
  Beta virt. eigenvalues --    0.08856   0.09164   0.09259   0.09957   0.10110
  Beta virt. eigenvalues --    0.10801   0.11260   0.11432   0.11700   0.12137

 Mulliken charges and spin densities:
               1          2
     1  C   -0.132419  -0.207547
     2  O   -0.150594   0.027652
     3  C    0.238462  -0.589405
     4  C   -0.053924  -0.140938
     5  N    0.300154  -0.039249
     6  C   -0.861633   0.670921
     7  C    1.977433  -2.307331
     8  C    0.145069  -0.084675
     9  N   -0.340126   0.025035
    10  C   -0.496031   0.064718
    11  O   -0.246629  -0.001091
    12  C    0.041170  -0.388187
    13  N   -0.237953   0.197516
    14  C    1.718690  -2.120062
    15  C    1.761633  -0.119472
    16  C   -3.313891   1.525781
    17  H    0.184507   0.002115
    18  H   -0.038293   0.155830
    19  H    0.088507   0.070462
    20  H    0.116713   0.038563
    21  H   -0.143782   0.327559
    22  H   -0.096116   0.207453
    23  H    0.272926  -0.020017
    24  H    0.123493   0.142189
    25  H   -0.977588   1.159032
    26  H   -0.800138   1.025431
    27  H   -0.259840   0.443896
    28  H    0.133052   0.000263
    29  H    0.267463  -0.052163
    30  H    0.131033   0.109357
    31  H   -0.382422   0.600604
    32  H    0.035268   0.135790
    33  H   -0.004192   0.139970
 Sum of Mulliken charges =  -1.00000   1.00000

 Dipole moment (field-independent basis, Debye):
    X=              2.4743    Y=             -4.9999    Z=              3.5553  Tot=              6.6152
 Quadrupole moment (field-independent basis, Debye-Ang):
   XX=           -150.7803   YY=           -153.3053   ZZ=           -145.2965
   XY=              0.3880   XZ=             -3.0345   YZ=              5.9549

 Summary of Natural Population Analysis:

                                       Natural Population
                Natural  -----------------------------------------------
    Atom  No    Charge         Core      Valence    Rydberg      Total
 -----------------------------------------------------------------------
      C    1   -0.10463      0.99961     2.09596    0.00906     3.10463
      O    2   -0.29675      0.99989     3.28792    0.00894     4.29675
      C    3   -0.01206      0.99958     1.99900    0.01349     3.01206
      C    4   -0.10649      0.99959     2.09584    0.01106     3.10649
      N    5   -0.25887      0.99964     2.74650    0.01274     3.75887
      C    6   -0.08832      0.99958     2.07461    0.01413     3.08832
      C    7   -0.25449      0.99953     2.24438    0.01057     3.25449
      C    8    0.16619      0.99965     1.81820    0.01596     2.83381
      N    9   -0.18880      0.99979     2.67818    0.01083     3.68880
      C   10    0.34578      0.99964     1.63136    0.02322     2.65422
      O   11   -0.32405      0.99988     3.31912    0.00505     4.32405
      C   12   -0.13375      0.99958     2.12465    0.00952     3.13375
      N   13   -0.32821      0.99976     2.81723    0.01122     3.82821
      C   14   -0.12904      0.99956     2.11715    0.01233     3.12904
      C   15   -0.00703      0.99936     1.99984    0.00782     3.00703
      C   16   -0.12464      0.99928     2.12180    0.00357     3.12464
      H   17    0.08922      0.00000     0.40948    0.00131     0.41078
      H   18    0.07973      0.00000     0.41896    0.00131     0.42027
      H   19    0.08553      0.00000     0.41366    0.00081     0.41447
      H   20    0.08067      0.00000     0.41763    0.00170     0.41933
      H   21    0.09225      0.00000     0.40649    0.00126     0.40775
      H   22    0.09843      0.00000     0.40012    0.00145     0.40157
      H   23    0.11909      0.00000     0.37966    0.00126     0.38091
      H   24    0.12011      0.00000     0.37636    0.00353     0.37989
      H   25    0.10768      0.00000     0.38689    0.00543     0.39232
      H   26    0.13182      0.00000     0.36205    0.00613     0.36818
      H   27    0.12218      0.00000     0.37507    0.00275     0.37782
      H   28    0.10876      0.00000     0.38946    0.00178     0.39124
      H   29    0.10119      0.00000     0.39703    0.00178     0.39881
      H   30    0.17469      0.00000     0.32245    0.00286     0.32531
      H   31    0.11360      0.00000     0.38476    0.00164     0.38640
      H   32    0.10973      0.00000     0.38889    0.00138     0.39027
      H   33    0.11048      0.00000     0.38847    0.00105     0.38952
 =======================================================================
   * Total *   -0.00000     15.99390    43.78917    0.21693    60.00000

 Normal termination of Gaussian 16 at Thu Dec 10 23:50:36 2020.
