 Gaussian 16, Revision A.03,

 -----------------------------------------------------------
 # opt freq B3LYP/6-31G(d) empiricaldispersion=gd3bj scf=xqc
 -----------------------------------------------------------

 ------------------------------
 CID_83010433_JID_4869_neutraal
 ------------------------------
 Symbolic Z-matrix:
 Charge =  0 Multiplicity = 1

 SCF Done:  E(RB3LYP) =  -653.085915318     A.U. after   14 cycles
 SCF Done:  E(RB3LYP) =  -653.091990509     A.U. after   12 cycles
 SCF Done:  E(RB3LYP) =  -653.093455894     A.U. after   12 cycles
 SCF Done:  E(RB3LYP) =  -653.092725783     A.U. after   13 cycles
 SCF Done:  E(RB3LYP) =  -653.094126162     A.U. after   11 cycles
 SCF Done:  E(RB3LYP) =  -653.094074501     A.U. after   11 cycles
 SCF Done:  E(RB3LYP) =  -653.094220514     A.U. after   11 cycles
 SCF Done:  E(RB3LYP) =  -653.094250711     A.U. after   10 cycles
 SCF Done:  E(RB3LYP) =  -653.094245970     A.U. after    8 cycles
 SCF Done:  E(RB3LYP) =  -653.094250496     A.U. after    8 cycles
 SCF Done:  E(RB3LYP) =  -653.094251603     A.U. after    8 cycles
 SCF Done:  E(RB3LYP) =  -653.094251224     A.U. after    8 cycles
 Optimization completed.
    -- Stationary point found.
 Normal termination of Gaussian 16 at Thu Dec 10 10:48:03 2020.

 --------------------------------------------------------------------
 #N Geom=AllCheck Guess=TCheck SCRF=Check GenChk RB3LYP/6-31G(d) Freq
 --------------------------------------------------------------------

 Structure from the checkpoint file:  "JID_4869.chk"
 ------------------------------
 CID_83010433_JID_4869_neutraal
 ------------------------------
 Charge =  0 Multiplicity = 1

 SCF Done:  E(RB3LYP) =  -653.094251224     A.U. after    1 cycles

  Exact polarizability: 138.303   1.044 111.638  -1.404  -0.667 114.330
 Approx polarizability: 179.517   6.174 156.253  -4.427  -2.895 171.237

                      1                      2                      3
                      A                      A                      A
 Frequencies --     40.0687                43.4994                65.0743
 Red. masses --      9.0337                 4.0173                 3.5642
 Frc consts  --      0.0085                 0.0045                 0.0089
 IR Inten    --      1.1581                 0.1490                 0.0292

                      4                      5                      6
                      A                      A                      A
 Frequencies --     87.1457               142.7505               155.3688
 Red. masses --      3.4597                 2.4800                 3.1363
 Frc consts  --      0.0155                 0.0298                 0.0446
 IR Inten    --      0.3632                 0.0285                 0.3716

                      7                      8                      9
                      A                      A                      A
 Frequencies --    181.7089               205.4501               222.8247
 Red. masses --      1.0594                 3.4651                 2.1553
 Frc consts  --      0.0206                 0.0862                 0.0630
 IR Inten    --      0.2304                 0.1565                 0.0649

                     10                     11                     12
                      A                      A                      A
 Frequencies --    262.6016               273.9823               293.0947
 Red. masses --      3.1790                 2.6710                 1.5357
 Frc consts  --      0.1292                 0.1181                 0.0777
 IR Inten    --      0.7137                 0.1631                 0.3079

                     13                     14                     15
                      A                      A                      A
 Frequencies --    298.6941               325.1323               337.7707
 Red. masses --      1.2076                 1.8152                 2.4990
 Frc consts  --      0.0635                 0.1131                 0.1680
 IR Inten    --      0.7263                 0.6105                 0.8820

                     16                     17                     18
                      A                      A                      A
 Frequencies --    352.0071               407.5204               456.7059
 Red. masses --      2.4767                 1.9555                 3.1147
 Frc consts  --      0.1808                 0.1913                 0.3828
 IR Inten    --      1.1332                 0.1339                 6.2866

                     19                     20                     21
                      A                      A                      A
 Frequencies --    472.7992               528.7576               565.2083
 Red. masses --      3.4740                 2.4960                 3.2501
 Frc consts  --      0.4575                 0.4112                 0.6117
 IR Inten    --      3.4598                 1.8685                 0.6029

                     22                     23                     24
                      A                      A                      A
 Frequencies --    585.7013               614.2870               620.2775
 Red. masses --      2.8048                 1.6226                 2.1898
 Frc consts  --      0.5669                 0.3607                 0.4964
 IR Inten    --     17.8505                59.3045                42.5278

                     25                     26                     27
                      A                      A                      A
 Frequencies --    676.3689               724.9596               761.3357
 Red. masses --      2.3157                 2.3627                 2.7945
 Frc consts  --      0.6242                 0.7316                 0.9543
 IR Inten    --     40.6266                16.6868                48.7248

                     28                     29                     30
                      A                      A                      A
 Frequencies --    778.3316               821.7723               825.0807
 Red. masses --      4.1578                 2.4921                 2.5465
 Frc consts  --      1.4840                 0.9915                 1.0214
 IR Inten    --     12.2438                 1.8022                 5.8601

                     31                     32                     33
                      A                      A                      A
 Frequencies --    863.4745               876.4522               924.2261
 Red. masses --      2.1637                 1.5412                 2.0600
 Frc consts  --      0.9505                 0.6976                 1.0367
 IR Inten    --     16.4272                 6.0725                 0.9901

                     34                     35                     36
                      A                      A                      A
 Frequencies --    926.3626               969.4863               982.5938
 Red. masses --      1.7607                 1.6531                 1.7546
 Frc consts  --      0.8902                 0.9155                 0.9981
 IR Inten    --     16.5888                 1.8435                 1.9062

                     37                     38                     39
                      A                      A                      A
 Frequencies --    989.6438              1017.1531              1041.6654
 Red. masses --      1.6256                 1.9595                 1.7894
 Frc consts  --      0.9380                 1.1944                 1.1440
 IR Inten    --      3.6936                 2.0902                84.3737

                     40                     41                     42
                      A                      A                      A
 Frequencies --   1055.9907              1071.1914              1090.3664
 Red. masses --      1.4928                 2.4993                 1.9678
 Frc consts  --      0.9808                 1.6897                 1.3784
 IR Inten    --      2.7744                 9.5783                10.9003

                     43                     44                     45
                      A                      A                      A
 Frequencies --   1093.3036              1114.8190              1162.8659
 Red. masses --      1.5836                 2.3724                 2.2055
 Frc consts  --      1.1153                 1.7372                 1.7572
 IR Inten    --      2.5096                 6.5515                29.9553

                     46                     47                     48
                      A                      A                      A
 Frequencies --   1177.5306              1194.0533              1204.7059
 Red. masses --      2.4979                 2.2970                 2.1295
 Frc consts  --      2.0406                 1.9296                 1.8209
 IR Inten    --     15.0512                12.1584                42.8037

                     49                     50                     51
                      A                      A                      A
 Frequencies --   1218.5727              1231.5949              1256.4636
 Red. masses --      1.8741                 1.6254                 1.8643
 Frc consts  --      1.6397                 1.4526                 1.7341
 IR Inten    --     98.5230                11.6708                28.9047

                     52                     53                     54
                      A                      A                      A
 Frequencies --   1312.9159              1324.0880              1358.6749
 Red. masses --      1.2084                 1.4057                 1.2645
 Frc consts  --      1.2272                 1.4520                 1.3753
 IR Inten    --      3.5984                12.2946                 0.8451

                     55                     56                     57
                      A                      A                      A
 Frequencies --   1364.2381              1369.8111              1376.7300
 Red. masses --      1.5844                 1.8118                 1.4952
 Frc consts  --      1.7374                 2.0030                 1.6698
 IR Inten    --      8.5295                16.3289                10.0657

                     58                     59                     60
                      A                      A                      A
 Frequencies --   1380.5925              1385.9967              1401.2370
 Red. masses --      1.3820                 1.3045                 1.3641
 Frc consts  --      1.5520                 1.4764                 1.5780
 IR Inten    --      5.1282                 2.9751                 2.2705

                     61                     62                     63
                      A                      A                      A
 Frequencies --   1409.3102              1415.9114              1431.8946
 Red. masses --      1.4098                 1.2718                 1.2753
 Frc consts  --      1.6497                 1.5023                 1.5406
 IR Inten    --      0.0218                13.3726                 6.6022

                     64                     65                     66
                      A                      A                      A
 Frequencies --   1435.1800              1442.1416              1508.1748
 Red. masses --      1.2761                 1.2988                 1.0851
 Frc consts  --      1.5486                 1.5915                 1.4541
 IR Inten    --      4.6670                17.3066                 2.2075

                     67                     68                     69
                      A                      A                      A
 Frequencies --   1512.0090              1516.7755              1521.4286
 Red. masses --      1.0895                 1.0693                 1.0631
 Frc consts  --      1.4676                 1.4494                 1.4499
 IR Inten    --      3.8667                 4.5456                12.3141

                     70                     71                     72
                      A                      A                      A
 Frequencies --   1524.5957              1526.7163              1532.6154
 Red. masses --      1.0567                 1.0774                 1.0514
 Frc consts  --      1.4472                 1.4796                 1.4551
 IR Inten    --      5.0917                 2.9387                10.3813

                     73                     74                     75
                      A                      A                      A
 Frequencies --   1540.1622              1541.8727              1551.5150
 Red. masses --      1.0750                 1.1145                 1.0555
 Frc consts  --      1.5025                 1.5610                 1.4970
 IR Inten    --     18.1462                 3.2315                 1.9409

                     76                     77                     78
                      A                      A                      A
 Frequencies --   1860.6608              3022.7830              3039.5362
 Red. masses --      9.7566                 1.0668                 1.0609
 Frc consts  --     19.9013                 5.7431                 5.7746
 IR Inten    --    297.9709                23.6485                23.2642

                     79                     80                     81
                      A                      A                      A
 Frequencies --   3045.0625              3055.1570              3059.8428
 Red. masses --      1.0632                 1.0356                 1.0390
 Frc consts  --      5.8084                 5.6950                 5.7314
 IR Inten    --     17.4530                12.3988                 7.7580

                     82                     83                     84
                      A                      A                      A
 Frequencies --   3062.6684              3072.6358              3076.1752
 Red. masses --      1.0448                 1.0926                 1.0988
 Frc consts  --      5.7739                 6.0777                 6.1262
 IR Inten    --     23.1214                57.2714                59.4643

                     85                     86                     87
                      A                      A                      A
 Frequencies --   3078.5031              3086.5469              3092.4574
 Red. masses --      1.0831                 1.1042                 1.0862
 Frc consts  --      6.0479                 6.1976                 6.1200
 IR Inten    --     14.9543                67.3526                 8.4623

                     88                     89                     90
                      A                      A                      A
 Frequencies --   3106.6900              3124.1208              3127.2723
 Red. masses --      1.0886                 1.1002                 1.1003
 Frc consts  --      6.1902                 6.3264                 6.3400
 IR Inten    --      2.4450                55.7100                29.1283

                     91                     92                     93
                      A                      A                      A
 Frequencies --   3129.2244              3141.4809              3148.3973
 Red. masses --      1.0991                 1.1021                 1.1017
 Frc consts  --      6.3409                 6.4081                 6.4342
 IR Inten    --     24.2290                14.8563                13.6310

                     94                     95                     96
                      A                      A                      A
 Frequencies --   3159.0470              3477.7115              3684.3634
 Red. masses --      1.0981                 1.0740                 1.0641
 Frc consts  --      6.4566                 7.6528                 8.5103
 IR Inten    --     43.3383                 0.6559                49.9135

 - Thermochemistry -
 -------------------
 Temperature   298.150 Kelvin.  Pressure   1.00000 Atm.
 Atom     1 has atomic number  6 and mass  12.00000

 Molecular mass:   200.15248 amu.
 Principal axes and moments of inertia in atomic units:
                           1         2         3
     Eigenvalues --  1571.216604623.361084738.25617
           X            0.99992  -0.01179   0.00364
           Y            0.01163   0.99908   0.04123
           Z           -0.00412  -0.04118   0.99914
 This molecule is an asymmetric top.
 Rotational symmetry number  1.
 Warning -- assumption of classical behavior for rotation
           may cause significant error
 Rotational temperatures (Kelvin)      0.05513     0.01873     0.01828
 Rotational constants (GHZ):           1.14863     0.39035     0.38089
 Zero-point vibrational energy     801041.7 (Joules/Mol)
                                  191.45357 (Kcal/Mol)
 Warning -- explicit consideration of  24 degrees of freedom as
           vibrations may cause significant error
 Vibrational temperatures:     57.65    62.59    93.63   125.38   205.39
          (Kelvin)            223.54   261.44   295.60   320.60   377.83
                              394.20   421.70   429.75   467.79   485.98
                              506.46   586.33   657.10   680.25   760.76
                              813.21   842.69   883.82   892.44   973.14
                             1043.06  1095.39  1119.85  1182.35  1187.11
                             1242.35  1261.02  1329.76  1332.83  1394.87
                             1413.73  1423.88  1463.46  1498.72  1519.34
                             1541.21  1568.79  1573.02  1603.98  1673.10
                             1694.20  1717.98  1733.30  1753.25  1771.99
                             1807.77  1888.99  1905.07  1954.83  1962.83
                             1970.85  1980.81  1986.36  1994.14  2016.07
                             2027.68  2037.18  2060.18  2064.90  2074.92
                             2169.93  2175.44  2182.30  2189.00  2193.55
                             2196.60  2205.09  2215.95  2218.41  2232.28
                             2677.08  4349.11  4373.21  4381.17  4395.69
                             4402.43  4406.50  4420.84  4425.93  4429.28
                             4440.85  4449.36  4469.83  4494.91  4499.45
                             4502.26  4519.89  4529.84  4545.16  5003.65
                             5300.98

 Zero-point correction=                           0.305101 (Hartree/Particle)
 Thermal correction to Energy=                    0.320067
 Thermal correction to Enthalpy=                  0.321011
 Thermal correction to Gibbs Free Energy=         0.263104
 Sum of electronic and zero-point Energies=           -652.789151
 Sum of electronic and thermal Energies=              -652.774184
 Sum of electronic and thermal Enthalpies=            -652.773240
 Sum of electronic and thermal Free Energies=         -652.831147

                     E (Thermal)             CV                S
                      KCal/Mol        Cal/Mol-Kelvin    Cal/Mol-Kelvin
 Total                  200.845             57.578            121.877
 Electronic               0.000              0.000              0.000
 Translational            0.889              2.981             41.786
 Rotational               0.889              2.981             31.910
 Vibrational            199.068             51.617             48.181
 Vibration     1          0.594              1.981              5.256
 Vibration     2          0.595              1.980              5.093
 Vibration     3          0.597              1.971              4.297
 Vibration     4          0.601              1.958              3.723
 Vibration     5          0.616              1.910              2.767
 Vibration     6          0.620              1.897              2.605
 Vibration     7          0.630              1.865              2.311
 Vibration     8          0.640              1.832              2.084
 Vibration     9          0.649              1.806              1.936
 Vibration    10          0.670              1.741              1.644
 Vibration    11          0.676              1.721              1.571
 Vibration    12          0.688              1.687              1.456
 Vibration    13          0.692              1.676              1.424
 Vibration    14          0.709              1.625              1.284
 Vibration    15          0.718              1.600              1.223
 Vibration    16          0.729              1.571              1.157
 Vibration    17          0.772              1.454              0.935
 Vibration    18          0.815              1.346              0.776
 Vibration    19          0.830              1.310              0.730
 Vibration    20          0.884              1.186              0.590
 Vibration    21          0.921              1.107              0.514
 Vibration    22          0.943              1.062              0.475
 Vibration    23          0.974              1.002              0.426
 Vibration    24          0.980              0.989              0.416

                           ! Non-Optimized Parameters !
 Normal termination of Gaussian 16 at Thu Dec 10 11:00:30 2020.

 ----------------------------------------------------------------------
 # B3LYP/6-311++G(d,p) empiricaldispersion=gd3bj scf=xqc pop=npa geom=c
 heck
 ----------------------------------------------------------------------

 --------------------------------------
 CID_83010433_JID_4869_Energie_neutraal
 --------------------------------------
 Structure from the checkpoint file:  "JID_4869.chk"
 Charge =  0 Multiplicity = 1

 SCF Done:  E(RB3LYP) =  -653.291625365     A.U. after   14 cycles
 Normal termination of Gaussian 16 at Thu Dec 10 11:06:25 2020.

 ----------------------------------------------------------------------
 # B3LYP/6-311++G(d,p) empiricaldispersion=gd3bj scf=xqc pop=npa geom=c
 heck
 ----------------------------------------------------------------------

 ------------------------------------
 CID_83010433_JID_4869_Energie_kation
 ------------------------------------
 Structure from the checkpoint file:  "JID_4869.chk"
 Charge =  1 Multiplicity = 2

 SCF Done:  E(UB3LYP) =  -653.007109879     A.U. after   21 cycles
 Normal termination of Gaussian 16 at Thu Dec 10 11:18:33 2020.
 Gaussian 16:  ES64L-G16RevA.03 25-Dec-2016

 ----------------------------------------------------------------------
 # B3LYP/6-311++G(d,p) empiricaldispersion=gd3bj scf=xqc pop=npa geom=c
 heck
 ----------------------------------------------------------------------

 -----------------------------------
 CID_83010433_JID_4869_Energie_anion
 -----------------------------------
 Structure from the checkpoint file:  "JID_4869.chk"
 Charge = -1 Multiplicity = 2

                         Standard orientation:
 ---------------------------------------------------------------------
 Center     Atomic      Atomic             Coordinates (Angstroms)
 Number     Number       Type             X           Y           Z
 ---------------------------------------------------------------------
      1          6           0        2.112274    2.077139    0.210211
      2          6           0        1.182563    1.085979   -0.500218
      3          6           0        1.879625    0.359619   -1.671511
      4          6           0        2.815839   -0.752014   -1.182012
      5          6           0        2.042877   -1.726675   -0.285197
      6          6           0        1.361942   -1.003283    0.891718
      7          7           0        0.529888    0.146196    0.446986
      8          7           0       -0.695231   -0.377900   -0.089570
      9          6           0       -1.861780    0.228780    0.559446
     10          6           0       -1.975189    1.762225    0.469927
     11          6           0       -3.118739   -0.403081   -0.012812
     12          8           0       -4.070904   -0.792506    0.621974
     13          8           0       -3.085191   -0.438214   -1.372949
     14          6           0        2.344144   -0.613118    2.002434
     15          1           0        1.625081    2.478064    1.103847
     16          1           0        2.343000    2.908912   -0.464978
     17          1           0        3.061831    1.631313    0.513472
     18          1           0        0.361757    1.681582   -0.911129
     19          1           0        1.117658   -0.089075   -2.325327
     20          1           0        2.419900    1.090670   -2.285748
     21          1           0        3.661883   -0.318613   -0.633304
     22          1           0        3.246465   -1.283620   -2.038872
     23          1           0        2.703169   -2.516574    0.094063
     24          1           0        1.263644   -2.219013   -0.881748
     25          1           0        0.633830   -1.687083    1.335045
     26          1           0       -0.746504   -0.242447   -1.098346
     27          1           0       -1.828589   -0.057999    1.613468
     28          1           0       -2.055702    2.091737   -0.571789
     29          1           0       -2.858246    2.114945    1.013878
     30          1           0       -1.087461    2.212163    0.921778
     31          1           0       -3.927930   -0.842085   -1.653358
     32          1           0        1.848278    0.029633    2.735860
     33          1           0        2.692352   -1.518382    2.512450
     34          1           0        3.230405   -0.089863    1.634715
 ---------------------------------------------------------------------

 SCF Done:  E(UB3LYP) =  -653.279165992     A.U. after   31 cycles

 The electronic state is 2-A.
 Alpha  occ. eigenvalues --  -19.07324 -19.02256 -14.22671 -14.22527 -10.21058
 Alpha  occ. eigenvalues --  -10.11691 -10.10120 -10.09668 -10.06976 -10.06630
 Alpha  occ. eigenvalues --  -10.06492 -10.06304 -10.06257 -10.06048  -1.01452
 Alpha  occ. eigenvalues --   -0.92687  -0.88137  -0.75726  -0.68945  -0.68509
 Alpha  occ. eigenvalues --   -0.65009  -0.60674  -0.57897  -0.56649  -0.51997
 Alpha  occ. eigenvalues --   -0.51206  -0.49935  -0.43586  -0.42113  -0.40007
 Alpha  occ. eigenvalues --   -0.39242  -0.37625  -0.36518  -0.35246  -0.35209
 Alpha  occ. eigenvalues --   -0.33648  -0.33202  -0.32127  -0.31559  -0.30891
 Alpha  occ. eigenvalues --   -0.30121  -0.29570  -0.28670  -0.27811  -0.27220
 Alpha  occ. eigenvalues --   -0.26686  -0.25084  -0.24020  -0.23966  -0.23195
 Alpha  occ. eigenvalues --   -0.21892  -0.21380  -0.19065  -0.15243  -0.11475
 Alpha  occ. eigenvalues --    0.04299
 Alpha virt. eigenvalues --    0.06199   0.07001   0.07377   0.08346   0.09042
 Alpha virt. eigenvalues --    0.09123   0.09434   0.09937   0.10109   0.11378
 Alpha virt. eigenvalues --    0.11728   0.12149   0.12561   0.12871   0.13166

  Beta  occ. eigenvalues --  -19.07268 -19.02240 -14.22666 -14.22515 -10.21052
  Beta  occ. eigenvalues --  -10.11682 -10.10113 -10.09665 -10.06949 -10.06610
  Beta  occ. eigenvalues --  -10.06467 -10.06292 -10.06240 -10.06019  -1.01385
  Beta  occ. eigenvalues --   -0.92628  -0.88120  -0.75698  -0.68911  -0.68485
  Beta  occ. eigenvalues --   -0.64975  -0.60635  -0.57849  -0.56573  -0.51950
  Beta  occ. eigenvalues --   -0.51152  -0.49862  -0.43537  -0.42076  -0.39968
  Beta  occ. eigenvalues --   -0.39206  -0.37597  -0.36477  -0.35214  -0.35177
  Beta  occ. eigenvalues --   -0.33610  -0.33171  -0.32085  -0.31527  -0.30863
  Beta  occ. eigenvalues --   -0.30089  -0.29542  -0.28634  -0.27782  -0.27189
  Beta  occ. eigenvalues --   -0.26655  -0.25053  -0.23988  -0.23942  -0.23141
  Beta  occ. eigenvalues --   -0.21856  -0.21349  -0.19015  -0.15221  -0.11455
  Beta virt. eigenvalues --    0.06375   0.07317   0.07667   0.07918   0.08787
  Beta virt. eigenvalues --    0.09243   0.09451   0.09718   0.10294   0.10356
  Beta virt. eigenvalues --    0.11711   0.12037   0.12460   0.12788   0.13082

 Mulliken charges and spin densities:
               1          2
     1  C    0.918616  -1.367262
     2  C   -0.642683   0.378158
     3  C   -0.277594  -0.099413
     4  C    0.498503  -0.872993
     5  C   -0.238181  -0.188675
     6  C   -0.434084   0.356354
     7  N    0.353756   0.112391
     8  N   -0.044151  -0.215143
     9  C   -0.866549   0.452803
    10  C    0.705741  -1.171015
    11  C    0.215888  -0.087603
    12  O   -0.274258   0.002579
    13  O   -0.129035  -0.022910
    14  C    0.243544  -0.714713
    15  H    0.098119   0.042469
    16  H   -0.358542   0.513652
    17  H    0.048642   0.095332
    18  H    0.101838   0.099861
    19  H   -0.388486   0.541881
    20  H   -0.298334   0.460758
    21  H    0.041904   0.084170
    22  H   -0.357925   0.542101
    23  H    0.015753   0.134347
    24  H   -0.113949   0.269934
    25  H    0.136185   0.073994
    26  H    0.558511  -0.340664
    27  H    0.002281   0.199039
    28  H   -0.217757   0.386279
    29  H    0.077143   0.077494
    30  H   -0.006464   0.163794
    31  H   -0.410314   0.712470
    32  H    0.086587   0.065889
    33  H   -0.058723   0.193708
    34  H    0.014018   0.120931
 Sum of Mulliken charges =  -1.00000   1.00000

 Dipole moment (field-independent basis, Debye):
    X=              1.7387    Y=             -0.0562    Z=              4.0668  Tot=              4.4232
 Quadrupole moment (field-independent basis, Debye-Ang):
   XX=           -162.4228   YY=           -127.1620   ZZ=           -130.9710
   XY=             -6.9539   XZ=              0.8546   YZ=              0.3434

 Summary of Natural Population Analysis:

                                       Natural Population
                Natural  -----------------------------------------------
    Atom  No    Charge         Core      Valence    Rydberg      Total
 -----------------------------------------------------------------------
      C    1   -0.28761      0.99963     2.28191    0.00608     3.28761
      C    2   -0.01394      0.99957     2.00046    0.01390     3.01394
      C    3   -0.19823      0.99960     2.18924    0.00939     3.19823
      C    4   -0.19333      0.99962     2.18486    0.00885     3.19333
      C    5   -0.19989      0.99960     2.19153    0.00876     3.19989
      C    6   -0.00510      0.99958     1.99176    0.01377     3.00510
      N    7   -0.20288      0.99969     2.68792    0.01527     3.70288
      N    8   -0.25276      0.99973     2.74026    0.01277     3.75276
      C    9   -0.04961      0.99956     2.03650    0.01355     3.04961
      C   10   -0.29539      0.99964     2.29016    0.00558     3.29539
      C   11    0.41293      0.99968     1.56139    0.02600     2.58707
      O   12   -0.30535      0.99987     3.29931    0.00617     4.30535
      O   13   -0.34849      0.99988     3.34116    0.00745     4.34849
      C   14   -0.28838      0.99963     2.28398    0.00477     3.28838
      H   15    0.10259      0.00000     0.39617    0.00124     0.39741
      H   16    0.10174      0.00000     0.39725    0.00101     0.39826
      H   17    0.09599      0.00000     0.40281    0.00120     0.40401
      H   18    0.09931      0.00000     0.39833    0.00236     0.40069
      H   19    0.09657      0.00000     0.40174    0.00169     0.40343
      H   20    0.10342      0.00000     0.39517    0.00140     0.39658
      H   21    0.09233      0.00000     0.40632    0.00135     0.40767
      H   22    0.10096      0.00000     0.39782    0.00123     0.39904
      H   23    0.09821      0.00000     0.40088    0.00091     0.40179
      H   24    0.10179      0.00000     0.39690    0.00131     0.39821
      H   25    0.10241      0.00000     0.39632    0.00127     0.39759
      H   26    0.17568      0.00000     0.31984    0.00448     0.32432
      H   27    0.10387      0.00000     0.39440    0.00173     0.39613
      H   28    0.10232      0.00000     0.39616    0.00152     0.39768
      H   29    0.10203      0.00000     0.39711    0.00086     0.39797
      H   30    0.10755      0.00000     0.39117    0.00128     0.39245
      H   31    0.24485      0.00000     0.24066    0.01448     0.25515
      H   32    0.10331      0.00000     0.39544    0.00125     0.39669
      H   33    0.09789      0.00000     0.40130    0.00081     0.40211
      H   34    0.09522      0.00000     0.40365    0.00113     0.40478
 =======================================================================
   * Total *    0.00000     13.99529    40.80989    0.19482    55.00000

 Normal termination of Gaussian 16 at Thu Dec 10 11:35:45 2020.
