 Gaussian 16, Revision A.03,

 -----------------------------------------------------------
 # opt freq B3LYP/6-31G(d) empiricaldispersion=gd3bj scf=xqc
 -----------------------------------------------------------

 -------------------------------
 CID_119086333_JID_4446_neutraal
 -------------------------------
 Symbolic Z-matrix:
 Charge =  0 Multiplicity = 1

 SCF Done:  E(RB3LYP) =  -629.810959650     A.U. after   16 cycles
 SCF Done:  E(RB3LYP) =  -629.817719467     A.U. after   13 cycles
 SCF Done:  E(RB3LYP) =  -629.818261727     A.U. after   13 cycles
 SCF Done:  E(RB3LYP) =  -629.816098758     A.U. after   13 cycles
 SCF Done:  E(RB3LYP) =  -629.818583166     A.U. after   12 cycles
 SCF Done:  E(RB3LYP) =  -629.818634346     A.U. after   12 cycles
 SCF Done:  E(RB3LYP) =  -629.818657205     A.U. after   12 cycles
 SCF Done:  E(RB3LYP) =  -629.818660128     A.U. after    9 cycles
 SCF Done:  E(RB3LYP) =  -629.818661064     A.U. after    8 cycles
 Optimization completed.
    -- Stationary point found.
 Normal termination of Gaussian 16 at Thu Dec 10 09:44:53 2020.

 --------------------------------------------------------------------
 #N Geom=AllCheck Guess=TCheck SCRF=Check GenChk RB3LYP/6-31G(d) Freq
 --------------------------------------------------------------------

 Structure from the checkpoint file:  "JID_4446.chk"
 -------------------------------
 CID_119086333_JID_4446_neutraal
 -------------------------------
 Charge =  0 Multiplicity = 1

 SCF Done:  E(RB3LYP) =  -629.818661064     A.U. after    1 cycles

  Exact polarizability: 175.047   4.834 164.723  -0.011   0.001  48.867
 Approx polarizability: 303.408  11.488 277.942  -0.034   0.010  76.158

                      1                      2                      3
                      A                      A                      A
 Frequencies --     50.3466                86.9180               131.8645
 Red. masses --      6.8455                 3.4009                 4.2258
 Frc consts  --      0.0102                 0.0151                 0.0433
 IR Inten    --      1.9251                 2.2164                 9.1817

                      4                      5                      6
                      A                      A                      A
 Frequencies --    169.3822               190.3997               205.3808
 Red. masses --      2.5159                 7.3186                 4.1636
 Frc consts  --      0.0425                 0.1563                 0.1035
 IR Inten    --      1.4768                 2.7631                 0.6551

                      7                      8                      9
                      A                      A                      A
 Frequencies --    211.0429               256.1036               328.8687
 Red. masses --      3.9694                 1.1516                 5.5275
 Frc consts  --      0.1042                 0.0445                 0.3522
 IR Inten    --      4.3556                 0.0124                 0.5270

                     10                     11                     12
                      A                      A                      A
 Frequencies --    358.5188               411.6096               433.5521
 Red. masses --      3.7719                 5.8970                 4.3010
 Frc consts  --      0.2856                 0.5886                 0.4763
 IR Inten    --      1.0970                 5.6231                 0.5953

                     13                     14                     15
                      A                      A                      A
 Frequencies --    473.0066               484.0266               523.8724
 Red. masses --      6.5753                 3.2682                 6.2687
 Frc consts  --      0.8668                 0.4511                 1.0136
 IR Inten    --     10.0544                 0.4916                 7.0983

                     16                     17                     18
                      A                      A                      A
 Frequencies --    590.5109               609.6409               654.4304
 Red. masses --      7.0123                 3.1700                 6.0674
 Frc consts  --      1.4407                 0.6942                 1.5310
 IR Inten    --      0.0131                 0.8175                28.0818

                     19                     20                     21
                      A                      A                      A
 Frequencies --    677.2507               722.3643               780.0652
 Red. masses --      3.8487                 5.6490                 5.9528
 Frc consts  --      1.0401                 1.7368                 2.1342
 IR Inten    --      0.0855                16.3138                16.4499

                     22                     23                     24
                      A                      A                      A
 Frequencies --    803.5281               829.3518               839.9651
 Red. masses --      1.8538                 1.4233                 3.0399
 Frc consts  --      0.7052                 0.5768                 1.2637
 IR Inten    --     21.4439                43.7631                 3.1024

                     25                     26                     27
                      A                      A                      A
 Frequencies --    839.9995               943.6168               977.9736
 Red. masses --      5.0699                 1.3423                 1.3961
 Frc consts  --      2.1077                 0.7042                 0.7867
 IR Inten    --      7.5128                 0.6619                 0.0352

                     28                     29                     30
                      A                      A                      A
 Frequencies --    998.7238              1014.3207              1023.8414
 Red. masses --      1.3309                 6.3296                 1.8087
 Frc consts  --      0.7822                 3.8369                 1.1171
 IR Inten    --      0.3878                 7.1913                 0.0958

                     31                     32                     33
                      A                      A                      A
 Frequencies --   1072.2242              1091.9542              1133.9904
 Red. masses --      2.7719                 4.0614                 2.5751
 Frc consts  --      1.8776                 2.8532                 1.9510
 IR Inten    --      1.4524                42.3483               127.2281

                     34                     35                     36
                      A                      A                      A
 Frequencies --   1180.8936              1185.6857              1201.8899
 Red. masses --      1.3742                 1.2699                 1.8307
 Frc consts  --      1.1291                 1.0519                 1.5581
 IR Inten    --     18.6614                 0.9464                23.2922

                     37                     38                     39
                      A                      A                      A
 Frequencies --   1231.7787              1265.6488              1280.3862
 Red. masses --      1.4661                 2.5638                 1.8641
 Frc consts  --      1.3106                 2.4197                 1.8005
 IR Inten    --     22.4706               147.4141                46.1453

                     40                     41                     42
                      A                      A                      A
 Frequencies --   1310.6787              1357.6001              1406.0677
 Red. masses --      2.7526                 4.9447                 5.2737
 Frc consts  --      2.7860                 5.3695                 6.1429
 IR Inten    --     67.8292                76.1153                11.0457

                     43                     44                     45
                      A                      A                      A
 Frequencies --   1438.8222              1449.8873              1478.2709
 Red. masses --      2.3287                 2.1106                 1.3303
 Frc consts  --      2.8404                 2.6141                 1.7128
 IR Inten    --      1.4884                52.6880                 5.1033

                     46                     47                     48
                      A                      A                      A
 Frequencies --   1498.6947              1521.1917              1525.2737
 Red. masses --      1.3062                 1.0471                 2.3876
 Frc consts  --      1.7286                 1.4276                 3.2727
 IR Inten    --     16.0014                 6.9594                22.4244

                     49                     50                     51
                      A                      A                      A
 Frequencies --   1533.2688              1556.5202              1626.5588
 Red. masses --      1.1181                 3.4952                 6.4612
 Frc consts  --      1.5487                 4.9892                10.0717
 IR Inten    --     42.5704                46.2983               290.7469

                     52                     53                     54
                      A                      A                      A
 Frequencies --   1648.6890              1665.8571              1812.5997
 Red. masses --      5.2691                 6.5055                10.3691
 Frc consts  --      8.4385                10.6367                20.0722
 IR Inten    --     54.6223                38.9098               238.2084

                     55                     56                     57
                      A                      A                      A
 Frequencies --   2848.7758              3039.6145              3104.3684
 Red. masses --      1.0808                 1.0337                 1.1073
 Frc consts  --      5.1677                 5.6272                 6.2872
 IR Inten    --    181.9628                54.4081                33.0054

                     58                     59                     60
                      A                      A                      A
 Frequencies --   3163.3830              3170.9481              3179.6601
 Red. masses --      1.0896                 1.1013                 1.0889
 Frc consts  --      6.4240                 6.5241                 6.4866
 IR Inten    --     31.0260                19.2078                10.3094

                     61                     62                     63
                      A                      A                      A
 Frequencies --   3209.4457              3234.2018              3237.2147
 Red. masses --      1.0908                 1.0944                 1.0911
 Frc consts  --      6.6197                 6.7447                 6.7368
 IR Inten    --     14.4118                 7.5369                10.8000

 - Thermochemistry -
 -------------------
 Temperature   298.150 Kelvin.  Pressure   1.00000 Atm.
 Atom     1 has atomic number  6 and mass  12.00000

 Molecular mass:   187.06333 amu.
 Principal axes and moments of inertia in atomic units:
                           1         2         3
     Eigenvalues --  1704.701142958.706964651.86477
           X            0.99947   0.03264   0.00001
           Y           -0.03264   0.99947   0.00001
           Z           -0.00001  -0.00001   1.00000
 This molecule is an asymmetric top.
 Rotational symmetry number  1.
 Warning -- assumption of classical behavior for rotation
           may cause significant error
 Rotational temperatures (Kelvin)      0.05081     0.02927     0.01862
 Rotational constants (GHZ):           1.05868     0.60998     0.38796
 Zero-point vibrational energy     468233.5 (Joules/Mol)
                                  111.91048 (Kcal/Mol)
 Warning -- explicit consideration of  17 degrees of freedom as
           vibrations may cause significant error
 Vibrational temperatures:     72.44   125.06   189.72   243.70   273.94
          (Kelvin)            295.50   303.64   368.48   473.17   515.83
                              592.21   623.78   680.55   696.41   753.74
                              849.61   877.14   941.58   974.41  1039.32
                             1122.34  1156.10  1193.25  1208.52  1208.57
                             1357.65  1407.09  1436.94  1459.38  1473.08
                             1542.69  1571.08  1631.56  1699.04  1705.94
                             1729.25  1772.25  1820.99  1842.19  1885.77
                             1953.28  2023.02  2070.14  2086.06  2126.90
                             2156.29  2188.66  2194.53  2206.03  2239.49
                             2340.26  2372.10  2396.80  2607.93  4098.75
                             4373.33  4466.49  4551.40  4562.29  4574.82
                             4617.68  4653.30  4657.63

 Zero-point correction=                           0.178341 (Hartree/Particle)
 Thermal correction to Energy=                    0.189685
 Thermal correction to Enthalpy=                  0.190629
 Thermal correction to Gibbs Free Energy=         0.140664
 Sum of electronic and zero-point Energies=           -629.640320
 Sum of electronic and thermal Energies=              -629.628976
 Sum of electronic and thermal Enthalpies=            -629.628032
 Sum of electronic and thermal Free Energies=         -629.677997

                     E (Thermal)             CV                S
                      KCal/Mol        Cal/Mol-Kelvin    Cal/Mol-Kelvin
 Total                  119.029             43.578            105.161
 Electronic               0.000              0.000              0.000
 Translational            0.889              2.981             41.585
 Rotational               0.889              2.981             31.529
 Vibrational            117.252             37.616             32.048
 Vibration     1          0.595              1.977              4.804
 Vibration     2          0.601              1.958              3.728
 Vibration     3          0.612              1.921              2.919
 Vibration     4          0.625              1.880              2.442
 Vibration     5          0.634              1.853              2.224
 Vibration     6          0.640              1.832              2.084
 Vibration     7          0.643              1.824              2.035
 Vibration     8          0.666              1.752              1.688
 Vibration     9          0.712              1.618              1.266
 Vibration    10          0.733              1.558              1.129
 Vibration    11          0.776              1.445              0.921
 Vibration    12          0.794              1.397              0.847
 Vibration    13          0.830              1.310              0.729
 Vibration    14          0.840              1.285              0.699
 Vibration    15          0.879              1.197              0.601
 Vibration    16          0.948              1.052              0.466
 Vibration    17          0.969              1.011              0.433

                           ! Non-Optimized Parameters !
 Normal termination of Gaussian 16 at Thu Dec 10 09:50:57 2020.

 ----------------------------------------------------------------------
 # B3LYP/6-311++G(d,p) empiricaldispersion=gd3bj scf=xqc pop=npa geom=c
 heck
 ----------------------------------------------------------------------

 ---------------------------------------
 CID_119086333_JID_4446_Energie_neutraal
 ---------------------------------------
 Structure from the checkpoint file:  "JID_4446.chk"
 Charge =  0 Multiplicity = 1

 SCF Done:  E(RB3LYP) =  -629.984994090     A.U. after   16 cycles
 Normal termination of Gaussian 16 at Thu Dec 10 09:53:35 2020.

 ----------------------------------------------------------------------
 # B3LYP/6-311++G(d,p) empiricaldispersion=gd3bj scf=xqc pop=npa geom=c
 heck
 ----------------------------------------------------------------------

 -------------------------------------
 CID_119086333_JID_4446_Energie_kation
 -------------------------------------
 Structure from the checkpoint file:  "JID_4446.chk"
 Charge =  1 Multiplicity = 2

 SCF Done:  E(UB3LYP) =  -629.684634599     A.U. after   30 cycles
 Normal termination of Gaussian 16 at Thu Dec 10 10:00:35 2020.
 Gaussian 16:  ES64L-G16RevA.03 25-Dec-2016

 ----------------------------------------------------------------------
 # B3LYP/6-311++G(d,p) empiricaldispersion=gd3bj scf=xqc pop=npa geom=c
 heck
 ----------------------------------------------------------------------

 ------------------------------------
 CID_119086333_JID_4446_Energie_anion
 ------------------------------------
 Structure from the checkpoint file:  "JID_4446.chk"
 Charge = -1 Multiplicity = 2

                         Standard orientation:
 ---------------------------------------------------------------------
 Center     Atomic      Atomic             Coordinates (Angstroms)
 Number     Number       Type             X           Y           Z
 ---------------------------------------------------------------------
      1          6           0       -3.901364   -0.701333   -0.000934
      2          8           0       -2.799531    0.197472    0.000837
      3          6           0       -1.547825   -0.321538    0.000439
      4          6           0       -0.490941    0.644786    0.000282
      5          6           0       -0.754380    2.033739    0.000475
      6          6           0        0.302172    2.914141    0.000139
      7          6           0        1.613216    2.387871   -0.000495
      8          7           0        1.898845    1.100442   -0.000656
      9          6           0        0.872465    0.210902   -0.000174
     10          6           0        1.152730   -1.199083   -0.000141
     11          6           0        0.089105   -2.084516    0.000022
     12          6           0       -1.256180   -1.672731    0.000241
     13          6           0        2.504809   -1.802520   -0.000134
     14          8           0        3.580091   -1.242447    0.000441
     15          1           0       -4.794955   -0.076252   -0.002225
     16          1           0       -3.896204   -1.334509    0.894469
     17          1           0       -3.893439   -1.334356   -0.896415
     18          1           0       -1.782174    2.378177    0.000871
     19          1           0        0.143937    3.987984    0.000356
     20          1           0        2.466676    3.065199   -0.000991
     21          1           0        0.302489   -3.151162    0.000104
     22          1           0       -2.041663   -2.417891    0.000286
     23          1           0        2.456087   -2.918784   -0.000412
 ---------------------------------------------------------------------

 SCF Done:  E(UB3LYP) =  -630.007710553     A.U. after   23 cycles

 The electronic state is 2-A.
 Alpha  occ. eigenvalues --  -19.03288 -18.93506 -14.13983 -10.12452 -10.08283
 Alpha  occ. eigenvalues --  -10.07946 -10.06392 -10.04886 -10.03908 -10.03089
 Alpha  occ. eigenvalues --  -10.03067 -10.02833 -10.02739 -10.01300  -0.95177
 Alpha  occ. eigenvalues --   -0.86985  -0.78848  -0.70290  -0.66171  -0.62443
 Alpha  occ. eigenvalues --   -0.60643  -0.58379  -0.49945  -0.49119  -0.47636
 Alpha  occ. eigenvalues --   -0.42278  -0.40478  -0.38382  -0.37219  -0.36553
 Alpha  occ. eigenvalues --   -0.33841  -0.32520  -0.30432  -0.29827  -0.27896
 Alpha  occ. eigenvalues --   -0.27558  -0.26377  -0.25472  -0.24560  -0.23903
 Alpha  occ. eigenvalues --   -0.22795  -0.22642  -0.19874  -0.18109  -0.14893
 Alpha  occ. eigenvalues --   -0.11358  -0.11238  -0.08476  -0.07344   0.03625
 Alpha virt. eigenvalues --    0.07141   0.09275   0.09693   0.10909   0.10948
 Alpha virt. eigenvalues --    0.11479   0.11757   0.12178   0.12778   0.13294
 Alpha virt. eigenvalues --    0.15021   0.16109   0.16187   0.16442   0.16823

  Beta  occ. eigenvalues --  -19.03193 -18.93233 -14.13795 -10.12457 -10.07838
  Beta  occ. eigenvalues --  -10.07828 -10.06407 -10.04714 -10.04015 -10.03162
  Beta  occ. eigenvalues --  -10.03097 -10.02525 -10.02483 -10.01181  -0.94921
  Beta  occ. eigenvalues --   -0.86495  -0.78519  -0.69890  -0.65769  -0.62141
  Beta  occ. eigenvalues --   -0.60423  -0.58134  -0.49382  -0.48899  -0.47220
  Beta  occ. eigenvalues --   -0.42053  -0.40236  -0.38159  -0.37030  -0.36273
  Beta  occ. eigenvalues --   -0.33749  -0.32374  -0.30264  -0.29641  -0.27702
  Beta  occ. eigenvalues --   -0.26735  -0.26220  -0.25287  -0.24394  -0.22866
  Beta  occ. eigenvalues --   -0.22466  -0.21578  -0.19733  -0.17029  -0.13752
  Beta  occ. eigenvalues --   -0.10991  -0.10648  -0.07102  -0.06928
  Beta virt. eigenvalues --    0.07125   0.09227   0.09241   0.09669   0.10930
  Beta virt. eigenvalues --    0.11130   0.11739   0.11958   0.12756   0.13291
  Beta virt. eigenvalues --    0.13586   0.15006   0.16086   0.16325   0.16543

 Mulliken charges and spin densities:
               1          2
     1  C   -0.262752   0.001486
     2  O   -0.165555   0.020648
     3  C   -0.111921   0.277642
     4  C    0.919719  -0.086101
     5  C   -0.258303   0.218888
     6  C   -0.021213   0.017284
     7  C   -0.079249   0.132991
     8  N    0.089327   0.082209
     9  C   -1.266904  -0.045420
    10  C    1.059050   0.088660
    11  C   -0.866613   0.191986
    12  C   -0.665292  -0.031469
    13  C   -0.102748   0.081856
    14  O   -0.320734   0.095961
    15  H    0.149891  -0.000222
    16  H    0.129940   0.002116
    17  H    0.129930   0.002147
    18  H    0.141789  -0.019564
    19  H    0.118391   0.001738
    20  H    0.144004  -0.011838
    21  H    0.090808  -0.014954
    22  H    0.101039   0.001866
    23  H    0.047398  -0.007910
 Sum of Mulliken charges =  -1.00000   1.00000

 Dipole moment (field-independent basis, Debye):
    X=             -8.4689    Y=             -0.3042    Z=             -0.0021  Tot=              8.4744
 Quadrupole moment (field-independent basis, Debye-Ang):
   XX=           -116.6473   YY=            -94.9327   ZZ=            -89.5288
   XY=              7.5169   XZ=              0.0056   YZ=              0.0012

 Summary of Natural Population Analysis:

                                       Natural Population
                Natural  -----------------------------------------------
    Atom  No    Charge         Core      Valence    Rydberg      Total
 -----------------------------------------------------------------------
      C    1   -0.10004      0.99962     2.09218    0.00824     3.10004
      O    2   -0.26489      0.99985     3.25557    0.00948     4.26489
      C    3    0.25075      0.99938     1.73846    0.01140     2.74925
      C    4   -0.07831      0.99939     2.07072    0.00820     3.07831
      C    5   -0.02258      0.99956     2.01369    0.00933     3.02258
      C    6   -0.14609      0.99956     2.13759    0.00893     3.14609
      C    7    0.06293      0.99961     1.92230    0.01515     2.93707
      N    8   -0.20106      0.99968     2.69076    0.01062     3.70106
      C    9    0.10142      0.99948     1.88656    0.01254     2.89858
      C   10   -0.07084      0.99934     2.06142    0.01008     3.07084
      C   11   -0.02667      0.99960     2.01705    0.01001     3.02667
      C   12   -0.17889      0.99946     2.17101    0.00843     3.17889
      C   13    0.21706      0.99970     1.76165    0.02159     2.78294
      O   14   -0.25686      0.99988     3.24847    0.00852     4.25686
      H   15    0.08560      0.00000     0.41352    0.00088     0.41440
      H   16    0.08076      0.00000     0.41748    0.00176     0.41924
      H   17    0.08079      0.00000     0.41744    0.00176     0.41921
      H   18    0.09644      0.00000     0.40206    0.00150     0.40356
      H   19    0.09076      0.00000     0.40794    0.00130     0.40924
      H   20    0.07553      0.00000     0.42310    0.00137     0.42447
      H   21    0.08575      0.00000     0.41172    0.00253     0.41425
      H   22    0.09292      0.00000     0.40571    0.00137     0.40708
      H   23    0.02557      0.00000     0.47113    0.00330     0.47443
 =======================================================================
   * Total *    0.00007     13.99412    34.83751    0.16830    48.99993

 Normal termination of Gaussian 16 at Thu Dec 10 10:05:59 2020.
