 Gaussian 16, Revision A.03,

 -----------------------------------------------------------
 # opt freq B3LYP/6-31G(d) empiricaldispersion=gd3bj scf=xqc
 -----------------------------------------------------------

 ----------------------------
 CID_291264_JID_8700_neutraal
 ----------------------------
 Symbolic Z-matrix:
 Charge =  0 Multiplicity = 1

 SCF Done:  E(RB3LYP) =  -808.164904018     A.U. after   15 cycles
 SCF Done:  E(RB3LYP) =  -808.172059577     A.U. after   13 cycles
 SCF Done:  E(RB3LYP) =  -808.172584926     A.U. after   13 cycles
 SCF Done:  E(RB3LYP) =  -808.173970001     A.U. after   12 cycles
 SCF Done:  E(RB3LYP) =  -808.174681965     A.U. after   12 cycles
 SCF Done:  E(RB3LYP) =  -808.175084587     A.U. after   13 cycles
 SCF Done:  E(RB3LYP) =  -808.175370754     A.U. after   11 cycles
 SCF Done:  E(RB3LYP) =  -808.175417478     A.U. after   11 cycles
 SCF Done:  E(RB3LYP) =  -808.175481747     A.U. after   10 cycles
 SCF Done:  E(RB3LYP) =  -808.175500373     A.U. after   10 cycles
 SCF Done:  E(RB3LYP) =  -808.175511110     A.U. after    9 cycles
 SCF Done:  E(RB3LYP) =  -808.175512245     A.U. after    8 cycles
 SCF Done:  E(RB3LYP) =  -808.175512822     A.U. after    7 cycles
 SCF Done:  E(RB3LYP) =  -808.175513054     A.U. after    7 cycles
 Optimization completed.
    -- Stationary point found.
 Normal termination of Gaussian 16 at Fri Dec 11 22:09:58 2020.

 --------------------------------------------------------------------
 #N Geom=AllCheck Guess=TCheck SCRF=Check GenChk RB3LYP/6-31G(d) Freq
 --------------------------------------------------------------------

 Structure from the checkpoint file:  "JID_8700.chk"
 ----------------------------
 CID_291264_JID_8700_neutraal
 ----------------------------
 Charge =  0 Multiplicity = 1

 SCF Done:  E(RB3LYP) =  -808.175513054     A.U. after    1 cycles

  Exact polarizability: 177.145  -0.323 136.163  -1.217  11.255 147.569
 Approx polarizability: 260.911  -4.675 198.066  -2.594  29.475 255.286

                      1                      2                      3
                      A                      A                      A
 Frequencies --     40.3113                56.5578                83.0325
 Red. masses --      4.8961                 7.7432                 5.4817
 Frc consts  --      0.0047                 0.0146                 0.0223
 IR Inten    --      1.6079                 0.1216                 5.6498

                      4                      5                      6
                      A                      A                      A
 Frequencies --    119.8451               144.0072               147.0230
 Red. masses --      2.8191                 1.4214                 2.7718
 Frc consts  --      0.0239                 0.0174                 0.0353
 IR Inten    --      0.2017                 0.0151                 0.2605

                      7                      8                      9
                      A                      A                      A
 Frequencies --    170.4393               177.6535               194.7366
 Red. masses --      1.2817                 1.7505                 2.9252
 Frc consts  --      0.0219                 0.0326                 0.0654
 IR Inten    --      0.2186                 0.4804                 1.7269

                     10                     11                     12
                      A                      A                      A
 Frequencies --    213.5921               243.6739               250.3670
 Red. masses --      2.8664                 2.2106                 3.7182
 Frc consts  --      0.0770                 0.0773                 0.1373
 IR Inten    --      1.7391                 1.6071                 2.3013

                     13                     14                     15
                      A                      A                      A
 Frequencies --    276.1922               283.0493               319.3882
 Red. masses --      1.4072                 3.4354                 3.7785
 Frc consts  --      0.0632                 0.1622                 0.2271
 IR Inten    --      0.9554                 0.8033                 4.5875

                     16                     17                     18
                      A                      A                      A
 Frequencies --    331.5954               344.1207               379.6565
 Red. masses --      3.4184                 4.0042                 3.7211
 Frc consts  --      0.2215                 0.2794                 0.3160
 IR Inten    --      0.6447                 1.2444                 0.4861

                     19                     20                     21
                      A                      A                      A
 Frequencies --    409.9211               462.5011               506.4109
 Red. masses --      3.4382                 3.7291                 3.4105
 Frc consts  --      0.3404                 0.4700                 0.5153
 IR Inten    --      2.7145                 2.2320                 3.4815

                     22                     23                     24
                      A                      A                      A
 Frequencies --    535.6270               544.4488               575.8524
 Red. masses --      3.9367                 4.1579                 4.4924
 Frc consts  --      0.6654                 0.7262                 0.8777
 IR Inten    --      4.9213                 2.1527                 0.5518

                     25                     26                     27
                      A                      A                      A
 Frequencies --    586.6412               611.3057               663.1109
 Red. masses --      4.0867                 4.6756                 4.8849
 Frc consts  --      0.8286                 1.0295                 1.2655
 IR Inten    --      3.1330                 6.5739                 7.3340

                     28                     29                     30
                      A                      A                      A
 Frequencies --    663.8618               695.0904               717.4106
 Red. masses --      3.0494                 5.0508                 3.9035
 Frc consts  --      0.7918                 1.4378                 1.1837
 IR Inten    --      7.3426                 3.5157                 6.4160

                     31                     32                     33
                      A                      A                      A
 Frequencies --    752.4600               761.3876               820.7727
 Red. masses --      3.6941                 3.1189                 2.5269
 Frc consts  --      1.2323                 1.0653                 1.0030
 IR Inten    --      1.1425                 3.1444                 0.4713

                     34                     35                     36
                      A                      A                      A
 Frequencies --    834.2386               854.3568               900.1568
 Red. masses --      2.9930                 2.7586                 1.9066
 Frc consts  --      1.2273                 1.1864                 0.9102
 IR Inten    --      1.1785                 0.4922                18.4995

                     37                     38                     39
                      A                      A                      A
 Frequencies --    910.5864               923.5616               936.3999
 Red. masses --      2.6083                 2.6677                 2.8540
 Frc consts  --      1.2742                 1.3406                 1.4745
 IR Inten    --      4.4610                 7.8990                13.2919

                     40                     41                     42
                      A                      A                      A
 Frequencies --    984.8196              1004.8582              1024.1370
 Red. masses --      1.9684                 2.0557                 1.7186
 Frc consts  --      1.1248                 1.2230                 1.0620
 IR Inten    --      7.4054                30.0113                10.3156

                     43                     44                     45
                      A                      A                      A
 Frequencies --   1037.1934              1054.7850              1067.6957
 Red. masses --      2.0649                 2.2545                 1.7618
 Frc consts  --      1.3088                 1.4779                 1.1833
 IR Inten    --     24.7253                15.1880                10.1050

                     46                     47                     48
                      A                      A                      A
 Frequencies --   1071.8128              1081.3033              1102.6164
 Red. masses --      1.8658                 2.2005                 2.2094
 Frc consts  --      1.2628                 1.5159                 1.5826
 IR Inten    --     19.5692                34.7632                12.9011

                     49                     50                     51
                      A                      A                      A
 Frequencies --   1104.4770              1139.8152              1148.9483
 Red. masses --      1.8625                 2.9152                 2.1882
 Frc consts  --      1.3387                 2.2314                 1.7019
 IR Inten    --     11.9149                40.1625                 1.1290

                     52                     53                     54
                      A                      A                      A
 Frequencies --   1172.9237              1176.3221              1198.0515
 Red. masses --      2.7243                 2.0299                 2.3201
 Frc consts  --      2.2083                 1.6549                 1.9621
 IR Inten    --      3.5733                 4.4436               138.0240

                     55                     56                     57
                      A                      A                      A
 Frequencies --   1231.1183              1252.7822              1270.6899
 Red. masses --      2.1472                 1.7079                 1.5553
 Frc consts  --      1.9174                 1.5793                 1.4796
 IR Inten    --     37.6929                 9.1529                20.7301

                     58                     59                     60
                      A                      A                      A
 Frequencies --   1281.6138              1287.7506              1314.2454
 Red. masses --      1.4805                 1.3957                 1.8689
 Frc consts  --      1.4328                 1.3637                 1.9019
 IR Inten    --      1.8381                 3.1864                20.2546

                     61                     62                     63
                      A                      A                      A
 Frequencies --   1318.9339              1338.3518              1355.6716
 Red. masses --      1.9240                 1.8660                 1.3017
 Frc consts  --      1.9720                 1.9693                 1.4095
 IR Inten    --     53.3774                 7.3961                14.0956

                     64                     65                     66
                      A                      A                      A
 Frequencies --   1356.2453              1380.7809              1392.2996
 Red. masses --      1.7633                 1.4613                 1.2898
 Frc consts  --      1.9110                 1.6415                 1.4732
 IR Inten    --      9.6839                11.9681                10.2616

                     67                     68                     69
                      A                      A                      A
 Frequencies --   1402.4455              1417.2554              1422.4217
 Red. masses --      1.4380                 1.3345                 1.3639
 Frc consts  --      1.6664                 1.5793                 1.6259
 IR Inten    --      5.1655                 1.3256                 7.1801

                     70                     71                     72
                      A                      A                      A
 Frequencies --   1430.0152              1436.1943              1441.1985
 Red. masses --      1.2747                 1.2994                 1.2206
 Frc consts  --      1.5358                 1.5792                 1.4937
 IR Inten    --     18.1678                 6.4538                11.5134

                     73                     74                     75
                      A                      A                      A
 Frequencies --   1499.0786              1506.3496              1516.5972
 Red. masses --      1.0723                 1.0555                 1.0637
 Frc consts  --      1.4198                 1.4111                 1.4415
 IR Inten    --     18.6001                 7.9744                 7.3314

                     76                     77                     78
                      A                      A                      A
 Frequencies --   1518.7354              1528.4580              1529.9874
 Red. masses --      1.0700                 1.0764                 1.0529
 Frc consts  --      1.4541                 1.4816                 1.4522
 IR Inten    --      0.1634                 5.5486                14.1604

                     79                     80                     81
                      A                      A                      A
 Frequencies --   1535.2925              1542.6026              1691.3207
 Red. masses --      1.0625                 1.0597                 6.8282
 Frc consts  --      1.4756                 1.4857                11.5083
 IR Inten    --      8.4681                 3.8281                60.7942

                     82                     83                     84
                      A                      A                      A
 Frequencies --   1728.3741              1779.5872              1882.0662
 Red. masses --      8.1190                11.3671                12.7050
 Frc consts  --     14.2899                21.2098                26.5151
 IR Inten    --    112.1949               223.9186               349.2147

                     85                     86                     87
                      A                      A                      A
 Frequencies --   3002.0220              3030.9793              3033.3851
 Red. masses --      1.0818                 1.0442                 1.0792
 Frc consts  --      5.7442                 5.6520                 5.8509
 IR Inten    --     17.6075                21.3620                 0.9852

                     88                     89                     90
                      A                      A                      A
 Frequencies --   3037.3686              3042.0965              3055.0329
 Red. masses --      1.0671                 1.0403                 1.0658
 Frc consts  --      5.8001                 5.6721                 5.8606
 IR Inten    --     24.2323                17.5752                29.7707

                     91                     92                     93
                      A                      A                      A
 Frequencies --   3067.0085              3072.5091              3075.1397
 Red. masses --      1.0764                 1.0660                 1.0797
 Frc consts  --      5.9657                 5.9292                 6.0155
 IR Inten    --     24.3556                13.3587                30.2730

                     94                     95                     96
                      A                      A                      A
 Frequencies --   3081.3209              3085.2201              3094.5914
 Red. masses --      1.0932                 1.0897                 1.1019
 Frc consts  --      6.1151                 6.1111                 6.2173
 IR Inten    --     20.2872                61.0604                42.7304

                     97                     98                     99
                      A                      A                      A
 Frequencies --   3099.8640              3135.1556              3139.4053
 Red. masses --      1.0963                 1.1012                 1.1012
 Frc consts  --      6.2069                 6.3775                 6.3947
 IR Inten    --      7.9543                16.1502                16.6538

                    100                    101                    102
                      A                      A                      A
 Frequencies --   3182.9723              3186.7228              3235.3016
 Red. masses --      1.0986                 1.0969                 1.0958
 Frc consts  --      6.5576                 6.5632                 6.7580
 IR Inten    --      7.5899                 1.4006                 6.2638

 - Thermochemistry -
 -------------------
 Temperature   298.150 Kelvin.  Pressure   1.00000 Atm.
 Atom     1 has atomic number  6 and mass  12.00000

 Molecular mass:   246.12559 amu.
 Principal axes and moments of inertia in atomic units:
                           1         2         3
     Eigenvalues --  3615.988713703.107184834.27149
           X            0.84797   0.52888  -0.03512
           Y           -0.52919   0.84850   0.00043
           Z            0.03003   0.01822   0.99938
 This molecule is an asymmetric top.
 Rotational symmetry number  1.
 Warning -- assumption of classical behavior for rotation
           may cause significant error
 Rotational temperatures (Kelvin)      0.02395     0.02339     0.01792
 Rotational constants (GHZ):           0.49910     0.48736     0.37332
 Zero-point vibrational energy     801830.9 (Joules/Mol)
                                  191.64219 (Kcal/Mol)
 Warning -- explicit consideration of  26 degrees of freedom as
           vibrations may cause significant error
 Vibrational temperatures:     58.00    81.37   119.47   172.43   207.19
          (Kelvin)            211.53   245.22   255.60   280.18   307.31
                              350.59   360.22   397.38   407.24   459.53
                              477.09   495.11   546.24   589.79   665.44
                              728.61   770.65   783.34   828.52   844.05
                              879.53   954.07   955.15  1000.08  1032.19
                             1082.62  1095.47  1180.91  1200.28  1229.23
                             1295.12  1310.13  1328.80  1347.27  1416.94
                             1445.77  1473.50  1492.29  1517.60  1536.18
                             1542.10  1555.75  1586.42  1589.10  1639.94
                             1653.08  1687.58  1692.47  1723.73  1771.30
                             1802.47  1828.24  1843.96  1852.79  1890.91
                             1897.65  1925.59  1950.51  1951.33  1986.64
                             2003.21  2017.81  2039.11  2046.55  2057.47
                             2066.36  2073.56  2156.84  2167.30  2182.05
                             2185.12  2199.11  2201.31  2208.94  2219.46
                             2433.43  2486.74  2560.43  2707.87  4319.24
                             4360.90  4364.36  4370.10  4376.90  4395.51
                             4412.74  4420.66  4424.44  4433.33  4438.94
                             4452.43  4460.01  4510.79  4516.90  4579.59
                             4584.98  4654.88

 Zero-point correction=                           0.305401 (Hartree/Particle)
 Thermal correction to Energy=                    0.321680
 Thermal correction to Enthalpy=                  0.322624
 Thermal correction to Gibbs Free Energy=         0.262418
 Sum of electronic and zero-point Energies=           -807.870112
 Sum of electronic and thermal Energies=              -807.853833
 Sum of electronic and thermal Enthalpies=            -807.852889
 Sum of electronic and thermal Free Energies=         -807.913095

                     E (Thermal)             CV                S
                      KCal/Mol        Cal/Mol-Kelvin    Cal/Mol-Kelvin
 Total                  201.857             63.760            126.715
 Electronic               0.000              0.000              0.000
 Translational            0.889              2.981             42.403
 Rotational               0.889              2.981             32.537
 Vibrational            200.080             57.798             51.776
 Vibration     1          0.594              1.981              5.244
 Vibration     2          0.596              1.975              4.574
 Vibration     3          0.600              1.961              3.818
 Vibration     4          0.609              1.933              3.103
 Vibration     5          0.616              1.909              2.750
 Vibration     6          0.617              1.906              2.710
 Vibration     7          0.626              1.879              2.431
 Vibration     8          0.628              1.870              2.353
 Vibration     9          0.635              1.847              2.182
 Vibration    10          0.644              1.820              2.013
 Vibration    11          0.659              1.773              1.776
 Vibration    12          0.663              1.762              1.728
 Vibration    13          0.678              1.717              1.557
 Vibration    14          0.682              1.705              1.515
 Vibration    15          0.705              1.636              1.313
 Vibration    16          0.714              1.612              1.252
 Vibration    17          0.723              1.587              1.193
 Vibration    18          0.750              1.514              1.041
 Vibration    19          0.774              1.449              0.927
 Vibration    20          0.820              1.333              0.759
 Vibration    21          0.862              1.236              0.642
 Vibration    22          0.891              1.171              0.575
 Vibration    23          0.900              1.152              0.556
 Vibration    24          0.932              1.083              0.493
 Vibration    25          0.944              1.060              0.473
 Vibration    26          0.970              1.008              0.431

                           ! Non-Optimized Parameters !
 Normal termination of Gaussian 16 at Fri Dec 11 22:30:21 2020.

 ----------------------------------------------------------------------
 # B3LYP/6-311++G(d,p) empiricaldispersion=gd3bj scf=xqc pop=npa geom=c
 heck
 ----------------------------------------------------------------------

 ------------------------------------
 CID_291264_JID_8700_Energie_neutraal
 ------------------------------------
 Structure from the checkpoint file:  "JID_8700.chk"
 Charge =  0 Multiplicity = 1

 SCF Done:  E(RB3LYP) =  -808.394978575     A.U. after   16 cycles
 Normal termination of Gaussian 16 at Fri Dec 11 22:39:10 2020.

 ----------------------------------------------------------------------
 # B3LYP/6-311++G(d,p) empiricaldispersion=gd3bj scf=xqc pop=npa geom=c
 heck
 ----------------------------------------------------------------------

 ----------------------------------
 CID_291264_JID_8700_Energie_kation
 ----------------------------------
 Structure from the checkpoint file:  "JID_8700.chk"
 Charge =  1 Multiplicity = 2

 SCF Done:  E(UB3LYP) =  -808.073466903     A.U. after   33 cycles
 SCF Done:  E(UB3LYP) =  -808.073466903     a.u. after    1 cycles
 Normal termination of Gaussian 16 at Fri Dec 11 23:05:41 2020.
 Gaussian 16:  ES64L-G16RevA.03 25-Dec-2016

 ----------------------------------------------------------------------
 # B3LYP/6-311++G(d,p) empiricaldispersion=gd3bj scf=xqc pop=npa geom=c
 heck
 ----------------------------------------------------------------------

 ---------------------------------
 CID_291264_JID_8700_Energie_anion
 ---------------------------------
 Structure from the checkpoint file:  "JID_8700.chk"
 Charge = -1 Multiplicity = 2

                         Standard orientation:
 ---------------------------------------------------------------------
 Center     Atomic      Atomic             Coordinates (Angstroms)
 Number     Number       Type             X           Y           Z
 ---------------------------------------------------------------------
      1          6           0       -1.481092   -1.375547    1.595892
      2          6           0       -0.675197   -2.120101    0.520965
      3          6           0       -0.704659   -1.668385   -0.965309
      4          6           0       -2.021518   -1.059599   -1.499736
      5          6           0       -2.158755    0.477638   -1.580189
      6          6           0       -1.662393    1.217564   -0.360862
      7          6           0       -0.335361    1.258035   -0.144630
      8          6           0        0.676242    0.634167   -1.078831
      9          6           0        0.647277   -0.916374   -1.159237
     10          8           0        1.504691   -1.464659   -0.133047
     11          6           0        0.807184   -2.082459    0.863573
     12          8           0        1.351005   -2.510892    1.847204
     13          6           0        2.009812    1.149086   -0.550276
     14          6           0        1.837778    1.874456    0.569776
     15          6           0        0.410529    1.961175    0.943124
     16          8           0       -0.050695    2.504502    1.940522
     17          6           0        3.297807    0.828775   -1.232109
     18          6           0       -2.685613    1.849185    0.535920
     19          1           0       -2.544274   -1.344782    1.336869
     20          1           0       -1.134830   -0.353951    1.751775
     21          1           0       -1.377308   -1.915692    2.541267
     22          1           0       -0.981493   -3.171106    0.570648
     23          1           0       -0.567136   -2.599741   -1.526899
     24          1           0       -2.835927   -1.453447   -0.881187
     25          1           0       -2.203670   -1.449134   -2.507959
     26          1           0       -3.212403    0.715282   -1.764194
     27          1           0       -1.606923    0.831176   -2.460965
     28          1           0        0.528895    0.995871   -2.108340
     29          1           0        1.107830   -1.207690   -2.107724
     30          1           0        2.619690    2.345118    1.154967
     31          1           0        3.502033   -0.246372   -1.164902
     32          1           0        3.253482    1.087397   -2.298402
     33          1           0        4.135142    1.365953   -0.778570
     34          1           0       -3.288272    2.570600   -0.032705
     35          1           0       -3.383893    1.084718    0.903927
     36          1           0       -2.223210    2.348487    1.386543
 ---------------------------------------------------------------------

 SCF Done:  E(UB3LYP) =  -808.408979606     A.U. after   31 cycles

 The electronic state is 2-A.
 Alpha  occ. eigenvalues --  -19.05219 -18.99951 -18.91720 -10.18751 -10.12854
 Alpha  occ. eigenvalues --  -10.08778 -10.08548 -10.07003 -10.06600 -10.05746
 Alpha  occ. eigenvalues --  -10.05646 -10.05421 -10.04982 -10.03699 -10.03220
 Alpha  occ. eigenvalues --  -10.03136 -10.01827 -10.01770  -0.99325  -0.91791
 Alpha  occ. eigenvalues --   -0.85604  -0.73467  -0.71316  -0.67980  -0.64999
 Alpha  occ. eigenvalues --   -0.62706  -0.60016  -0.58242  -0.55736  -0.53026
 Alpha  occ. eigenvalues --   -0.51824  -0.47055  -0.44859  -0.43015  -0.41137
 Alpha  occ. eigenvalues --   -0.40254  -0.37165  -0.35965  -0.35476  -0.34179
 Alpha  occ. eigenvalues --   -0.33196  -0.32632  -0.31894  -0.31038  -0.29908
 Alpha  occ. eigenvalues --   -0.29573  -0.29267  -0.28788  -0.28275  -0.27738
 Alpha  occ. eigenvalues --   -0.26577  -0.25664  -0.24880  -0.24565  -0.24074
 Alpha  occ. eigenvalues --   -0.23364  -0.23189  -0.22322  -0.21557  -0.20970
 Alpha  occ. eigenvalues --   -0.19502  -0.18674  -0.16411  -0.12176  -0.10975
 Alpha  occ. eigenvalues --   -0.07929   0.03810
 Alpha virt. eigenvalues --    0.06390   0.08024   0.08389   0.08798   0.10046
 Alpha virt. eigenvalues --    0.10502   0.10941   0.11242   0.11451   0.11691
 Alpha virt. eigenvalues --    0.12323   0.12965   0.13434   0.13943   0.14032

  Beta  occ. eigenvalues --  -19.05221 -18.99933 -18.91217 -10.18738 -10.12856
  Beta  occ. eigenvalues --  -10.08779 -10.08544 -10.06960 -10.06340 -10.05762
  Beta  occ. eigenvalues --  -10.05646 -10.05442 -10.05016 -10.03279 -10.03166
  Beta  occ. eigenvalues --  -10.02862 -10.01877 -10.01853  -0.99312  -0.91769
  Beta  occ. eigenvalues --   -0.84710  -0.73279  -0.71087  -0.67659  -0.64862
  Beta  occ. eigenvalues --   -0.62561  -0.59796  -0.58188  -0.55710  -0.52975
  Beta  occ. eigenvalues --   -0.51652  -0.46961  -0.44427  -0.42796  -0.41059
  Beta  occ. eigenvalues --   -0.40059  -0.36961  -0.35870  -0.35330  -0.34040
  Beta  occ. eigenvalues --   -0.33103  -0.32569  -0.31742  -0.30748  -0.29679
  Beta  occ. eigenvalues --   -0.29298  -0.29112  -0.28624  -0.28196  -0.27612
  Beta  occ. eigenvalues --   -0.26463  -0.25576  -0.24784  -0.24469  -0.23706
  Beta  occ. eigenvalues --   -0.23242  -0.22371  -0.21524  -0.21313  -0.20814
  Beta  occ. eigenvalues --   -0.19270  -0.18562  -0.16388  -0.10751  -0.09576
  Beta  occ. eigenvalues --   -0.07530
  Beta virt. eigenvalues --    0.06495   0.07920   0.08266   0.08826   0.10038
  Beta virt. eigenvalues --    0.10209   0.10552   0.11020   0.11318   0.11622
  Beta virt. eigenvalues --    0.11815   0.12479   0.13364   0.13467   0.13968

 Mulliken charges and spin densities:
               1          2
     1  C   -0.536600  -0.009144
     2  C    0.035568  -0.046744
     3  C    0.505710   0.082473
     4  C   -0.141667  -0.541249
     5  C   -0.469605  -0.041078
     6  C    0.130704   0.359669
     7  C    0.344366  -0.113808
     8  C   -0.028106  -0.060816
     9  C   -0.787733  -0.046069
    10  O    0.030087  -0.000149
    11  C   -0.163711   0.004473
    12  O   -0.292848   0.004117
    13  C    0.246358   0.247258
    14  C   -0.282595  -0.093776
    15  C   -0.175261   0.163287
    16  O   -0.395451   0.178360
    17  C   -0.588514  -0.021740
    18  C   -0.460986  -0.038833
    19  H    0.106612   0.003424
    20  H    0.254327  -0.002123
    21  H    0.169083  -0.000118
    22  H    0.204161  -0.002984
    23  H    0.136002   0.071313
    24  H    0.153742  -0.018290
    25  H   -0.258046   0.406661
    26  H    0.036163   0.135499
    27  H   -0.019772   0.190152
    28  H    0.206816  -0.002002
    29  H    0.141990   0.057424
    30  H    0.111515   0.003810
    31  H    0.165743   0.013055
    32  H    0.063171   0.072261
    33  H    0.137670   0.002004
    34  H    0.073863   0.048393
    35  H    0.120161  -0.000634
    36  H    0.227083  -0.004074
 Sum of Mulliken charges =  -1.00000   1.00000

 Dipole moment (field-independent basis, Debye):
    X=             -1.4436    Y=             -4.0089    Z=             -3.6880  Tot=              5.6353
 Quadrupole moment (field-independent basis, Debye-Ang):
   XX=           -132.1051   YY=           -141.7409   ZZ=           -141.9923
   XY=              7.2311   XZ=             -8.9653   YZ=             -4.7255

 Summary of Natural Population Analysis:

                                       Natural Population
                Natural  -----------------------------------------------
    Atom  No    Charge         Core      Valence    Rydberg      Total
 -----------------------------------------------------------------------
      C    1   -0.28523      0.99964     2.28053    0.00506     3.28523
      C    2   -0.15479      0.99955     2.14398    0.01127     3.15479
      C    3   -0.11655      0.99957     2.10476    0.01222     3.11655
      C    4   -0.18035      0.99960     2.17135    0.00940     3.18035
      C    5   -0.20496      0.99960     2.19555    0.00981     3.20496
      C    6    0.07806      0.99943     1.91208    0.01042     2.92194
      C    7   -0.07649      0.99939     2.06421    0.01289     3.07649
      C    8   -0.14275      0.99952     2.13099    0.01224     3.14275
      C    9    0.07991      0.99952     1.90483    0.01574     2.92009
      O   10   -0.27879      0.99986     3.27029    0.00863     4.27879
      C   11    0.41602      0.99964     1.55790    0.02643     2.58398
      O   12   -0.29784      0.99986     3.29175    0.00623     4.29784
      C   13    0.10346      0.99951     1.88565    0.01137     2.89654
      C   14   -0.16619      0.99940     2.15805    0.00874     3.16619
      C   15    0.27773      0.99957     1.70222    0.02048     2.72227
      O   16   -0.26603      0.99988     3.25983    0.00632     4.26603
      C   17   -0.30430      0.99962     2.30015    0.00453     3.30430
      C   18   -0.30493      0.99962     2.30063    0.00468     3.30493
      H   19    0.09591      0.00000     0.40328    0.00081     0.40409
      H   20    0.11950      0.00000     0.37948    0.00102     0.38050
      H   21    0.10190      0.00000     0.39719    0.00091     0.39810
      H   22    0.10542      0.00000     0.39352    0.00106     0.39458
      H   23    0.09940      0.00000     0.39941    0.00119     0.40060
      H   24    0.09469      0.00000     0.40435    0.00096     0.40531
      H   25    0.09747      0.00000     0.40082    0.00171     0.40253
      H   26    0.09749      0.00000     0.40164    0.00087     0.40251
      H   27    0.10150      0.00000     0.39686    0.00164     0.39850
      H   28    0.10386      0.00000     0.39472    0.00142     0.39614
      H   29    0.08795      0.00000     0.41079    0.00126     0.41205
      H   30    0.09486      0.00000     0.40366    0.00148     0.40514
      H   31    0.10979      0.00000     0.38906    0.00116     0.39021
      H   32    0.09835      0.00000     0.40044    0.00120     0.40165
      H   33    0.09908      0.00000     0.40012    0.00080     0.40092
      H   34    0.09641      0.00000     0.40245    0.00114     0.40359
      H   35    0.09524      0.00000     0.40390    0.00086     0.40476
      H   36    0.12519      0.00000     0.37371    0.00110     0.37481
 =======================================================================
   * Total *    0.00000     17.99279    47.79015    0.21705    66.00000

 Normal termination of Gaussian 16 at Fri Dec 11 23:29:58 2020.
