 Gaussian 16, Revision A.03,

 -----------------------------------------------------------
 # opt freq B3LYP/6-31G(d) empiricaldispersion=gd3bj scf=xqc
 -----------------------------------------------------------

 -------------------------------
 CID_131402183_JID_5383_neutraal
 -------------------------------
 Symbolic Z-matrix:
 Charge =  0 Multiplicity = 1

 SCF Done:  E(RB3LYP) =  -649.256745787     A.U. after   15 cycles
 SCF Done:  E(RB3LYP) =  -649.261438967     A.U. after   13 cycles
 SCF Done:  E(RB3LYP) =  -649.262177122     A.U. after   13 cycles
 SCF Done:  E(RB3LYP) =  -649.260495853     A.U. after   13 cycles
 SCF Done:  E(RB3LYP) =  -649.263154237     A.U. after   13 cycles
 SCF Done:  E(RB3LYP) =  -649.263793256     A.U. after   16 cycles
 SCF Done:  E(RB3LYP) =  -649.265102769     A.U. after   12 cycles
 SCF Done:  E(RB3LYP) =  -649.265676271     A.U. after   12 cycles
 SCF Done:  E(RB3LYP) =  -649.265671839     A.U. after   12 cycles
 SCF Done:  E(RB3LYP) =  -649.265751706     A.U. after   12 cycles
 SCF Done:  E(RB3LYP) =  -649.265818480     A.U. after   11 cycles
 SCF Done:  E(RB3LYP) =  -649.265822530     A.U. after   10 cycles
 SCF Done:  E(RB3LYP) =  -649.265823128     A.U. after    8 cycles
 SCF Done:  E(RB3LYP) =  -649.265823252     A.U. after    7 cycles
 SCF Done:  E(RB3LYP) =  -649.265823284     A.U. after    7 cycles
 Optimization completed.
    -- Stationary point found.
 Normal termination of Gaussian 16 at Thu Dec 10 15:58:44 2020.

 --------------------------------------------------------------------
 #N Geom=AllCheck Guess=TCheck SCRF=Check GenChk RB3LYP/6-31G(d) Freq
 --------------------------------------------------------------------

 Structure from the checkpoint file:  "JID_5383.chk"
 -------------------------------
 CID_131402183_JID_5383_neutraal
 -------------------------------
 Charge =  0 Multiplicity = 1

 SCF Done:  E(RB3LYP) =  -649.265823284     A.U. after    1 cycles

  Exact polarizability: 278.970  -3.394 135.949  -2.667  -7.793  62.046
 Approx polarizability: 434.270  -3.196 234.784  -8.743 -17.956  96.768

                      1                      2                      3
                      A                      A                      A
 Frequencies --     38.1605                53.6552                82.8738
 Red. masses --      3.4318                 8.0800                 3.6909
 Frc consts  --      0.0029                 0.0137                 0.0149
 IR Inten    --      0.8042                 0.3291                 0.4337

                      4                      5                      6
                      A                      A                      A
 Frequencies --    112.1387               142.0887               203.8272
 Red. masses --      4.1849                 5.1254                 3.0829
 Frc consts  --      0.0310                 0.0610                 0.0755
 IR Inten    --      3.3220                 5.9468                 3.2740

                      7                      8                      9
                      A                      A                      A
 Frequencies --    226.8704               249.2761               250.1405
 Red. masses --      1.4696                 3.8269                 2.3872
 Frc consts  --      0.0446                 0.1401                 0.0880
 IR Inten    --      0.8610                 5.0490                 0.9567

                     10                     11                     12
                      A                      A                      A
 Frequencies --    281.8974               295.3831               356.8113
 Red. masses --      3.6423                 3.6427                 3.1165
 Frc consts  --      0.1705                 0.1873                 0.2338
 IR Inten    --      5.9823                 2.1411                 3.4222

                     13                     14                     15
                      A                      A                      A
 Frequencies --    396.9313               453.4219               477.1072
 Red. masses --      3.3825                 3.3736                 4.5764
 Frc consts  --      0.3140                 0.4087                 0.6138
 IR Inten    --      2.2928                 7.1330                 2.2044

                     16                     17                     18
                      A                      A                      A
 Frequencies --    573.4479               586.9146               592.0539
 Red. masses --      3.4555                 5.6327                 4.3592
 Frc consts  --      0.6695                 1.1432                 0.9003
 IR Inten    --      0.0789                 4.5833                 1.5565

                     19                     20                     21
                      A                      A                      A
 Frequencies --    628.6726               675.1954               697.8075
 Red. masses --      6.4791                 1.5136                 2.4015
 Frc consts  --      1.5087                 0.4066                 0.6890
 IR Inten    --      0.4327                12.1080                 7.9459

                     22                     23                     24
                      A                      A                      A
 Frequencies --    724.9392               751.6597               752.4639
 Red. masses --      3.3712                 2.6895                 2.7859
 Frc consts  --      1.0439                 0.8953                 0.9294
 IR Inten    --      0.3696                21.2586                18.4958

                     25                     26                     27
                      A                      A                      A
 Frequencies --    761.5351               805.2528               823.8106
 Red. masses --      2.5712                 2.9815                 1.4773
 Frc consts  --      0.8786                 1.1391                 0.5907
 IR Inten    --     29.8683                20.7016                13.7557

                     28                     29                     30
                      A                      A                      A
 Frequencies --    845.7259               863.7777               927.8791
 Red. masses --      1.4612                 3.0820                 1.2968
 Frc consts  --      0.6158                 1.3548                 0.6578
 IR Inten    --      2.0949                 6.0888                 0.6183

                     31                     32                     33
                      A                      A                      A
 Frequencies --    932.4128               935.1597               980.6582
 Red. masses --      1.6966                 3.4635                 1.2526
 Frc consts  --      0.8691                 1.7846                 0.7097
 IR Inten    --      8.5834                 3.8050                 0.0942

                     34                     35                     36
                      A                      A                      A
 Frequencies --   1000.2998              1017.2924              1029.0536
 Red. masses --      2.4392                 3.3477                 1.7440
 Frc consts  --      1.4380                 2.0412                 1.0881
 IR Inten    --     16.2498                 6.2962                 1.9502

                     37                     38                     39
                      A                      A                      A
 Frequencies --   1044.6900              1090.8664              1110.5193
 Red. masses --      2.7895                 1.8714                 1.5991
 Frc consts  --      1.7937                 1.3121                 1.1619
 IR Inten    --      5.8592                51.2389                21.4629

                     40                     41                     42
                      A                      A                      A
 Frequencies --   1157.7757              1172.6793              1202.1371
 Red. masses --      1.5641                 1.1993                 1.9684
 Frc consts  --      1.2353                 0.9717                 1.6760
 IR Inten    --      8.3708                 9.5949                36.6546

                     43                     44                     45
                      A                      A                      A
 Frequencies --   1223.7676              1276.2606              1296.2667
 Red. masses --      1.5139                 2.9652                 2.0575
 Frc consts  --      1.3358                 2.8457                 2.0369
 IR Inten    --     86.5651                30.7884                 7.0955

                     46                     47                     48
                      A                      A                      A
 Frequencies --   1311.7903              1343.6955              1375.4712
 Red. masses --      1.5361                 2.1230                 1.7182
 Frc consts  --      1.5574                 2.2584                 1.9153
 IR Inten    --     16.7207                85.3044                19.1230

                     49                     50                     51
                      A                      A                      A
 Frequencies --   1398.5434              1407.3807              1419.1104
 Red. masses --      2.1749                 2.0411                 2.1533
 Frc consts  --      2.5063                 2.3819                 2.5549
 IR Inten    --     15.6413                21.2048                 0.8874

                     52                     53                     54
                      A                      A                      A
 Frequencies --   1434.1308              1456.3983              1505.2449
 Red. masses --      1.2264                 1.4182                 3.0282
 Frc consts  --      1.4861                 1.7723                 4.0424
 IR Inten    --      4.3599                 4.6550                11.2671

                     55                     56                     57
                      A                      A                      A
 Frequencies --   1521.6941              1527.7827              1533.9857
 Red. masses --      1.0842                 1.0991                 4.7566
 Frc consts  --      1.4792                 1.5115                 6.5946
 IR Inten    --     13.0874                 8.2141                12.8645

                     58                     59                     60
                      A                      A                      A
 Frequencies --   1540.5284              1574.8589              1585.7922
 Red. masses --      1.0715                 5.1100                 4.8757
 Frc consts  --      1.4983                 7.4671                 7.2240
 IR Inten    --      6.3990                 2.9169                 2.9676

                     61                     62                     63
                      A                      A                      A
 Frequencies --   1690.6280              1706.8408              1779.0044
 Red. masses --      6.2709                 6.7408                 9.9100
 Frc consts  --     10.5604                11.5704                18.4790
 IR Inten    --     16.8130               102.0856               379.0475

                     64                     65                     66
                      A                      A                      A
 Frequencies --   2910.8663              3051.9576              3063.8687
 Red. masses --      1.0842                 1.0352                 1.0621
 Frc consts  --      5.4126                 5.6809                 5.8742
 IR Inten    --    134.0209                26.0454                18.2036

                     67                     68                     69
                      A                      A                      A
 Frequencies --   3105.5337              3120.7799              3134.4444
 Red. masses --      1.1012                 1.1015                 1.1030
 Frc consts  --      6.2574                 6.3209                 6.3849
 IR Inten    --      2.0242                42.3442                21.9949

                     70                     71                     72
                      A                      A                      A
 Frequencies --   3166.0293              3212.4659              3227.5383
 Red. masses --      1.0872                 1.0878                 1.0892
 Frc consts  --      6.4211                 6.6143                 6.6847
 IR Inten    --      8.2515                 4.7125                 2.5815

                     73                     74                     75
                      A                      A                      A
 Frequencies --   3239.4479              3245.3299              3318.0261
 Red. masses --      1.0947                 1.0981                 1.0966
 Frc consts  --      6.7683                 6.8139                 7.1133
 IR Inten    --      4.7068                 6.8626                 0.1065

 - Thermochemistry -
 -------------------
 Temperature   298.150 Kelvin.  Pressure   1.00000 Atm.
 Atom     1 has atomic number  6 and mass  12.00000

 Molecular mass:   200.09496 amu.
 Principal axes and moments of inertia in atomic units:
                           1         2         3
     Eigenvalues --   991.193366413.207987276.29106
           X            0.99997   0.00795   0.00218
           Y           -0.00795   0.99997   0.00025
           Z           -0.00218  -0.00027   1.00000
 This molecule is an asymmetric top.
 Rotational symmetry number  1.
 Warning -- assumption of classical behavior for rotation
           may cause significant error
 Rotational temperatures (Kelvin)      0.08738     0.01351     0.01190
 Rotational constants (GHZ):           1.82078     0.28141     0.24803
 Zero-point vibrational energy     574271.7 (Joules/Mol)
                                  137.25422 (Kcal/Mol)
 Warning -- explicit consideration of  18 degrees of freedom as
           vibrations may cause significant error
 Vibrational temperatures:     54.90    77.20   119.24   161.34   204.43
          (Kelvin)            293.26   326.42   358.65   359.90   405.59
                              424.99   513.37   571.10   652.37   686.45
                              825.06   844.44   851.83   904.52   971.46
                             1003.99  1043.03  1081.47  1082.63  1095.68
                             1158.58  1185.28  1216.81  1242.78  1335.01
                             1341.53  1345.49  1410.95  1439.21  1463.66
                             1480.58  1503.08  1569.51  1597.79  1665.78
                             1687.22  1729.61  1760.73  1836.25  1865.04
                             1887.37  1933.28  1979.00  2012.19  2024.91
                             2041.78  2063.39  2095.43  2165.71  2189.38
                             2198.14  2207.06  2216.48  2265.87  2281.60
                             2432.44  2455.76  2559.59  4188.09  4391.09
                             4408.22  4468.17  4490.11  4509.77  4555.21
                             4622.02  4643.71  4660.84  4669.31  4773.90

 Zero-point correction=                           0.218729 (Hartree/Particle)
 Thermal correction to Energy=                    0.231576
 Thermal correction to Enthalpy=                  0.232520
 Thermal correction to Gibbs Free Energy=         0.178582
 Sum of electronic and zero-point Energies=           -649.047095
 Sum of electronic and thermal Energies=              -649.034248
 Sum of electronic and thermal Enthalpies=            -649.033303
 Sum of electronic and thermal Free Energies=         -649.087242

                     E (Thermal)             CV                S
                      KCal/Mol        Cal/Mol-Kelvin    Cal/Mol-Kelvin
 Total                  145.316             49.540            113.523
 Electronic               0.000              0.000              0.000
 Translational            0.889              2.981             41.786
 Rotational               0.889              2.981             32.203
 Vibrational            143.539             43.579             39.534
 Vibration     1          0.594              1.982              5.352
 Vibration     2          0.596              1.976              4.678
 Vibration     3          0.600              1.961              3.822
 Vibration     4          0.607              1.939              3.232
 Vibration     5          0.616              1.911              2.776
 Vibration     6          0.640              1.834              2.098
 Vibration     7          0.651              1.800              1.904
 Vibration     8          0.662              1.764              1.736
 Vibration     9          0.663              1.763              1.730
 Vibration    10          0.681              1.707              1.522
 Vibration    11          0.690              1.682              1.443
 Vibration    12          0.732              1.561              1.136
 Vibration    13          0.763              1.477              0.974
 Vibration    14          0.812              1.353              0.785
 Vibration    15          0.834              1.301              0.718
 Vibration    16          0.930              1.089              0.498
 Vibration    17          0.944              1.060              0.473
 Vibration    18          0.950              1.049              0.464

                           ! Non-Optimized Parameters !
 Normal termination of Gaussian 16 at Thu Dec 10 16:06:46 2020.

 ----------------------------------------------------------------------
 # B3LYP/6-311++G(d,p) empiricaldispersion=gd3bj scf=xqc pop=npa geom=c
 heck
 ----------------------------------------------------------------------

 ---------------------------------------
 CID_131402183_JID_5383_Energie_neutraal
 ---------------------------------------
 Structure from the checkpoint file:  "JID_5383.chk"
 Charge =  0 Multiplicity = 1

 SCF Done:  E(RB3LYP) =  -649.438239166     A.U. after   16 cycles
 Normal termination of Gaussian 16 at Thu Dec 10 16:11:16 2020.

 ----------------------------------------------------------------------
 # B3LYP/6-311++G(d,p) empiricaldispersion=gd3bj scf=xqc pop=npa geom=c
 heck
 ----------------------------------------------------------------------

 -------------------------------------
 CID_131402183_JID_5383_Energie_kation
 -------------------------------------
 Structure from the checkpoint file:  "JID_5383.chk"
 Charge =  1 Multiplicity = 2

 SCF Done:  E(UB3LYP) =  -649.145633340     A.U. after   29 cycles
 Normal termination of Gaussian 16 at Thu Dec 10 16:21:26 2020.
 Gaussian 16:  ES64L-G16RevA.03 25-Dec-2016

 ----------------------------------------------------------------------
 # B3LYP/6-311++G(d,p) empiricaldispersion=gd3bj scf=xqc pop=npa geom=c
 heck
 ----------------------------------------------------------------------

 ------------------------------------
 CID_131402183_JID_5383_Energie_anion
 ------------------------------------
 Structure from the checkpoint file:  "JID_5383.chk"
 Charge = -1 Multiplicity = 2

                         Standard orientation:
 ---------------------------------------------------------------------
 Center     Atomic      Atomic             Coordinates (Angstroms)
 Number     Number       Type             X           Y           Z
 ---------------------------------------------------------------------
      1          6           0        2.746001    2.026993    0.702655
      2          6           0        2.704622    1.114439   -0.535592
      3          6           0        2.598296   -0.340603   -0.167725
      4          6           0        1.460042   -1.036496    0.065618
      5          6           0        0.082402   -0.594533    0.021302
      6          6           0       -0.456768    0.685679   -0.105211
      7          7           0       -1.819530    0.521291   -0.076016
      8          6           0       -2.841555    1.436924   -0.157697
      9          6           0       -4.132841    0.998989   -0.101152
     10          6           0       -4.420327   -0.390003    0.040935
     11          6           0       -3.402091   -1.305867    0.124467
     12          6           0       -2.058960   -0.864502    0.068740
     13          7           0       -0.917992   -1.535342    0.132451
     14          6           0        3.861870   -1.081248   -0.003993
     15          8           0        4.970336   -0.592993   -0.144489
     16          1           0        1.852380    1.902275    1.324298
     17          1           0        2.818885    3.080351    0.409617
     18          1           0        3.618423    1.785361    1.317519
     19          1           0        1.875298    1.395940   -1.194083
     20          1           0        3.631672    1.250402   -1.101056
     21          1           0        1.551111   -2.092849    0.315128
     22          1           0       -0.011756    1.663308   -0.178691
     23          1           0       -2.551572    2.474983   -0.265930
     24          1           0       -4.936383    1.723550   -0.166651
     25          1           0       -5.453706   -0.717804    0.082712
     26          1           0       -3.581401   -2.369089    0.233369
     27          1           0        3.742871   -2.152761    0.270534
 ---------------------------------------------------------------------

 SCF Done:  E(UB3LYP) =  -649.467548080     A.U. after   26 cycles

 The electronic state is 2-A.
 Alpha  occ. eigenvalues --  -18.94543 -14.26968 -14.15757 -10.10775 -10.09277
 Alpha  occ. eigenvalues --  -10.08285 -10.07084 -10.06559 -10.06123 -10.06072
 Alpha  occ. eigenvalues --  -10.05159 -10.04558 -10.04296 -10.02594 -10.02393
 Alpha  occ. eigenvalues --   -0.90646  -0.88027  -0.78070  -0.70968  -0.68156
 Alpha  occ. eigenvalues --   -0.63974  -0.62046  -0.60316  -0.53919  -0.51270
 Alpha  occ. eigenvalues --   -0.49654  -0.49251  -0.44002  -0.40972  -0.39451
 Alpha  occ. eigenvalues --   -0.37449  -0.36146  -0.34625  -0.33874  -0.32888
 Alpha  occ. eigenvalues --   -0.32668  -0.30918  -0.29451  -0.28433  -0.26944
 Alpha  occ. eigenvalues --   -0.26207  -0.25550  -0.24838  -0.23597  -0.23031
 Alpha  occ. eigenvalues --   -0.21683  -0.21340  -0.20379  -0.16079  -0.15048
 Alpha  occ. eigenvalues --   -0.10508  -0.10234  -0.08945   0.02577
 Alpha virt. eigenvalues --    0.07336   0.07773   0.08448   0.09327   0.10565
 Alpha virt. eigenvalues --    0.11035   0.11254   0.11882   0.12065   0.12999
 Alpha virt. eigenvalues --    0.13250   0.14181   0.15079   0.15429   0.15664

  Beta  occ. eigenvalues --  -18.94143 -14.27031 -14.15588 -10.10833 -10.09047
  Beta  occ. eigenvalues --  -10.08125 -10.07007 -10.06509 -10.06074 -10.06029
  Beta  occ. eigenvalues --  -10.04927 -10.04541 -10.04308 -10.02339 -10.02245
  Beta  occ. eigenvalues --   -0.90590  -0.87314  -0.77797  -0.70696  -0.67801
  Beta  occ. eigenvalues --   -0.63686  -0.61727  -0.60055  -0.53403  -0.51022
  Beta  occ. eigenvalues --   -0.49437  -0.49098  -0.43607  -0.40815  -0.39222
  Beta  occ. eigenvalues --   -0.37261  -0.35992  -0.34463  -0.33618  -0.32807
  Beta  occ. eigenvalues --   -0.32576  -0.30727  -0.29163  -0.28275  -0.26688
  Beta  occ. eigenvalues --   -0.25920  -0.25356  -0.24619  -0.22354  -0.22182
  Beta  occ. eigenvalues --   -0.21249  -0.21173  -0.19628  -0.14852  -0.14786
  Beta  occ. eigenvalues --   -0.09891  -0.09190  -0.07955
  Beta virt. eigenvalues --    0.07289   0.07594   0.08391   0.09184   0.09546
  Beta virt. eigenvalues --    0.10589   0.11038   0.11409   0.12040   0.12628
  Beta virt. eigenvalues --    0.12972   0.13235   0.14333   0.15081   0.15431

 Mulliken charges and spin densities:
               1          2
     1  C   -0.603848  -0.011773
     2  C   -0.185868  -0.032809
     3  C    0.791115   0.100908
     4  C   -0.796902   0.190732
     5  C   -0.184972   0.058830
     6  C    0.000986   0.040221
     7  N    0.181774  -0.026794
     8  C   -0.193092   0.137703
     9  C   -0.069712   0.077371
    10  C   -0.679527   0.031199
    11  C    0.067729   0.179210
    12  C   -0.115319  -0.049762
    13  N   -0.055978   0.069888
    14  C   -0.394481   0.138854
    15  O   -0.373430   0.134105
    16  H    0.132185   0.001222
    17  H    0.081323   0.008141
    18  H    0.159738  -0.000396
    19  H    0.098923   0.007142
    20  H    0.194556   0.003298
    21  H    0.167946  -0.013441
    22  H    0.207500  -0.001389
    23  H    0.083424  -0.013802
    24  H    0.147275  -0.002475
    25  H    0.118809  -0.003009
    26  H    0.160503  -0.013898
    27  H    0.059342  -0.009277
 Sum of Mulliken charges =  -1.00000   1.00000

 Dipole moment (field-independent basis, Debye):
    X=             -6.1961    Y=              3.8306    Z=              0.0573  Tot=              7.2849
 Quadrupole moment (field-independent basis, Debye-Ang):
   XX=           -164.0725   YY=            -98.8135   ZZ=            -98.6803
   XY=              2.1417   XZ=              1.8247   YZ=             -1.1881

 Summary of Natural Population Analysis:

                                       Natural Population
                Natural  -----------------------------------------------
    Atom  No    Charge         Core      Valence    Rydberg      Total
 -----------------------------------------------------------------------
      C    1   -0.28079      0.99967     2.27700    0.00412     3.28079
      C    2   -0.20676      0.99961     2.19892    0.00824     3.20676
      C    3   -0.03967      0.99948     2.03025    0.00994     3.03967
      C    4   -0.02641      0.99942     2.01627    0.01073     3.02641
      C    5    0.06046      0.99957     1.92693    0.01304     2.93954
      C    6   -0.02911      0.99953     2.01972    0.00986     3.02911
      N    7   -0.19130      0.99962     2.68257    0.00911     3.69130
      C    8    0.04694      0.99957     1.94294    0.01056     2.95306
      C    9   -0.12759      0.99958     2.11874    0.00926     3.12759
      C   10   -0.10919      0.99958     2.09946    0.01014     3.10919
      C   11   -0.07253      0.99953     2.06410    0.00891     3.07253
      C   12    0.16785      0.99959     1.81745    0.01512     2.83215
      N   13   -0.23508      0.99969     2.72488    0.01051     3.73508
      C   14    0.21663      0.99966     1.76270    0.02100     2.78337
      O   15   -0.26838      0.99988     3.26026    0.00824     4.26838
      H   16    0.09445      0.00000     0.40426    0.00129     0.40555
      H   17    0.08741      0.00000     0.41158    0.00101     0.41259
      H   18    0.10072      0.00000     0.39827    0.00100     0.39928
      H   19    0.09345      0.00000     0.40492    0.00164     0.40655
      H   20    0.10678      0.00000     0.39164    0.00159     0.39322
      H   21    0.09456      0.00000     0.40320    0.00224     0.40544
      H   22    0.09970      0.00000     0.39916    0.00114     0.40030
      H   23    0.09082      0.00000     0.40822    0.00096     0.40918
      H   24    0.09665      0.00000     0.40246    0.00089     0.40335
      H   25    0.09332      0.00000     0.40571    0.00097     0.40668
      H   26    0.10153      0.00000     0.39750    0.00097     0.39847
      H   27    0.03554      0.00000     0.46160    0.00286     0.46446
 =======================================================================
   * Total *    0.00000     14.99397    37.83068    0.17534    53.00000

 Normal termination of Gaussian 16 at Thu Dec 10 16:31:17 2020.
