 Gaussian 16, Revision A.03,

 -----------------------------------------------------------
 # opt freq B3LYP/6-31G(d) empiricaldispersion=gd3bj scf=xqc
 -----------------------------------------------------------

 ------------------------------
 CID_69320810_JID_8192_neutraal
 ------------------------------
 Symbolic Z-matrix:
 Charge =  0 Multiplicity = 1

 SCF Done:  E(RB3LYP) =  -766.046124196     A.U. after   15 cycles
 SCF Done:  E(RB3LYP) =  -766.048893731     A.U. after   13 cycles
 SCF Done:  E(RB3LYP) =  -766.049365911     A.U. after   12 cycles
 SCF Done:  E(RB3LYP) =  -766.049828863     A.U. after   11 cycles
 SCF Done:  E(RB3LYP) =  -766.049935475     A.U. after   11 cycles
 SCF Done:  E(RB3LYP) =  -766.049958515     A.U. after   11 cycles
 SCF Done:  E(RB3LYP) =  -766.049991824     A.U. after   10 cycles
 SCF Done:  E(RB3LYP) =  -766.050032722     A.U. after   12 cycles
 SCF Done:  E(RB3LYP) =  -766.050051311     A.U. after   12 cycles
 SCF Done:  E(RB3LYP) =  -766.050080470     A.U. after   12 cycles
 SCF Done:  E(RB3LYP) =  -766.050155237     A.U. after   11 cycles
 SCF Done:  E(RB3LYP) =  -766.050157204     A.U. after   10 cycles
 SCF Done:  E(RB3LYP) =  -766.050157425     A.U. after    9 cycles
 SCF Done:  E(RB3LYP) =  -766.050157436     A.U. after    8 cycles
 SCF Done:  E(RB3LYP) =  -766.050157449     A.U. after    7 cycles
 Optimization completed.
    -- Stationary point found.
 Normal termination of Gaussian 16 at Fri Dec 11 19:31:05 2020.

 --------------------------------------------------------------------
 #N Geom=AllCheck Guess=TCheck SCRF=Check GenChk RB3LYP/6-31G(d) Freq
 --------------------------------------------------------------------

 Structure from the checkpoint file:  "JID_8192.chk"
 ------------------------------
 CID_69320810_JID_8192_neutraal
 ------------------------------
 Charge =  0 Multiplicity = 1

 SCF Done:  E(RB3LYP) =  -766.050157449     A.U. after    1 cycles

  Exact polarizability: 200.779  -4.509 211.868 -20.768  -2.074  94.597
 Approx polarizability: 304.925   5.751 357.030 -45.859  -6.107 149.868

                      1                      2                      3
                      A                      A                      A
 Frequencies --     33.7625                52.1331                58.5866
 Red. masses --      3.3704                 3.6558                 3.4293
 Frc consts  --      0.0023                 0.0059                 0.0069
 IR Inten    --      0.1033                 2.1366                 1.0644

                      4                      5                      6
                      A                      A                      A
 Frequencies --     68.3530               114.4295               145.3322
 Red. masses --      3.4074                 4.8163                 4.8058
 Frc consts  --      0.0094                 0.0372                 0.0598
 IR Inten    --      1.9499                 0.1500                 0.1543

                      7                      8                      9
                      A                      A                      A
 Frequencies --    195.1032               223.1340               225.8066
 Red. masses --      2.9181                 1.8672                 1.0594
 Frc consts  --      0.0654                 0.0548                 0.0318
 IR Inten    --      1.8377                 1.0442                 0.0429

                     10                     11                     12
                      A                      A                      A
 Frequencies --    255.6321               277.2334               296.7790
 Red. masses --      1.8209                 3.7003                 2.6097
 Frc consts  --      0.0701                 0.1676                 0.1354
 IR Inten    --      0.2377                 1.3480                 1.0692

                     13                     14                     15
                      A                      A                      A
 Frequencies --    315.3014               327.3380               365.9529
 Red. masses --      4.8878                 4.5765                 3.2364
 Frc consts  --      0.2863                 0.2889                 0.2554
 IR Inten    --      1.9529                 0.2700                 0.5496

                     16                     17                     18
                      A                      A                      A
 Frequencies --    409.5608               420.7874               442.4455
 Red. masses --      4.7524                 3.6015                 3.6988
 Frc consts  --      0.4697                 0.3757                 0.4266
 IR Inten    --      0.3108                 2.0469                 1.4796

                     19                     20                     21
                      A                      A                      A
 Frequencies --    446.9876               455.9957               505.2817
 Red. masses --      1.9595                 3.8308                 3.6263
 Frc consts  --      0.2307                 0.4693                 0.5455
 IR Inten    --      0.6768                 0.8643                 2.5002

                     22                     23                     24
                      A                      A                      A
 Frequencies --    551.6869               577.7271               643.5195
 Red. masses --      5.0861                 3.8257                 4.9989
 Frc consts  --      0.9121                 0.7523                 1.2197
 IR Inten    --      4.4422                 4.1845                 4.0758

                     25                     26                     27
                      A                      A                      A
 Frequencies --    662.0460               677.0871               705.2983
 Red. masses --      4.3053                 4.8762                 5.6482
 Frc consts  --      1.1118                 1.3171                 1.6554
 IR Inten    --     17.4329                 5.1766                14.7866

                     28                     29                     30
                      A                      A                      A
 Frequencies --    724.8249               737.0597               775.7180
 Red. masses --      2.9698                 3.6678                 1.7616
 Frc consts  --      0.9193                 1.1740                 0.6246
 IR Inten    --     11.0452                 3.4173                22.6266

                     31                     32                     33
                      A                      A                      A
 Frequencies --    794.5908               818.9164               832.1729
 Red. masses --      4.5461                 1.5281                 2.6108
 Frc consts  --      1.6911                 0.6038                 1.0652
 IR Inten    --     10.6076                13.3490                 1.6832

                     34                     35                     36
                      A                      A                      A
 Frequencies --    860.0093               872.5428               918.5295
 Red. masses --      3.2964                 1.4844                 1.4082
 Frc consts  --      1.4365                 0.6658                 0.7000
 IR Inten    --      1.8867                 1.2313                 2.9619

                     37                     38                     39
                      A                      A                      A
 Frequencies --    932.5384               947.3482               958.1404
 Red. masses --      1.6394                 1.2625                 1.9722
 Frc consts  --      0.8400                 0.6676                 1.0667
 IR Inten    --      1.2992                 3.3924                 5.1589

                     40                     41                     42
                      A                      A                      A
 Frequencies --    962.7424               982.8954               983.9712
 Red. masses --      1.8257                 1.3557                 1.4128
 Frc consts  --      0.9970                 0.7717                 0.8059
 IR Inten    --      4.2584                 0.4025                 0.1934

                     43                     44                     45
                      A                      A                      A
 Frequencies --    999.6609              1055.0574              1086.8999
 Red. masses --      7.2852                 5.8548                 2.2228
 Frc consts  --      4.2894                 3.8398                 1.5472
 IR Inten    --      7.0854                 3.6514                 1.4371

                     46                     47                     48
                      A                      A                      A
 Frequencies --   1117.5491              1128.7273              1156.6956
 Red. masses --      4.0044                 1.9001                 2.2646
 Frc consts  --      2.9466                 1.4263                 1.7852
 IR Inten    --     57.1623                 3.5284                 4.1770

                     49                     50                     51
                      A                      A                      A
 Frequencies --   1167.0729              1201.6611              1210.3424
 Red. masses --      2.0282                 1.1170                 1.7585
 Frc consts  --      1.6276                 0.9503                 1.5178
 IR Inten    --     17.8448                 1.0573                 5.8139

                     52                     53                     54
                      A                      A                      A
 Frequencies --   1213.0224              1223.2160              1245.5784
 Red. masses --      1.5257                 1.4468                 2.1981
 Frc consts  --      1.3227                 1.2754                 2.0093
 IR Inten    --      2.9157                 2.3183                 0.8324

                     55                     56                     57
                      A                      A                      A
 Frequencies --   1250.6354              1286.5521              1328.7377
 Red. masses --      1.7837                 1.6081                 2.7190
 Frc consts  --      1.6438                 1.5682                 2.8283
 IR Inten    --     26.9822                 5.8359                 1.2103

                     58                     59                     60
                      A                      A                      A
 Frequencies --   1334.3782              1349.2629              1368.1019
 Red. masses --      2.5115                 1.2761                 2.2376
 Frc consts  --      2.6348                 1.3687                 2.4676
 IR Inten    --      7.6235                13.4569                 1.1778

                     61                     62                     63
                      A                      A                      A
 Frequencies --   1380.9945              1394.0238              1414.9895
 Red. masses --      2.4811                 1.6423                 3.3758
 Frc consts  --      2.7879                 1.8804                 3.9823
 IR Inten    --      6.6903                 4.1694                 5.8587

                     64                     65                     66
                      A                      A                      A
 Frequencies --   1416.0828              1433.3892              1440.0313
 Red. masses --      1.7015                 1.2884                 3.8887
 Frc consts  --      2.0103                 1.5597                 4.7511
 IR Inten    --     22.1269                 5.2369                39.8770

                     67                     68                     69
                      A                      A                      A
 Frequencies --   1454.1104              1458.6267              1488.3324
 Red. masses --      1.2520                 1.1084                 2.5194
 Frc consts  --      1.5597                 1.3894                 3.2881
 IR Inten    --      6.1004                 7.5770                 0.7474

                     70                     71                     72
                      A                      A                      A
 Frequencies --   1516.0867              1521.3117              1529.6171
 Red. masses --      1.0659                 1.0804                 1.2661
 Frc consts  --      1.4435                 1.4732                 1.7453
 IR Inten    --      2.9393                 5.1645                 7.6905

                     73                     74                     75
                      A                      A                      A
 Frequencies --   1530.7043              1535.4772              1540.5786
 Red. masses --      2.6048                 1.0601                 1.0760
 Frc consts  --      3.5959                 1.4726                 1.5047
 IR Inten    --     23.7163                 1.6539                13.6429

                     76                     77                     78
                      A                      A                      A
 Frequencies --   1553.4085              1575.6000              1635.3965
 Red. masses --      3.2100                 4.3368                 5.8893
 Frc consts  --      4.5638                 6.3433                 9.2802
 IR Inten    --     54.5677                34.4360                 2.1801

                     79                     80                     81
                      A                      A                      A
 Frequencies --   1664.9674              1788.7764              3013.9817
 Red. masses --      5.8636                12.4180                 1.0714
 Frc consts  --      9.5769                23.4107                 5.7345
 IR Inten    --      2.3046               371.3411                 4.3336

                     82                     83                     84
                      A                      A                      A
 Frequencies --   3041.1733              3045.5049              3056.5692
 Red. masses --      1.0369                 1.0433                 1.0774
 Frc consts  --      5.6505                 5.7015                 5.9306
 IR Inten    --     22.9977                15.3024                 5.0103

                     85                     86                     87
                      A                      A                      A
 Frequencies --   3074.4643              3103.0687              3103.1401
 Red. masses --      1.0619                 1.0895                 1.1018
 Frc consts  --      5.9139                 6.1810                 6.2510
 IR Inten    --     32.7945                 6.8932                14.8412

                     88                     89                     90
                      A                      A                      A
 Frequencies --   3111.3078              3117.0804              3123.4475
 Red. masses --      1.1003                 1.1029                 1.1008
 Frc consts  --      6.2755                 6.3136                 6.3273
 IR Inten    --     13.1436                43.7581                30.9663

                     91                     92                     93
                      A                      A                      A
 Frequencies --   3131.0817              3182.0110              3195.2119
 Red. masses --      1.1023                 1.0874                 1.0892
 Frc consts  --      6.3670                 6.4872                 6.5518
 IR Inten    --     28.3314                 6.0459                10.7562

                     94                     95                     96
                      A                      A                      A
 Frequencies --   3211.7973              3255.4643              3256.4853
 Red. masses --      1.0961                 1.0896                 1.0963
 Frc consts  --      6.6619                 6.8034                 6.8501
 IR Inten    --     28.1564                12.1579                 3.2453

 - Thermochemistry -
 -------------------
 Temperature   298.150 Kelvin.  Pressure   1.00000 Atm.
 Atom     1 has atomic number  6 and mass  12.00000

 Molecular mass:   240.12626 amu.
 Principal axes and moments of inertia in atomic units:
                           1         2         3
     Eigenvalues --  3379.455864561.106817274.21993
           X            0.99977  -0.02150   0.00231
           Y            0.02151   0.99976  -0.00449
           Z           -0.00222   0.00454   0.99999
 This molecule is an asymmetric top.
 Rotational symmetry number  1.
 Warning -- assumption of classical behavior for rotation
           may cause significant error
 Rotational temperatures (Kelvin)      0.02563     0.01899     0.01191
 Rotational constants (GHZ):           0.53403     0.39568     0.24810
 Zero-point vibrational energy     745110.5 (Joules/Mol)
                                  178.08568 (Kcal/Mol)
 Warning -- explicit consideration of  23 degrees of freedom as
           vibrations may cause significant error
 Vibrational temperatures:     48.58    75.01    84.29    98.34   164.64
          (Kelvin)            209.10   280.71   321.04   324.89   367.80
                              398.88   427.00   453.65   470.97   526.52
                              589.27   605.42   636.58   643.12   656.08
                              726.99   793.75   831.22   925.88   952.54
                              974.18  1014.77  1042.86  1060.46  1116.09
                             1143.24  1178.24  1197.31  1237.36  1255.39
                             1321.56  1341.71  1363.02  1378.55  1385.17
                             1414.17  1415.72  1438.29  1517.99  1563.81
                             1607.90  1623.99  1664.23  1679.16  1728.92
                             1741.41  1745.27  1759.93  1792.11  1799.39
                             1851.06  1911.76  1919.87  1941.29  1968.39
                             1986.94  2005.69  2035.85  2037.43  2062.33
                             2071.88  2092.14  2098.64  2141.38  2181.31
                             2188.83  2200.78  2202.34  2209.21  2216.55
                             2235.01  2266.94  2352.97  2395.52  2573.65
                             4336.45  4375.57  4381.80  4397.72  4423.47
                             4464.62  4464.73  4476.48  4484.78  4493.94
                             4504.93  4578.20  4597.20  4621.06  4683.89
                             4685.36

 Zero-point correction=                           0.283798 (Hartree/Particle)
 Thermal correction to Energy=                    0.299227
 Thermal correction to Enthalpy=                  0.300171
 Thermal correction to Gibbs Free Energy=         0.240526
 Sum of electronic and zero-point Energies=           -765.766360
 Sum of electronic and thermal Energies=              -765.750931
 Sum of electronic and thermal Enthalpies=            -765.749987
 Sum of electronic and thermal Free Energies=         -765.809632

                     E (Thermal)             CV                S
                      KCal/Mol        Cal/Mol-Kelvin    Cal/Mol-Kelvin
 Total                  187.768             60.575            125.534
 Electronic               0.000              0.000              0.000
 Translational            0.889              2.981             42.329
 Rotational               0.889              2.981             33.083
 Vibrational            185.990             54.614             50.122
 Vibration     1          0.594              1.983              5.595
 Vibration     2          0.596              1.977              4.735
 Vibration     3          0.596              1.974              4.504
 Vibration     4          0.598              1.969              4.200
 Vibration     5          0.607              1.937              3.192
 Vibration     6          0.617              1.908              2.732
 Vibration     7          0.636              1.847              2.179
 Vibration     8          0.649              1.806              1.934
 Vibration     9          0.650              1.802              1.912
 Vibration    10          0.666              1.753              1.691
 Vibration    11          0.678              1.716              1.551
 Vibration    12          0.690              1.680              1.435
 Vibration    13          0.703              1.644              1.334
 Vibration    14          0.711              1.621              1.273
 Vibration    15          0.739              1.542              1.097
 Vibration    16          0.774              1.449              0.928
 Vibration    17          0.783              1.425              0.889
 Vibration    18          0.802              1.378              0.819
 Vibration    19          0.806              1.368              0.805
 Vibration    20          0.814              1.348              0.778
 Vibration    21          0.861              1.238              0.645
 Vibration    22          0.907              1.136              0.541
 Vibration    23          0.934              1.079              0.490

 Optimization completed.
    -- Stationary point found.
 Normal termination of Gaussian 16 at Fri Dec 11 19:46:29 2020.

 ----------------------------------------------------------------------
 # B3LYP/6-311++G(d,p) empiricaldispersion=gd3bj scf=xqc pop=npa geom=c
 heck
 ----------------------------------------------------------------------

 --------------------------------------
 CID_69320810_JID_8192_Energie_neutraal
 --------------------------------------
 Structure from the checkpoint file:  "JID_8192.chk"
 Charge =  0 Multiplicity = 1

 SCF Done:  E(RB3LYP) =  -766.248927560     A.U. after   16 cycles
 Normal termination of Gaussian 16 at Fri Dec 11 19:53:47 2020.

 ----------------------------------------------------------------------
 # B3LYP/6-311++G(d,p) empiricaldispersion=gd3bj scf=xqc pop=npa geom=c
 heck
 ----------------------------------------------------------------------

 ------------------------------------
 CID_69320810_JID_8192_Energie_kation
 ------------------------------------
 Structure from the checkpoint file:  "JID_8192.chk"
 Charge =  1 Multiplicity = 2

 SCF Done:  E(UB3LYP) =  -765.960669162     A.U. after   25 cycles
 Normal termination of Gaussian 16 at Fri Dec 11 20:10:12 2020.
 Gaussian 16:  ES64L-G16RevA.03 25-Dec-2016

 ----------------------------------------------------------------------
 # B3LYP/6-311++G(d,p) empiricaldispersion=gd3bj scf=xqc pop=npa geom=c
 heck
 ----------------------------------------------------------------------

 -----------------------------------
 CID_69320810_JID_8192_Energie_anion
 -----------------------------------
 Structure from the checkpoint file:  "JID_8192.chk"
 Charge = -1 Multiplicity = 2

                         Standard orientation:
 ---------------------------------------------------------------------
 Center     Atomic      Atomic             Coordinates (Angstroms)
 Number     Number       Type             X           Y           Z
 ---------------------------------------------------------------------
      1          6           0        3.181632   -0.623361    1.517885
      2          6           0        2.862436    0.460242    0.483392
      3          6           0        4.076417    1.351710    0.201146
      4          6           0        2.367146   -0.157279   -0.835032
      5          7           0        1.151331   -0.949566   -0.680894
      6          6           0        1.139920   -2.330778   -0.701086
      7          7           0       -0.028860   -2.843646   -0.412853
      8          6           0       -0.833094   -1.751810   -0.170302
      9          6           0       -0.130188   -0.556786   -0.333866
     10          6           0       -0.718820    0.772560   -0.219626
     11          6           0       -0.078262    1.976405   -0.561940
     12          6           0       -0.736262    3.197521   -0.451577
     13          6           0       -2.055430    3.241205   -0.003487
     14          6           0       -2.705053    2.053603    0.328412
     15          6           0       -2.062713    0.818929    0.229221
     16          6           0       -2.809875   -0.433094    0.633583
     17          6           0       -2.246060   -1.787528    0.195008
     18          8           0       -2.936472   -2.792860    0.221374
     19          1           0        3.988859   -1.277684    1.164010
     20          1           0        2.308320   -1.247882    1.730660
     21          1           0        3.508800   -0.170990    2.459924
     22          1           0        2.056602    1.089016    0.882203
     23          1           0        4.905909    0.766784   -0.216210
     24          1           0        3.834851    2.148629   -0.512356
     25          1           0        4.433609    1.823331    1.122296
     26          1           0        2.206443    0.609694   -1.597874
     27          1           0        3.131037   -0.835910   -1.229975
     28          1           0        2.038715   -2.886858   -0.934447
     29          1           0        0.937887    1.970737   -0.931516
     30          1           0       -0.217427    4.111939   -0.723755
     31          1           0       -2.577140    4.189823    0.081132
     32          1           0       -3.736509    2.080142    0.671141
     33          1           0       -2.840038   -0.480963    1.734085
     34          1           0       -3.856196   -0.383682    0.315543
 ---------------------------------------------------------------------

 SCF Done:  E(UB3LYP) =  -766.259099437     A.U. after   33 cycles
 SCF Done:  E(UB3LYP) =  -766.259099437     a.u. after    1 cycles

 The electronic state is 2-A.
 Alpha  occ. eigenvalues --  -18.93721 -14.24270 -14.16817 -10.11546 -10.10094
 Alpha  occ. eigenvalues --  -10.08905 -10.08757 -10.07827 -10.07140 -10.06941
 Alpha  occ. eigenvalues --  -10.05181 -10.04862 -10.04831 -10.04572 -10.04449
 Alpha  occ. eigenvalues --  -10.04142 -10.04014 -10.03837  -0.89534  -0.87408
 Alpha  occ. eigenvalues --   -0.77274  -0.73719  -0.71061  -0.66876  -0.64140
 Alpha  occ. eigenvalues --   -0.60848  -0.60225  -0.59269  -0.57700  -0.50646
 Alpha  occ. eigenvalues --   -0.49653  -0.48028  -0.46955  -0.44311  -0.41820
 Alpha  occ. eigenvalues --   -0.38940  -0.38275  -0.36406  -0.35832  -0.34839
 Alpha  occ. eigenvalues --   -0.33620  -0.32147  -0.31966  -0.30588  -0.30072
 Alpha  occ. eigenvalues --   -0.29932  -0.29752  -0.29532  -0.28712  -0.26765
 Alpha  occ. eigenvalues --   -0.26035  -0.25628  -0.25174  -0.24905  -0.24000
 Alpha  occ. eigenvalues --   -0.22612  -0.21438  -0.20873  -0.16860  -0.14871
 Alpha  occ. eigenvalues --   -0.14448  -0.12795  -0.09629  -0.08553   0.04051
 Alpha virt. eigenvalues --    0.05819   0.07728   0.08176   0.08525   0.09453
 Alpha virt. eigenvalues --    0.09893   0.10292   0.10680   0.10965   0.11697
 Alpha virt. eigenvalues --    0.11834   0.12267   0.12661   0.13291   0.13900

  Beta  occ. eigenvalues --  -18.93440 -14.24113 -14.16802 -10.11550 -10.10118
  Beta  occ. eigenvalues --  -10.08747 -10.08741 -10.07809 -10.07138 -10.06734
  Beta  occ. eigenvalues --  -10.05065 -10.04877 -10.04684 -10.04500 -10.04465
  Beta  occ. eigenvalues --  -10.04178 -10.03902 -10.03582  -0.89325  -0.86909
  Beta  occ. eigenvalues --   -0.77132  -0.73416  -0.70997  -0.66528  -0.63850
  Beta  occ. eigenvalues --   -0.60708  -0.60192  -0.58981  -0.57531  -0.50439
  Beta  occ. eigenvalues --   -0.49317  -0.47837  -0.46754  -0.44152  -0.41706
  Beta  occ. eigenvalues --   -0.38758  -0.38146  -0.36277  -0.35641  -0.34728
  Beta  occ. eigenvalues --   -0.33427  -0.31920  -0.31507  -0.30546  -0.29952
  Beta  occ. eigenvalues --   -0.29825  -0.29578  -0.29387  -0.28553  -0.26482
  Beta  occ. eigenvalues --   -0.25882  -0.25534  -0.25090  -0.24590  -0.23442
  Beta  occ. eigenvalues --   -0.22377  -0.21312  -0.19816  -0.15913  -0.14801
  Beta  occ. eigenvalues --   -0.13471  -0.12175  -0.09253  -0.07458
  Beta virt. eigenvalues --    0.05915   0.07725   0.08114   0.08427   0.09108
  Beta virt. eigenvalues --    0.09440   0.10048   0.10402   0.10690   0.10957
  Beta virt. eigenvalues --    0.11820   0.12180   0.12506   0.12822   0.13230

 Mulliken charges and spin densities:
               1          2
     1  C   -0.584839   0.004735
     2  C    0.161252   0.382904
     3  C   -0.158798  -0.536282
     4  C   -0.545835  -0.239498
     5  N    0.224597   0.066273
     6  C    0.361420  -0.011771
     7  N   -0.093174   0.008509
     8  C   -0.180589   0.072421
     9  C    0.089872   0.121255
    10  C    0.276651   0.012711
    11  C   -0.251726   0.072062
    12  C   -0.254987  -0.003702
    13  C   -0.391708   0.217599
    14  C   -0.263463  -0.030719
    15  C    0.401570   0.148865
    16  C   -0.395090  -0.107006
    17  C   -0.656912   0.132515
    18  O   -0.374418   0.101692
    19  H    0.122784   0.007167
    20  H    0.194403  -0.001517
    21  H    0.114932   0.021636
    22  H    0.198900  -0.015709
    23  H   -0.033478   0.159877
    24  H   -0.018380   0.152391
    25  H    0.050435   0.084470
    26  H    0.114239   0.081322
    27  H    0.114217   0.033849
    28  H    0.115932   0.028134
    29  H    0.063221  -0.068074
    30  H    0.086517   0.046248
    31  H    0.108025  -0.017994
    32  H    0.119732   0.002538
    33  H    0.140063   0.069677
    34  H    0.144635   0.003421
 Sum of Mulliken charges =  -1.00000   1.00000

 Dipole moment (field-independent basis, Debye):
    X=              6.2613    Y=              4.8306    Z=              0.3669  Tot=              7.9166
 Quadrupole moment (field-independent basis, Debye-Ang):
   XX=           -144.9632   YY=           -158.1697   ZZ=           -117.8610
   XY=            -17.6927   XZ=             -0.5177   YZ=              0.4515

 Summary of Natural Population Analysis:

                                       Natural Population
                Natural  -----------------------------------------------
    Atom  No    Charge         Core      Valence    Rydberg      Total
 -----------------------------------------------------------------------
      C    1   -0.28646      0.99965     2.28147    0.00533     3.28646
      C    2   -0.12612      0.99961     2.11805    0.00846     3.12612
      C    3   -0.28312      0.99965     2.27864    0.00482     3.28312
      C    4   -0.08066      0.99960     2.06842    0.01264     3.08066
      N    5   -0.20724      0.99965     2.69289    0.01470     3.70724
      C    6    0.09265      0.99965     1.89130    0.01640     2.90735
      N    7   -0.23245      0.99970     2.72218    0.01056     3.73245
      C    8    0.00927      0.99948     1.97246    0.01880     2.99073
      C    9    0.17445      0.99946     1.81144    0.01466     2.82555
      C   10   -0.04710      0.99950     2.03121    0.01639     3.04710
      C   11   -0.08311      0.99954     2.07364    0.00992     3.08311
      C   12   -0.12327      0.99957     2.11492    0.00877     3.12327
      C   13   -0.06087      0.99957     2.05173    0.00957     3.06087
      C   14   -0.11989      0.99953     2.11125    0.00911     3.11989
      C   15    0.03022      0.99952     1.96052    0.00974     2.96978
      C   16   -0.21647      0.99960     2.21247    0.00440     3.21647
      C   17    0.27933      0.99962     1.69792    0.02313     2.72067
      O   18   -0.27755      0.99988     3.26954    0.00812     4.27755
      H   19    0.09218      0.00000     0.40685    0.00097     0.40782
      H   20    0.10974      0.00000     0.38947    0.00079     0.39026
      H   21    0.09683      0.00000     0.40245    0.00072     0.40317
      H   22    0.10644      0.00000     0.39143    0.00213     0.39356
      H   23    0.09432      0.00000     0.40463    0.00104     0.40568
      H   24    0.09995      0.00000     0.39907    0.00098     0.40005
      H   25    0.09895      0.00000     0.40026    0.00079     0.40105
      H   26    0.10005      0.00000     0.39883    0.00111     0.39995
      H   27    0.09547      0.00000     0.40351    0.00102     0.40453
      H   28    0.08342      0.00000     0.41468    0.00189     0.41658
      H   29    0.08948      0.00000     0.40855    0.00196     0.41052
      H   30    0.09172      0.00000     0.40702    0.00127     0.40828
      H   31    0.08837      0.00000     0.41057    0.00106     0.41163
      H   32    0.09156      0.00000     0.40666    0.00179     0.40844
      H   33    0.11348      0.00000     0.38410    0.00242     0.38652
      H   34    0.10884      0.00000     0.39042    0.00074     0.39116
 =======================================================================
   * Total *    0.00243     17.99278    45.77858    0.22621    63.99757

 Normal termination of Gaussian 16 at Fri Dec 11 20:31:30 2020.
