 Gaussian 16, Revision A.03,

 -----------------------------------------------------------
 # opt freq B3LYP/6-31G(d) empiricaldispersion=gd3bj scf=xqc
 -----------------------------------------------------------

 -------------------------------
 CID_116401099_JID_8331_neutraal
 -------------------------------
 Symbolic Z-matrix:
 Charge =  0 Multiplicity = 1

 SCF Done:  E(RB3LYP) =  -1092.60856910     A.U. after   14 cycles
 SCF Done:  E(RB3LYP) =  -1092.61441537     A.U. after   12 cycles
 SCF Done:  E(RB3LYP) =  -1092.61494032     A.U. after   11 cycles
 SCF Done:  E(RB3LYP) =  -1092.61550989     A.U. after   11 cycles
 SCF Done:  E(RB3LYP) =  -1092.61574459     A.U. after   11 cycles
 SCF Done:  E(RB3LYP) =  -1092.61579367     A.U. after   10 cycles
 SCF Done:  E(RB3LYP) =  -1092.61579877     A.U. after    9 cycles
 SCF Done:  E(RB3LYP) =  -1092.61580100     A.U. after    8 cycles
 SCF Done:  E(RB3LYP) =  -1092.61580090     A.U. after    7 cycles
 Optimization completed.
    -- Stationary point found.
 Normal termination of Gaussian 16 at Fri Dec 11 20:01:15 2020.

 --------------------------------------------------------------------
 #N Geom=AllCheck Guess=TCheck SCRF=Check GenChk RB3LYP/6-31G(d) Freq
 --------------------------------------------------------------------

 Structure from the checkpoint file:  "JID_8331.chk"
 -------------------------------
 CID_116401099_JID_8331_neutraal
 -------------------------------
 Charge =  0 Multiplicity = 1

 SCF Done:  E(RB3LYP) =  -1092.61580090     A.U. after    1 cycles

  Exact polarizability: 223.791   6.334 181.854 -19.624   4.428 142.081
 Approx polarizability: 285.601  14.992 307.773 -32.736  12.797 223.657

                      1                      2                      3
                      A                      A                      A
 Frequencies --     23.4537                37.8801                57.8478
 Red. masses --      3.9247                 5.1048                 3.9734
 Frc consts  --      0.0013                 0.0043                 0.0078
 IR Inten    --      0.2083                 0.5328                 0.2020

                      4                      5                      6
                      A                      A                      A
 Frequencies --     88.6920               114.4113               133.2586
 Red. masses --      3.3003                 2.7380                 3.2974
 Frc consts  --      0.0153                 0.0211                 0.0345
 IR Inten    --      0.0074                 0.1048                 0.3627

                      7                      8                      9
                      A                      A                      A
 Frequencies --    156.4544               174.1226               208.2269
 Red. masses --      2.9530                 2.5630                 4.1670
 Frc consts  --      0.0426                 0.0458                 0.1065
 IR Inten    --      4.6968                 0.2827                 0.6162

                     10                     11                     12
                      A                      A                      A
 Frequencies --    247.2541               252.7337               260.5216
 Red. masses --      3.2875                 2.7520                 1.6234
 Frc consts  --      0.1184                 0.1036                 0.0649
 IR Inten    --      3.8459                 1.5881                 0.7413

                     13                     14                     15
                      A                      A                      A
 Frequencies --    275.4077               303.5448               336.0515
 Red. masses --      1.6959                 3.5694                 3.1866
 Frc consts  --      0.0758                 0.1938                 0.2120
 IR Inten    --      3.5166                 3.2032                 1.3186

                     16                     17                     18
                      A                      A                      A
 Frequencies --    366.6097               386.7607               416.8641
 Red. masses --      2.7371                 2.6361                 3.1429
 Frc consts  --      0.2167                 0.2323                 0.3218
 IR Inten    --      0.6239                 0.8331                 0.4962

                     19                     20                     21
                      A                      A                      A
 Frequencies --    430.4652               439.7042               459.6237
 Red. masses --      2.2677                 2.6107                 2.5005
 Frc consts  --      0.2476                 0.2974                 0.3112
 IR Inten    --      8.8080                 2.2530                 4.1562

                     22                     23                     24
                      A                      A                      A
 Frequencies --    500.9992               539.2491               571.3982
 Red. masses --      2.9550                 2.8488                 2.1602
 Frc consts  --      0.4370                 0.4881                 0.4155
 IR Inten    --     10.7614                22.2773               120.5264

                     25                     26                     27
                      A                      A                      A
 Frequencies --    580.1601               613.4560               669.3459
 Red. masses --      4.6766                 3.9509                 4.6260
 Frc consts  --      0.9274                 0.8760                 1.2211
 IR Inten    --      0.3396                12.8359                 0.7774

                     28                     29                     30
                      A                      A                      A
 Frequencies --    691.0102               701.3615               725.9971
 Red. masses --      4.5472                 2.7268                 3.6387
 Frc consts  --      1.2793                 0.7903                 1.1300
 IR Inten    --      3.7438                15.7804                12.8144

                     31                     32                     33
                      A                      A                      A
 Frequencies --    756.0631               784.7121               799.5046
 Red. masses --      2.8609                 2.3306                 2.4234
 Frc consts  --      0.9635                 0.8455                 0.9127
 IR Inten    --     19.5261                22.5159                 1.0853

                     34                     35                     36
                      A                      A                      A
 Frequencies --    805.7112               807.3555               837.4726
 Red. masses --      1.3405                 1.9747                 1.9177
 Frc consts  --      0.5127                 0.7584                 0.7924
 IR Inten    --      4.4447                30.4805                 3.9164

                     37                     38                     39
                      A                      A                      A
 Frequencies --    846.9828               871.7642               897.9140
 Red. masses --      2.0614                 1.6326                 2.2174
 Frc consts  --      0.8713                 0.7310                 1.0533
 IR Inten    --     15.0866                23.5638                11.2650

                     40                     41                     42
                      A                      A                      A
 Frequencies --    932.0589               935.5743               948.4502
 Red. masses --      2.2138                 1.4486                 2.2319
 Frc consts  --      1.1331                 0.7470                 1.1829
 IR Inten    --      6.8131                 3.0421                 5.1936

                     43                     44                     45
                      A                      A                      A
 Frequencies --    956.2648               972.6510              1003.6051
 Red. masses --      2.0412                 2.5106                 2.0109
 Frc consts  --      1.0997                 1.3994                 1.1933
 IR Inten    --      7.4616                 1.8711                19.7545

                     46                     47                     48
                      A                      A                      A
 Frequencies --   1011.4467              1023.0024              1051.8991
 Red. masses --      2.0262                 1.8230                 1.8457
 Frc consts  --      1.2213                 1.1240                 1.2033
 IR Inten    --      4.7620                 8.6074                 2.5892

                     49                     50                     51
                      A                      A                      A
 Frequencies --   1062.4481              1084.2836              1092.1186
 Red. masses --      2.4916                 1.4990                 1.7782
 Frc consts  --      1.6571                 1.0384                 1.2496
 IR Inten    --     12.4588                10.4141                17.8305

                     52                     53                     54
                      A                      A                      A
 Frequencies --   1118.5689              1125.4536              1136.9718
 Red. masses --      2.4137                 2.0227                 2.3578
 Frc consts  --      1.7793                 1.5095                 1.7958
 IR Inten    --     14.4825                14.8652                 2.8426

                     55                     56                     57
                      A                      A                      A
 Frequencies --   1159.2493              1170.0909              1176.7474
 Red. masses --      1.9702                 2.1224                 1.8384
 Frc consts  --      1.5600                 1.7121                 1.4999
 IR Inten    --     10.6192                 6.7055                10.8029

                     58                     59                     60
                      A                      A                      A
 Frequencies --   1200.1035              1209.8223              1226.5033
 Red. masses --      1.2218                 1.4044                 1.2948
 Frc consts  --      1.0367                 1.2111                 1.1476
 IR Inten    --     11.2674                 2.1464                 1.9956

                     61                     62                     63
                      A                      A                      A
 Frequencies --   1232.7750              1238.0946              1288.1191
 Red. masses --      1.4318                 1.1401                 1.2816
 Frc consts  --      1.2820                 1.0296                 1.2529
 IR Inten    --      0.2745                 1.1119                 4.4999

                     64                     65                     66
                      A                      A                      A
 Frequencies --   1300.1631              1303.2622              1319.0680
 Red. masses --      1.8588                 1.8600                 1.4870
 Frc consts  --      1.8513                 1.8614                 1.5244
 IR Inten    --     26.2024                67.3746                 4.2615

                     67                     68                     69
                      A                      A                      A
 Frequencies --   1327.6451              1335.0975              1344.7722
 Red. masses --      1.3825                 1.4482                 1.3369
 Frc consts  --      1.4357                 1.5209                 1.4245
 IR Inten    --      4.7573                12.8353                 4.8420

                     70                     71                     72
                      A                      A                      A
 Frequencies --   1355.4698              1368.0316              1376.7493
 Red. masses --      1.3938                 1.7972                 1.2436
 Frc consts  --      1.5088                 1.9817                 1.3887
 IR Inten    --     17.9780                 9.1332                22.4031

                     73                     74                     75
                      A                      A                      A
 Frequencies --   1387.1627              1389.2328              1400.0446
 Red. masses --      2.2716                 1.2352                 1.2985
 Frc consts  --      2.5754                 1.4045                 1.4996
 IR Inten    --     13.9800                29.0074                 0.0745

                     76                     77                     78
                      A                      A                      A
 Frequencies --   1411.2757              1439.6510              1444.8130
 Red. masses --      1.3496                 1.2905                 1.6014
 Frc consts  --      1.5837                 1.5759                 1.9696
 IR Inten    --      0.9418                13.5437                 3.9108

                     79                     80                     81
                      A                      A                      A
 Frequencies --   1444.9445              1493.7913              1500.1071
 Red. masses --      1.6338                 1.0935                 2.0128
 Frc consts  --      2.0098                 1.4376                 2.6686
 IR Inten    --      6.7289                 3.4310                64.6513

                     82                     83                     84
                      A                      A                      A
 Frequencies --   1503.0431              1509.0672              1515.3520
 Red. masses --      1.1255                 1.0882                 1.2383
 Frc consts  --      1.4981                 1.4601                 1.6753
 IR Inten    --      6.1844                 4.3678                16.9046

                     85                     86                     87
                      A                      A                      A
 Frequencies --   1517.9871              1524.6562              1531.2980
 Red. masses --      1.1023                 1.0480                 1.1081
 Frc consts  --      1.4965                 1.4354                 1.5309
 IR Inten    --      3.0560                 6.2534                14.2445

                     88                     89                     90
                      A                      A                      A
 Frequencies --   1545.3857              1552.7317              1555.7937
 Red. masses --      1.6004                 1.0529                 1.5607
 Frc consts  --      2.2519                 1.4957                 2.2258
 IR Inten    --     12.7631                 7.6649                11.3391

                     91                     92                     93
                      A                      A                      A
 Frequencies --   1648.1585              1677.1795              2967.6101
 Red. masses --      6.5723                 6.4801                 1.0691
 Frc consts  --     10.5187                10.7396                 5.5474
 IR Inten    --      9.4025                65.6046                32.2070

                     94                     95                     96
                      A                      A                      A
 Frequencies --   2976.0007              2997.0178              3013.2814
 Red. masses --      1.0687                 1.0736                 1.0677
 Frc consts  --      5.5765                 5.6817                 5.7117
 IR Inten    --     57.2182                77.2841                31.6967

                     97                     98                     99
                      A                      A                      A
 Frequencies --   3037.2543              3045.7094              3053.6642
 Red. masses --      1.0689                 1.0612                 1.0893
 Frc consts  --      5.8095                 5.8001                 5.9846
 IR Inten    --     37.5007                26.8157                19.7466

                    100                    101                    102
                      A                      A                      A
 Frequencies --   3056.0339              3057.8621              3062.8460
 Red. masses --      1.0395                 1.0866                 1.0887
 Frc consts  --      5.7197                 5.9862                 6.0173
 IR Inten    --     30.2354                38.6104                21.8418

                    103                    104                    105
                      A                      A                      A
 Frequencies --   3070.2824              3085.7954              3091.0335
 Red. masses --      1.0928                 1.0622                 1.1053
 Frc consts  --      6.0693                 5.9590                 6.2222
 IR Inten    --     34.1942                29.0425                27.8584

                    106                    107                    108
                      A                      A                      A
 Frequencies --   3104.0754              3110.2238              3116.1862
 Red. masses --      1.0911                 1.0966                 1.1006
 Frc consts  --      6.1944                 6.2499                 6.2971
 IR Inten    --     40.1755                42.9849                48.8173

                    109                    110                    111
                      A                      A                      A
 Frequencies --   3139.6001              3151.2432              3178.1651
 Red. masses --      1.1055                 1.1016                 1.0870
 Frc consts  --      6.4203                 6.4451                 6.4690
 IR Inten    --     10.1403                17.8212                14.0610

                    112                    113                    114
                      A                      A                      A
 Frequencies --   3179.5876              3195.6331              3570.8468
 Red. masses --      1.0897                 1.0941                 1.0762
 Frc consts  --      6.4909                 6.5828                 8.0850
 IR Inten    --     15.5295                21.5503                 5.2940

 - Thermochemistry -
 -------------------
 Temperature   298.150 Kelvin.  Pressure   1.00000 Atm.
 Atom     1 has atomic number  6 and mass  12.00000

 Molecular mass:   262.15037 amu.
 Principal axes and moments of inertia in atomic units:
                           1         2         3
     Eigenvalues --  2216.20691********************
           X            0.99985   0.00053  -0.01719
           Y            0.00001   0.99950   0.03154
           Z            0.01720  -0.03154   0.99935
 This molecule is an asymmetric top.
 Rotational symmetry number  1.
 Warning -- assumption of classical behavior for rotation
           may cause significant error
 Rotational temperatures (Kelvin)      0.03908     0.00864     0.00837
 Rotational constants (GHZ):           0.81434     0.17993     0.17446
 Zero-point vibrational energy     925960.7 (Joules/Mol)
                                  221.30991 (Kcal/Mol)
 Warning -- explicit consideration of  26 degrees of freedom as
           vibrations may cause significant error
 Vibrational temperatures:     33.74    54.50    83.23   127.61   164.61
          (Kelvin)            191.73   225.10   250.52   299.59   355.74
                              363.63   374.83   396.25   436.73   483.50
                              527.47   556.46   599.77   619.34   632.64
                              661.30   720.83   775.86   822.11   834.72
                              882.63   963.04   994.21  1009.10  1044.55
                             1087.81  1129.03  1150.31  1159.24  1161.60
                             1204.94  1218.62  1254.27  1291.90  1341.02
                             1346.08  1364.61  1375.85  1399.43  1443.96
                             1455.25  1471.87  1513.45  1528.63  1560.04
                             1571.32  1609.37  1619.28  1635.85  1667.90
                             1683.50  1693.08  1726.68  1740.66  1764.66
                             1773.69  1781.34  1853.32  1870.64  1875.10
                             1897.84  1910.19  1920.91  1934.83  1950.22
                             1968.29  1980.84  1995.82  1998.80  2014.35
                             2030.51  2071.34  2078.76  2078.95  2149.23
                             2158.32  2162.54  2171.21  2180.25  2184.04
                             2193.64  2203.20  2223.47  2234.03  2238.44
                             2371.33  2413.09  4269.73  4281.80  4312.04
                             4335.44  4369.93  4382.10  4393.54  4396.95
                             4399.58  4406.75  4417.45  4439.77  4447.31
                             4466.07  4474.92  4483.50  4517.18  4533.94
                             4572.67  4574.72  4597.80  5137.65

 Zero-point correction=                           0.352680 (Hartree/Particle)
 Thermal correction to Energy=                    0.369337
 Thermal correction to Enthalpy=                  0.370281
 Thermal correction to Gibbs Free Energy=         0.307608
 Sum of electronic and zero-point Energies=          -1092.263121
 Sum of electronic and thermal Energies=             -1092.246464
 Sum of electronic and thermal Enthalpies=           -1092.245520
 Sum of electronic and thermal Free Energies=        -1092.308193

                     E (Thermal)             CV                S
                      KCal/Mol        Cal/Mol-Kelvin    Cal/Mol-Kelvin
 Total                  231.762             66.434            131.907
 Electronic               0.000              0.000              0.000
 Translational            0.889              2.981             42.591
 Rotational               0.889              2.981             33.797
 Vibrational            229.985             60.472             55.520
 Vibration     1          0.593              1.985              6.318
 Vibration     2          0.594              1.982              5.367
 Vibration     3          0.596              1.974              4.529
 Vibration     4          0.602              1.957              3.689
 Vibration     5          0.607              1.937              3.193
 Vibration     6          0.613              1.920              2.898
 Vibration     7          0.620              1.895              2.592
 Vibration     8          0.627              1.874              2.391
 Vibration     9          0.642              1.828              2.059
 Vibration    10          0.661              1.767              1.750
 Vibration    11          0.664              1.758              1.711
 Vibration    12          0.669              1.745              1.658
 Vibration    13          0.677              1.719              1.562
 Vibration    14          0.695              1.667              1.397
 Vibration    15          0.717              1.603              1.231
 Vibration    16          0.740              1.541              1.094
 Vibration    17          0.755              1.498              1.013
 Vibration    18          0.780              1.434              0.903
 Vibration    19          0.792              1.404              0.857
 Vibration    20          0.800              1.384              0.828
 Vibration    21          0.818              1.340              0.767
 Vibration    22          0.856              1.248              0.656
 Vibration    23          0.894              1.163              0.567
 Vibration    24          0.928              1.093              0.502
 Vibration    25          0.937              1.074              0.485
 Vibration    26          0.973              1.003              0.427

 Optimization completed.
    -- Stationary point found.
 Normal termination of Gaussian 16 at Fri Dec 11 20:18:43 2020.

 ----------------------------------------------------------------------
 # B3LYP/6-311++G(d,p) empiricaldispersion=gd3bj scf=xqc pop=npa geom=c
 heck
 ----------------------------------------------------------------------

 ---------------------------------------
 CID_116401099_JID_8331_Energie_neutraal
 ---------------------------------------
 Structure from the checkpoint file:  "JID_8331.chk"
 Charge =  0 Multiplicity = 1

 SCF Done:  E(RB3LYP) =  -1092.82496095     A.U. after   15 cycles
 Normal termination of Gaussian 16 at Fri Dec 11 20:26:17 2020.

 ----------------------------------------------------------------------
 # B3LYP/6-311++G(d,p) empiricaldispersion=gd3bj scf=xqc pop=npa geom=c
 heck
 ----------------------------------------------------------------------

 -------------------------------------
 CID_116401099_JID_8331_Energie_kation
 -------------------------------------
 Structure from the checkpoint file:  "JID_8331.chk"
 Charge =  1 Multiplicity = 2

 SCF Done:  E(UB3LYP) =  -1092.56427389     A.U. after   32 cycles
 Normal termination of Gaussian 16 at Fri Dec 11 20:48:04 2020.
 Gaussian 16:  ES64L-G16RevA.03 25-Dec-2016

 ----------------------------------------------------------------------
 # B3LYP/6-311++G(d,p) empiricaldispersion=gd3bj scf=xqc pop=npa geom=c
 heck
 ----------------------------------------------------------------------

 ------------------------------------
 CID_116401099_JID_8331_Energie_anion
 ------------------------------------
 Structure from the checkpoint file:  "JID_8331.chk"
 Charge = -1 Multiplicity = 2

                         Standard orientation:
 ---------------------------------------------------------------------
 Center     Atomic      Atomic             Coordinates (Angstroms)
 Number     Number       Type             X           Y           Z
 ---------------------------------------------------------------------
      1          6           0        4.470057   -0.484467   -1.333972
      2          6           0        3.873342   -1.621298   -0.502106
      3          6           0        2.752149   -1.254811    0.486772
      4          6           0        1.418032   -0.854709   -0.158817
      5          7           0        1.414068    0.480724   -0.753650
      6          6           0        1.511489    1.529923    0.258626
      7          6           0        2.881011    1.532205    0.927434
      8         16           0        3.250583   -0.043662    1.789752
      9          6           0        0.291349    0.684311   -1.682856
     10          6           0       -1.098503    0.631411   -1.070758
     11          6           0       -1.771306   -0.596042   -0.961734
     12          6           0       -3.012942   -0.634515   -0.332309
     13          6           0       -3.598004    0.533071    0.187265
     14          6           0       -4.949446    0.169370    0.763528
     15          6           0       -4.840707   -1.369028    0.894604
     16          7           0       -3.863252   -1.732842   -0.150044
     17          6           0       -2.944614    1.748020    0.063889
     18          6           0       -1.692006    1.793488   -0.562947
     19          1           0        3.692929    0.059883   -1.875716
     20          1           0        5.194149   -0.882225   -2.054313
     21          1           0        5.000796    0.225861   -0.691665
     22          1           0        3.464128   -2.389537   -1.175980
     23          1           0        4.675329   -2.107815    0.066668
     24          1           0        2.540951   -2.156741    1.074116
     25          1           0        1.208515   -1.574370   -0.960744
     26          1           0        0.616646   -0.963520    0.592956
     27          1           0        1.372330    2.495372   -0.243772
     28          1           0        0.722313    1.441113    1.025539
     29          1           0        3.657260    1.748663    0.190091
     30          1           0        2.916710    2.302123    1.704489
     31          1           0        0.444347    1.658910   -2.160888
     32          1           0        0.380580   -0.078903   -2.465146
     33          1           0       -1.325968   -1.500940   -1.367872
     34          1           0       -5.170932    0.651928    1.720238
     35          1           0       -5.752254    0.438594    0.063360
     36          1           0       -5.793135   -1.881148    0.731869
     37          1           0       -4.470810   -1.634979    1.897676
     38          1           0       -3.411175   -2.632275   -0.033462
     39          1           0       -3.393357    2.658491    0.453677
     40          1           0       -1.173808    2.743364   -0.660998
 ---------------------------------------------------------------------

 SCF Done:  E(UB3LYP) =  -1092.81331688     A.U. after   33 cycles
 SCF Done:  E(UB3LYP) =  -1092.81331688     a.u. after    1 cycles

 The electronic state is 2-A.
 Alpha  occ. eigenvalues --  -88.74351 -14.22253 -14.21603 -10.11143 -10.10962
 Alpha  occ. eigenvalues --  -10.10889 -10.10734 -10.10613 -10.10538 -10.10161
 Alpha  occ. eigenvalues --  -10.08720 -10.08228 -10.08031 -10.07978 -10.07797
 Alpha  occ. eigenvalues --  -10.07149 -10.07060 -10.06510  -7.82984  -5.79364
 Alpha  occ. eigenvalues --   -5.79022  -5.78354  -0.85106  -0.84157  -0.75038
 Alpha  occ. eigenvalues --   -0.72597  -0.69431  -0.68642  -0.65053  -0.64237
 Alpha  occ. eigenvalues --   -0.63608  -0.59399  -0.56388  -0.54117  -0.52785
 Alpha  occ. eigenvalues --   -0.50986  -0.50265  -0.47753  -0.44544  -0.42842
 Alpha  occ. eigenvalues --   -0.40005  -0.39255  -0.38384  -0.37948  -0.37082
 Alpha  occ. eigenvalues --   -0.36783  -0.36345  -0.34111  -0.33580  -0.33530
 Alpha  occ. eigenvalues --   -0.31689  -0.31433  -0.30172  -0.29938  -0.29364
 Alpha  occ. eigenvalues --   -0.28962  -0.28702  -0.27251  -0.26775  -0.26397
 Alpha  occ. eigenvalues --   -0.26000  -0.25616  -0.24735  -0.24303  -0.23081
 Alpha  occ. eigenvalues --   -0.20646  -0.20075  -0.15325  -0.13742  -0.12587
 Alpha  occ. eigenvalues --   -0.10639   0.04031
 Alpha virt. eigenvalues --    0.05810   0.06090   0.06925   0.07315   0.07391
 Alpha virt. eigenvalues --    0.07942   0.08458   0.09029   0.09040   0.09345
 Alpha virt. eigenvalues --    0.09602   0.10181   0.10473   0.10848   0.11161

  Beta  occ. eigenvalues --  -88.74350 -14.22221 -14.21603 -10.11138 -10.10960
  Beta  occ. eigenvalues --  -10.10860 -10.10726 -10.10601 -10.10527 -10.10144
  Beta  occ. eigenvalues --  -10.08708 -10.08223 -10.08026 -10.07962 -10.07792
  Beta  occ. eigenvalues --  -10.07131 -10.07053 -10.06500  -7.82983  -5.79362
  Beta  occ. eigenvalues --   -5.79021  -5.78353  -0.85072  -0.84145  -0.75016
  Beta  occ. eigenvalues --   -0.72577  -0.69408  -0.68614  -0.65024  -0.64213
  Beta  occ. eigenvalues --   -0.63577  -0.59370  -0.56358  -0.54087  -0.52748
  Beta  occ. eigenvalues --   -0.50924  -0.50233  -0.47724  -0.44512  -0.42790
  Beta  occ. eigenvalues --   -0.39972  -0.39222  -0.38362  -0.37917  -0.37053
  Beta  occ. eigenvalues --   -0.36762  -0.36317  -0.34081  -0.33547  -0.33501
  Beta  occ. eigenvalues --   -0.31666  -0.31404  -0.30144  -0.29914  -0.29341
  Beta  occ. eigenvalues --   -0.28936  -0.28663  -0.27231  -0.26743  -0.26370
  Beta  occ. eigenvalues --   -0.25977  -0.25592  -0.24715  -0.24277  -0.23054
  Beta  occ. eigenvalues --   -0.20629  -0.20047  -0.15294  -0.13733  -0.12578
  Beta  occ. eigenvalues --   -0.10600
  Beta virt. eigenvalues --    0.05909   0.06533   0.06696   0.07150   0.07673
  Beta virt. eigenvalues --    0.07843   0.08052   0.08817   0.09439   0.09454
  Beta virt. eigenvalues --    0.09570   0.09704   0.10251   0.10575   0.11020

 Mulliken charges and spin densities:
               1          2
     1  C   -0.240671  -0.352130
     2  C   -0.131629  -0.381377
     3  C    0.829698  -0.059310
     4  C   -0.649133  -0.344529
     5  N    0.240194   0.012538
     6  C   -0.321113   0.115571
     7  C   -0.015614  -0.656729
     8  S   -0.173462  -0.080916
     9  C   -0.026912  -0.786098
    10  C    0.764372  -0.187868
    11  C   -1.199820   0.570622
    12  C   -0.701788  -0.048845
    13  C    2.090585  -0.828526
    14  C    0.614809  -1.201469
    15  C    0.662097  -0.938320
    16  N   -0.240669   0.235223
    17  C   -0.781512   0.444418
    18  C   -0.480774   0.425013
    19  H    0.155890   0.032765
    20  H    0.019799   0.103528
    21  H    0.074969   0.062407
    22  H   -0.207440   0.334272
    23  H    0.057671   0.092282
    24  H   -0.250283   0.536205
    25  H    0.060375   0.108858
    26  H    0.194772   0.001779
    27  H   -0.075505   0.233359
    28  H    0.206989  -0.076162
    29  H    0.122671   0.043040
    30  H    0.047908   0.190515
    31  H    0.006224   0.177877
    32  H   -0.012691   0.210089
    33  H   -0.423420   0.601798
    34  H   -0.029744   0.179803
    35  H    0.062727   0.089982
    36  H   -0.333718   0.517366
    37  H   -0.198914   0.352370
    38  H   -0.361405   0.618932
    39  H   -0.221278   0.382840
    40  H   -0.134255   0.268828
 Sum of Mulliken charges =  -1.00000   1.00000

 Dipole moment (field-independent basis, Debye):
    X=              3.3789    Y=              5.0911    Z=             -0.3752  Tot=              6.1218
 Quadrupole moment (field-independent basis, Debye-Ang):
   XX=           -207.6007   YY=           -168.5435   ZZ=           -155.8805
   XY=             -8.4277   XZ=              1.1901   YZ=              0.5222

 Summary of Natural Population Analysis:

                                       Natural Population
                Natural  -----------------------------------------------
    Atom  No    Charge         Core      Valence    Rydberg      Total
 -----------------------------------------------------------------------
      C    1   -0.29164      0.99966     2.28680    0.00519     3.29164
      C    2   -0.19184      0.99960     2.18232    0.00992     3.19184
      C    3   -0.16570      0.99954     2.15090    0.01525     3.16570
      C    4   -0.09316      0.99956     2.07951    0.01409     3.09316
      N    5   -0.28533      0.99971     2.77283    0.01278     3.78533
      C    6   -0.09288      0.99959     2.08051    0.01278     3.09288
      C    7   -0.25009      0.99958     2.24165    0.00887     3.25009
      S    8    0.08313      4.99961     2.90114    0.01612     7.91687
      C    9   -0.08572      0.99958     2.07401    0.01214     3.08572
      C   10   -0.02136      0.99951     2.01287    0.00899     3.02136
      C   11   -0.12066      0.99947     2.11159    0.00961     3.12066
      C   12    0.09260      0.99944     1.89578    0.01218     2.90740
      C   13   -0.03335      0.99947     2.02492    0.00896     3.03335
      C   14   -0.19778      0.99961     2.19116    0.00702     3.19778
      C   15   -0.07927      0.99964     2.06899    0.01063     3.07927
      N   16   -0.31670      0.99969     2.80557    0.01144     3.81670
      C   17   -0.09323      0.99951     2.08511    0.00861     3.09323
      C   18   -0.11756      0.99952     2.10944    0.00860     3.11756
      H   19    0.10713      0.00000     0.39122    0.00164     0.39287
      H   20    0.09496      0.00000     0.40413    0.00091     0.40504
      H   21    0.09558      0.00000     0.40316    0.00127     0.40442
      H   22    0.09748      0.00000     0.40113    0.00139     0.40252
      H   23    0.09630      0.00000     0.40245    0.00125     0.40370
      H   24    0.10969      0.00000     0.38915    0.00116     0.39031
      H   25    0.10111      0.00000     0.39672    0.00217     0.39889
      H   26    0.09434      0.00000     0.40366    0.00200     0.40566
      H   27    0.09785      0.00000     0.40074    0.00141     0.40215
      H   28    0.09062      0.00000     0.40759    0.00179     0.40938
      H   29    0.09998      0.00000     0.39823    0.00179     0.40002
      H   30    0.10507      0.00000     0.39390    0.00104     0.39493
      H   31    0.09691      0.00000     0.40194    0.00114     0.40309
      H   32    0.09876      0.00000     0.40006    0.00119     0.40124
      H   33    0.10360      0.00000     0.39450    0.00190     0.39640
      H   34    0.10424      0.00000     0.39440    0.00136     0.39576
      H   35    0.10040      0.00000     0.39812    0.00148     0.39960
      H   36    0.09491      0.00000     0.40342    0.00167     0.40509
      H   37    0.08573      0.00000     0.41229    0.00197     0.41427
      H   38    0.19033      0.00000     0.30332    0.00635     0.30967
      H   39    0.09808      0.00000     0.40075    0.00116     0.40192
      H   40    0.09747      0.00000     0.40092    0.00160     0.40253
 =======================================================================
   * Total *    0.00000     21.99229    48.77687    0.23084    71.00000

 Normal termination of Gaussian 16 at Fri Dec 11 21:11:12 2020.
