 Gaussian 16, Revision A.03,

 -----------------------------------------------------------
 # opt freq B3LYP/6-31G(d) empiricaldispersion=gd3bj scf=xqc
 -----------------------------------------------------------

 ------------------------------
 CID_83873231_JID_2532_neutraal
 ------------------------------
 Symbolic Z-matrix:
 Charge =  0 Multiplicity = 1

 SCF Done:  E(RB3LYP) =  -531.058458472     A.U. after   14 cycles
 SCF Done:  E(RB3LYP) =  -531.072383633     A.U. after   12 cycles
 SCF Done:  E(RB3LYP) =  -531.073513680     A.U. after   12 cycles
 SCF Done:  E(RB3LYP) =  -531.073720135     A.U. after   11 cycles
 SCF Done:  E(RB3LYP) =  -531.073776872     A.U. after   11 cycles
 SCF Done:  E(RB3LYP) =  -531.073785016     A.U. after   10 cycles
 SCF Done:  E(RB3LYP) =  -531.073787715     A.U. after    8 cycles
 SCF Done:  E(RB3LYP) =  -531.073788510     A.U. after    8 cycles
 SCF Done:  E(RB3LYP) =  -531.073788803     A.U. after    7 cycles
 SCF Done:  E(RB3LYP) =  -531.073789127     A.U. after    8 cycles
 SCF Done:  E(RB3LYP) =  -531.073789310     A.U. after    8 cycles
 SCF Done:  E(RB3LYP) =  -531.073789396     A.U. after    8 cycles
 SCF Done:  E(RB3LYP) =  -531.073789456     A.U. after    7 cycles
 Optimization completed.
    -- Stationary point found.

 1\1\GINC-NODE111\FOpt\RB3LYP\6-31G(d)\C8H12N4\VSC10255\09-Dec-2020\0\\
 # opt freq B3LYP/6-31G(d) empiricaldispersion=gd3bj scf=xqc\\CID_83873
 231_JID_2532_neutraal\\0,1\C,0.4140823309,1.0354862893,-0.1267958859\C
 ,0.6910115014,-0.4595046635,-0.4403802221\C,-0.8272501072,-0.721043278
 7,-0.2835224157\C,-0.944994237,0.6133213835,0.4934868479\N,-1.24679933
 79,-1.9382475346,0.3817125488\C,-2.1043672086,-2.8851360466,-0.0714982
 255\C,-2.1748454045,-3.8724656114,0.903380824\C,-1.3056369816,-3.40590
 71727,1.9219489925\N,-0.7501347607,-2.2395938759,1.6068029597\C,-2.961

 Normal termination of Gaussian 16 at Wed Dec  9 17:39:04 2020.

 --------------------------------------------------------------------
 #N Geom=AllCheck Guess=TCheck SCRF=Check GenChk RB3LYP/6-31G(d) Freq
 --------------------------------------------------------------------

 Structure from the checkpoint file:  "JID_2532.chk"
 ------------------------------
 CID_83873231_JID_2532_neutraal
 ------------------------------
 Charge =  0 Multiplicity = 1

 SCF Done:  E(RB3LYP) =  -531.073789456     A.U. after    1 cycles

  Exact polarizability: 150.097  -6.086 102.466  -1.623  -0.697  67.102
 Approx polarizability: 196.736 -14.795 174.729  -4.763  -5.432  98.588

                      1                      2                      3
                      A                      A                      A
 Frequencies --     33.8109                64.5713                95.5273
 Red. masses --      3.8727                 3.8822                 3.2867
 Frc consts  --      0.0026                 0.0095                 0.0177
 IR Inten    --      0.1712                 0.8748                 0.3293

                      4                      5                      6
                      A                      A                      A
 Frequencies --    119.9767               156.3269               189.6183
 Red. masses --      3.3785                 3.1299                 4.7783
 Frc consts  --      0.0287                 0.0451                 0.1012
 IR Inten    --      0.4735                 0.9027                 3.9582

                      7                      8                      9
                      A                      A                      A
 Frequencies --    266.4902               324.7878               385.8446
 Red. masses --      2.7242                 4.7229                 3.3833
 Frc consts  --      0.1140                 0.2935                 0.2968
 IR Inten    --      3.2594                 4.6669                 4.1840

                     10                     11                     12
                      A                      A                      A
 Frequencies --    422.3994               458.5363               527.6700
 Red. masses --      1.8424                 1.8325                 3.7168
 Frc consts  --      0.1937                 0.2270                 0.6097
 IR Inten    --     30.9905                14.2486                 2.4485

                     13                     14                     15
                      A                      A                      A
 Frequencies --    580.5490               601.4151               664.6035
 Red. masses --      2.1667                 2.4959                 3.5062
 Frc consts  --      0.4303                 0.5319                 0.9125
 IR Inten    --      1.9170                75.6107                 8.3988

                     16                     17                     18
                      A                      A                      A
 Frequencies --    672.7709               685.4602               745.2819
 Red. masses --      3.1040                 2.6953                 1.5740
 Frc consts  --      0.8278                 0.7461                 0.5151
 IR Inten    --     45.7115                51.8418                 5.8666

                     19                     20                     21
                      A                      A                      A
 Frequencies --    770.0030               796.1283               815.8046
 Red. masses --      2.1221                 1.2040                 1.5202
 Frc consts  --      0.7413                 0.4496                 0.5961
 IR Inten    --    157.0100                 0.9036                12.0743

                     22                     23                     24
                      A                      A                      A
 Frequencies --    862.7287               869.1632               877.2473
 Red. masses --      1.1880                 2.7413                 1.4367
 Frc consts  --      0.5210                 1.2201                 0.6514
 IR Inten    --     27.3932                16.8088                 3.5056

                     25                     26                     27
                      A                      A                      A
 Frequencies --    925.3279               937.7657               957.5605
 Red. masses --      2.0816                 2.5086                 1.3516
 Frc consts  --      1.0501                 1.2998                 0.7302
 IR Inten    --      1.2185                 1.0580                 2.4488

                     28                     29                     30
                      A                      A                      A
 Frequencies --    999.1253              1024.4567              1031.3046
 Red. masses --      4.3580                 4.0848                 3.0118
 Frc consts  --      2.5632                 2.5259                 1.8874
 IR Inten    --     31.6506                15.8764                 2.7495

                     31                     32                     33
                      A                      A                      A
 Frequencies --   1065.8417              1108.5124              1143.0392
 Red. masses --      1.9370                 1.9725                 2.2347
 Frc consts  --      1.2965                 1.4280                 1.7203
 IR Inten    --      1.0579                39.7185                13.5357

                     34                     35                     36
                      A                      A                      A
 Frequencies --   1169.8934              1199.7047              1215.4030
 Red. masses --      1.4526                 1.4277                 1.3245
 Frc consts  --      1.1713                 1.2107                 1.1528
 IR Inten    --     29.5948                38.2647                 0.4634

                     37                     38                     39
                      A                      A                      A
 Frequencies --   1224.1269              1253.1321              1264.0703
 Red. masses --      1.4931                 1.5345                 1.2008
 Frc consts  --      1.3182                 1.4197                 1.1305
 IR Inten    --     13.3255                 1.8528                 0.2582

                     40                     41                     42
                      A                      A                      A
 Frequencies --   1269.6512              1286.0455              1299.8053
 Red. masses --      1.2547                 1.6899                 1.4416
 Frc consts  --      1.1917                 1.6467                 1.4350
 IR Inten    --      0.2140                 2.2216                 0.1898

                     43                     44                     45
                      A                      A                      A
 Frequencies --   1318.6964              1358.5974              1401.2402
 Red. masses --      2.4716                 2.7861                 2.4449
 Frc consts  --      2.5324                 3.0299                 2.8284
 IR Inten    --     26.9864               102.2663                 6.8343

                     46                     47                     48
                      A                      A                      A
 Frequencies --   1433.2905              1477.9585              1493.6829
 Red. masses --      3.4057                 3.4620                 3.2556
 Frc consts  --      4.1221                 4.4555                 4.2796
 IR Inten    --     12.7111                98.9745                29.3719

                     49                     50                     51
                      A                      A                      A
 Frequencies --   1503.3763              1516.5065              1543.2410
 Red. masses --      1.0900                 1.0961                 1.2020
 Frc consts  --      1.4514                 1.4853                 1.6867
 IR Inten    --      1.9840                 3.2147                12.2522

                     52                     53                     54
                      A                      A                      A
 Frequencies --   1600.4463              1652.8150              1723.5546
 Red. masses --      4.5991                 1.3724                 4.3416
 Frc consts  --      6.9407                 2.2088                 7.5988
 IR Inten    --     47.3068               124.3391               196.1096

                     55                     56                     57
                      A                      A                      A
 Frequencies --   3080.5016              3087.3139              3091.2133
 Red. masses --      1.0607                 1.0583                 1.0620
 Frc consts  --      5.9302                 5.9432                 5.9791
 IR Inten    --     35.1685                55.3436                 9.2621

                     58                     59                     60
                      A                      A                      A
 Frequencies --   3103.7253              3130.8951              3147.9772
 Red. masses --      1.0874                 1.1066                 1.1088
 Frc consts  --      6.1715                 6.3914                 6.4739
 IR Inten    --     12.0793                14.5960                11.0652

                     61                     62                     63
                      A                      A                      A
 Frequencies --   3156.1638              3256.1941              3282.1766
 Red. masses --      1.1064                 1.0960                 1.0976
 Frc consts  --      6.4937                 6.8465                 6.9664
 IR Inten    --     39.0540                 3.1964                 0.0251

                     64                     65                     66
                      A                      A                      A
 Frequencies --   3472.4726              3534.5252              3642.4072
 Red. masses --      1.0749                 1.0471                 1.0983
 Frc consts  --      7.6367                 7.7071                 8.5851
 IR Inten    --      3.6494                13.7862                 9.2461

 - Thermochemistry -
 -------------------
 Temperature   298.150 Kelvin.  Pressure   1.00000 Atm.
 Atom     1 has atomic number  6 and mass  12.00000

 Molecular mass:   164.10620 amu.
 Principal axes and moments of inertia in atomic units:
                           1         2         3
     Eigenvalues --   582.348484148.803424410.35443
           X            1.00000   0.00071   0.00276
           Y           -0.00076   0.99983   0.01860
           Z           -0.00274  -0.01860   0.99982
 This molecule is an asymmetric top.
 Rotational symmetry number  1.
 Warning -- assumption of classical behavior for rotation
           may cause significant error
 Rotational temperatures (Kelvin)      0.14873     0.02088     0.01964
 Rotational constants (GHZ):           3.09907     0.43500     0.40921
 Zero-point vibrational energy     534554.0 (Joules/Mol)
                                  127.76148 (Kcal/Mol)
 Warning -- explicit consideration of  14 degrees of freedom as
           vibrations may cause significant error
 Vibrational temperatures:     48.65    92.90   137.44   172.62   224.92
          (Kelvin)            272.82   383.42   467.30   555.14   607.74
                              659.73   759.20   835.28   865.30   956.22
                              967.97   986.22  1072.29  1107.86  1145.45
                             1173.76  1241.27  1250.53  1262.16  1331.34
                             1349.24  1377.72  1437.52  1473.96  1483.82
                             1533.51  1594.90  1644.58  1683.22  1726.11
                             1748.69  1761.25  1802.98  1818.72  1826.74
                             1850.33  1870.13  1897.31  1954.72  2016.07
                             2062.19  2126.45  2149.08  2163.02  2181.91
                             2220.38  2302.69  2378.03  2479.81  4432.15
                             4441.96  4447.57  4465.57  4504.66  4529.24
                             4541.02  4684.94  4722.32  4996.11  5085.39
                             5240.61

 Zero-point correction=                           0.203601 (Hartree/Particle)
 Thermal correction to Energy=                    0.214412
 Thermal correction to Enthalpy=                  0.215356
 Thermal correction to Gibbs Free Energy=         0.165909
 Sum of electronic and zero-point Energies=           -530.870189
 Sum of electronic and thermal Energies=              -530.859377
 Sum of electronic and thermal Enthalpies=            -530.858433
 Sum of electronic and thermal Free Energies=         -530.907880

                     E (Thermal)             CV                S
                      KCal/Mol        Cal/Mol-Kelvin    Cal/Mol-Kelvin
 Total                  134.546             41.285            104.070
 Electronic               0.000              0.000              0.000
 Translational            0.889              2.981             41.195
 Rotational               0.889              2.981             30.745
 Vibrational            132.768             35.323             32.131
 Vibration     1          0.594              1.983              5.592
 Vibration     2          0.597              1.971              4.312
 Vibration     3          0.603              1.952              3.544
 Vibration     4          0.609              1.933              3.101
 Vibration     5          0.620              1.896              2.594
 Vibration     6          0.633              1.854              2.232
 Vibration     7          0.672              1.735              1.619
 Vibration     8          0.709              1.626              1.286
 Vibration     9          0.755              1.500              1.016
 Vibration    10          0.785              1.422              0.884
 Vibration    11          0.817              1.342              0.770
 Vibration    12          0.883              1.189              0.592
 Vibration    13          0.937              1.073              0.484
 Vibration    14          0.960              1.029              0.447

 Optimization completed.
    -- Stationary point found.

 1\1\GINC-NODE111\Freq\RB3LYP\6-31G(d)\C8H12N4\VSC10255\09-Dec-2020\0\\
 #N Geom=AllCheck Guess=TCheck SCRF=Check GenChk RB3LYP/6-31G(d) Freq\\
 CID_83873231_JID_2532_neutraal\\0,1\C,0.4140823309,1.0354862893,-0.126
 7958859\C,0.6910115014,-0.4595046635,-0.4403802221\C,-0.8272501072,-0.
 7210432787,-0.2835224157\C,-0.944994237,0.6133213835,0.4934868479\N,-1
 .2467993379,-1.9382475346,0.3817125488\C,-2.1043672086,-2.8851360466,-
 0.0714982255\C,-2.1748454045,-3.8724656114,0.903380824\C,-1.3056369816
 ,-3.4059071727,1.9219489925\N,-0.7501347607,-2.2395938759,1.6068029597

 Normal termination of Gaussian 16 at Wed Dec  9 17:44:33 2020.

 ----------------------------------------------------------------------
 # B3LYP/6-311++G(d,p) empiricaldispersion=gd3bj scf=xqc pop=npa geom=c
 heck
 ----------------------------------------------------------------------

 --------------------------------------
 CID_83873231_JID_2532_Energie_neutraal
 --------------------------------------
 Structure from the checkpoint file:  "JID_2532.chk"
 Charge =  0 Multiplicity = 1

 SCF Done:  E(RB3LYP) =  -531.226554089     A.U. after   14 cycles
 Normal termination of Gaussian 16 at Wed Dec  9 17:46:58 2020.

 ----------------------------------------------------------------------
 # B3LYP/6-311++G(d,p) empiricaldispersion=gd3bj scf=xqc pop=npa geom=c
 heck
 ----------------------------------------------------------------------

 ------------------------------------
 CID_83873231_JID_2532_Energie_kation
 ------------------------------------
 Structure from the checkpoint file:  "JID_2532.chk"
 Charge =  1 Multiplicity = 2

 SCF Done:  E(UB3LYP) =  -530.915721668     A.U. after   25 cycles
 Normal termination of Gaussian 16 at Wed Dec  9 17:52:43 2020.
 Gaussian 16:  ES64L-G16RevA.03 25-Dec-2016

 -----------------------------------
 CID_83873231_JID_2532_Energie_anion
 -----------------------------------
 Structure from the checkpoint file:  "JID_2532.chk"
 Charge = -1 Multiplicity = 2

                         Standard orientation:
 ---------------------------------------------------------------------
 Center     Atomic      Atomic             Coordinates (Angstroms)
 Number     Number       Type             X           Y           Z
 ---------------------------------------------------------------------
      1          6           0        4.047778   -0.067701    0.036126
      2          6           0        2.929744    0.204272    1.078265
      3          6           0        1.956391   -0.578494    0.162849
      4          6           0        2.943280   -0.369790   -1.012153
      5          7           0        0.603990   -0.078890    0.016042
      6          6           0       -0.559280   -0.747362    0.209352
      7          6           0       -1.591322    0.151869   -0.028237
      8          6           0       -0.921566    1.354535   -0.368385
      9          7           0        0.400316    1.212370   -0.343815
     10          6           0       -3.041452   -0.088719    0.063761
     11          7           0       -3.945645    0.790790    0.306323
     12          7           0       -3.414159   -1.423914   -0.087007
     13          1           0        4.633694   -0.958250    0.284481
     14          1           0        4.733814    0.753406   -0.185077
     15          1           0        3.063666   -0.162294    2.100001
     16          1           0        2.646377    1.259284    1.101019
     17          1           0        1.876065   -1.629704    0.451383
     18          1           0        2.663767    0.524757   -1.573819
     19          1           0        3.088629   -1.206332   -1.701770
     20          1           0       -0.579058   -1.780143    0.525235
     21          1           0       -1.356544    2.305260   -0.648020
     22          1           0       -3.511337    1.690950    0.518623
     23          1           0       -2.929826   -1.922507   -0.824204
     24          1           0       -4.422187   -1.528573   -0.138126
 ---------------------------------------------------------------------

 SCF Done:  E(UB3LYP) =  -531.215337040     A.U. after   33 cycles
 SCF Done:  E(UB3LYP) =  -531.215337040     a.u. after    1 cycles

 The electronic state is 2-A.
 Alpha  occ. eigenvalues --  -14.29732 -14.23780 -14.21731 -14.17754 -10.14908
 Alpha  occ. eigenvalues --  -10.11915 -10.11436 -10.10281 -10.08193 -10.07360
 Alpha  occ. eigenvalues --  -10.07335 -10.07181  -0.96006  -0.84690  -0.77519
 Alpha  occ. eigenvalues --   -0.74983  -0.72251  -0.69146  -0.58339  -0.56830
 Alpha  occ. eigenvalues --   -0.54245  -0.49500  -0.48186  -0.45590  -0.44050
 Alpha  occ. eigenvalues --   -0.41327  -0.38821  -0.37045  -0.36448  -0.35820
 Alpha  occ. eigenvalues --   -0.34772  -0.31414  -0.30462  -0.29519  -0.28295
 Alpha  occ. eigenvalues --   -0.26068  -0.24411  -0.22974  -0.22437  -0.20213
 Alpha  occ. eigenvalues --   -0.17459  -0.16547  -0.16165  -0.14191   0.04512
 Alpha virt. eigenvalues --    0.06631   0.07810   0.07998   0.08340   0.08625
 Alpha virt. eigenvalues --    0.09536   0.09642   0.10589   0.11264   0.11528
 Alpha virt. eigenvalues --    0.12324   0.13016   0.13416   0.14510   0.14827

  Beta  occ. eigenvalues --  -14.29721 -14.23774 -14.21682 -14.17733 -10.14895
  Beta  occ. eigenvalues --  -10.11888 -10.11400 -10.10280 -10.08188 -10.07343
  Beta  occ. eigenvalues --  -10.07314 -10.07164  -0.95985  -0.84640  -0.77484
  Beta  occ. eigenvalues --   -0.74920  -0.72224  -0.69112  -0.58294  -0.56782
  Beta  occ. eigenvalues --   -0.54202  -0.49447  -0.48116  -0.45520  -0.43995
  Beta  occ. eigenvalues --   -0.41265  -0.38740  -0.37005  -0.36405  -0.35774
  Beta  occ. eigenvalues --   -0.34729  -0.31367  -0.30427  -0.29493  -0.28238
  Beta  occ. eigenvalues --   -0.26028  -0.24365  -0.22936  -0.22392  -0.20196
  Beta  occ. eigenvalues --   -0.17416  -0.16497  -0.16102  -0.14123
  Beta virt. eigenvalues --    0.07178   0.07589   0.08011   0.08417   0.08820
  Beta virt. eigenvalues --    0.09138   0.09645   0.10055   0.11355   0.11630
  Beta virt. eigenvalues --    0.12076   0.12452   0.13311   0.13864   0.14636

 Mulliken charges and spin densities:
               1          2
     1  C    0.135763  -0.490053
     2  C    1.049668  -1.329544
     3  C   -1.725758   1.416819
     4  C    1.434537  -1.724829
     5  N    0.601135  -0.096105
     6  C   -0.219217  -0.124299
     7  C    0.969920  -0.134701
     8  C   -0.475570   0.320044
     9  N   -0.294333   0.047946
    10  C    0.244190  -1.139185
    11  N   -0.287802  -0.035211
    12  N   -0.276635  -0.011236
    13  H   -0.287394   0.430445
    14  H    0.055243   0.078361
    15  H   -0.190940   0.347891
    16  H    0.123276   0.027091
    17  H   -0.954962   1.165394
    18  H    0.120484   0.032737
    19  H   -0.337284   0.500285
    20  H   -0.660660   0.864732
    21  H    0.045863   0.084531
    22  H    0.186565  -0.008526
    23  H   -0.325606   0.565321
    24  H    0.069517   0.212095
 Sum of Mulliken charges =  -1.00000   1.00000

 Dipole moment (field-independent basis, Debye):
    X=             -0.2932    Y=              7.3002    Z=             -0.0988  Tot=              7.3068
 Quadrupole moment (field-independent basis, Debye-Ang):
   XX=           -149.2021   YY=           -115.3315   ZZ=            -99.5104
   XY=              8.2288   XZ=             -2.9139   YZ=             -0.6609

 Summary of Natural Population Analysis:

                                       Natural Population
                Natural  -----------------------------------------------
    Atom  No    Charge         Core      Valence    Rydberg      Total
 -----------------------------------------------------------------------
      C    1   -0.19159      0.99965     2.18376    0.00818     3.19159
      C    2   -0.18845      0.99963     2.18021    0.00862     3.18845
      C    3   -0.00717      0.99957     1.99115    0.01646     3.00717
      C    4   -0.18745      0.99963     2.17900    0.00882     3.18745
      N    5   -0.10110      0.99964     2.58655    0.01492     3.60110
      C    6    0.02108      0.99951     1.96754    0.01186     2.97892
      C    7   -0.11852      0.99948     2.10764    0.01140     3.11852
      C    8   -0.00120      0.99959     1.98806    0.01355     3.00120
      N    9   -0.15330      0.99973     2.64318    0.01039     3.65330
      C   10    0.21960      0.99962     1.76366    0.01712     2.78040
      N   11   -0.36302      0.99972     2.85582    0.00748     3.86302
      N   12   -0.40007      0.99972     2.88949    0.01086     3.90007
      H   13    0.10060      0.00000     0.39721    0.00219     0.39940
      H   14    0.09392      0.00000     0.40529    0.00079     0.40608
      H   15    0.10018      0.00000     0.39866    0.00116     0.39982
      H   16    0.10405      0.00000     0.39440    0.00155     0.39595
      H   17    0.11095      0.00000     0.38170    0.00735     0.38905
      H   18    0.10415      0.00000     0.39413    0.00172     0.39585
      H   19    0.10205      0.00000     0.39638    0.00157     0.39795
      H   20    0.11658      0.00000     0.38102    0.00240     0.38342
      H   21    0.09738      0.00000     0.40167    0.00095     0.40262
      H   22    0.16096      0.00000     0.33702    0.00202     0.33904
      H   23    0.19200      0.00000     0.30156    0.00644     0.30800
      H   24    0.18836      0.00000     0.30965    0.00199     0.31164
 =======================================================================
   * Total *   -0.00000     11.99547    31.83473    0.16980    44.00000

 Normal termination of Gaussian 16 at Wed Dec  9 18:00:59 2020.
