 Gaussian 16, Revision A.03,

 -----------------------------------------------------------
 # opt freq B3LYP/6-31G(d) empiricaldispersion=gd3bj scf=xqc
 -----------------------------------------------------------

 ------------------------------
 CID_20549861_JID_1651_neutraal
 ------------------------------
 Symbolic Z-matrix:
 Charge =  0 Multiplicity = 1

 SCF Done:  E(RB3LYP) =  -548.788200399     A.U. after   15 cycles
 SCF Done:  E(RB3LYP) =  -548.793353402     A.U. after   12 cycles
 SCF Done:  E(RB3LYP) =  -548.794276870     A.U. after   11 cycles
 SCF Done:  E(RB3LYP) =  -548.794555174     A.U. after   11 cycles
 SCF Done:  E(RB3LYP) =  -548.794535446     A.U. after   12 cycles
 SCF Done:  E(RB3LYP) =  -548.795226647     A.U. after   11 cycles
 SCF Done:  E(RB3LYP) =  -548.795420190     A.U. after   12 cycles
 SCF Done:  E(RB3LYP) =  -548.795455206     A.U. after   11 cycles
 SCF Done:  E(RB3LYP) =  -548.795466339     A.U. after   10 cycles
 SCF Done:  E(RB3LYP) =  -548.795472089     A.U. after   10 cycles
 SCF Done:  E(RB3LYP) =  -548.795475717     A.U. after    8 cycles
 SCF Done:  E(RB3LYP) =  -548.795475997     A.U. after    8 cycles
 SCF Done:  E(RB3LYP) =  -548.795476150     A.U. after    7 cycles
 SCF Done:  E(RB3LYP) =  -548.795476295     A.U. after    7 cycles
 SCF Done:  E(RB3LYP) =  -548.795476343     A.U. after    7 cycles
 Optimization completed.
    -- Stationary point found.
 Normal termination of Gaussian 16 at Tue Dec  8 20:13:20 2020.

 --------------------------------------------------------------------
 #N Geom=AllCheck Guess=TCheck SCRF=Check GenChk RB3LYP/6-31G(d) Freq
 --------------------------------------------------------------------

 Structure from the checkpoint file:  "JID_1651.chk"
 ------------------------------
 CID_20549861_JID_1651_neutraal
 ------------------------------
 Charge =  0 Multiplicity = 1

 SCF Done:  E(RB3LYP) =  -548.795476343     A.U. after    1 cycles

  Exact polarizability: 122.179  -7.735 101.608  -0.509   0.223  45.593
 Approx polarizability: 189.284 -18.534 163.447  -0.353  -1.189  68.466

                      1                      2                      3
                      A                      A                      A
 Frequencies --     75.1945               100.1629               110.3234
 Red. masses --      5.9186                 1.5418                 2.0273
 Frc consts  --      0.0197                 0.0091                 0.0145
 IR Inten    --      1.7432                 0.5546                 0.1070

                      4                      5                      6
                      A                      A                      A
 Frequencies --    122.4853               166.9774               189.2510
 Red. masses --      1.2399                 2.0571                 5.0852
 Frc consts  --      0.0110                 0.0338                 0.1073
 IR Inten    --      0.3294                 7.9738                 1.8300

                      7                      8                      9
                      A                      A                      A
 Frequencies --    254.5726               272.8390               307.4263
 Red. masses --      2.9113                 3.2573                 3.0788
 Frc consts  --      0.1112                 0.1429                 0.1714
 IR Inten    --      1.1801                 5.5050                 7.8003

                     10                     11                     12
                      A                      A                      A
 Frequencies --    340.1583               352.1284               395.7581
 Red. masses --      3.6803                 1.2573                 6.1087
 Frc consts  --      0.2509                 0.0918                 0.5637
 IR Inten    --      3.5673                48.8952                 0.4392

                     13                     14                     15
                      A                      A                      A
 Frequencies --    415.6725               556.9255               605.0900
 Red. masses --      6.1016                 1.2607                 3.7604
 Frc consts  --      0.6212                 0.2304                 0.8112
 IR Inten    --      6.6642                71.1167                32.3931

                     16                     17                     18
                      A                      A                      A
 Frequencies --    616.7697               624.0499               640.0568
 Red. masses --      2.8968                 6.0993                 2.2905
 Frc consts  --      0.6493                 1.3995                 0.5529
 IR Inten    --    132.7684                 8.2039                96.2865

                     19                     20                     21
                      A                      A                      A
 Frequencies --    652.1979               713.7924               742.0941
 Red. masses --      2.5918                 5.3098                 4.0518
 Frc consts  --      0.6495                 1.5939                 1.3147
 IR Inten    --     67.0229                16.0647                39.1739

                     22                     23                     24
                      A                      A                      A
 Frequencies --    762.7022               901.0588              1024.6808
 Red. masses --      9.4697                 3.4088                 1.6205
 Frc consts  --      3.2456                 1.6307                 1.0025
 IR Inten    --     41.2659                 7.7276                12.8513

                     25                     26                     27
                      A                      A                      A
 Frequencies --   1058.5716              1077.6161              1107.0233
 Red. masses --      3.6518                 1.4415                 2.2855
 Frc consts  --      2.4110                 0.9863                 1.6502
 IR Inten    --    138.6971                 0.7185               101.9539

                     28                     29                     30
                      A                      A                      A
 Frequencies --   1159.3897              1172.3078              1244.1877
 Red. masses --      1.2854                 2.6450                 1.6937
 Frc consts  --      1.0180                 2.1417                 1.5448
 IR Inten    --      0.0226                95.3722                39.5605

                     31                     32                     33
                      A                      A                      A
 Frequencies --   1274.8424              1374.4435              1386.8552
 Red. masses --      2.4691                 3.2237                 4.8306
 Frc consts  --      2.3643                 3.5881                 5.4741
 IR Inten    --     29.5098                24.1065                49.4753

                     34                     35                     36
                      A                      A                      A
 Frequencies --   1409.6675              1439.0534              1476.1816
 Red. masses --      6.0827                 1.3080                 1.3378
 Frc consts  --      7.1216                 1.5960                 1.7176
 IR Inten    --    103.4795                 0.2643                15.4891

                     37                     38                     39
                      A                      A                      A
 Frequencies --   1499.7669              1506.0380              1511.8557
 Red. masses --      3.6857                 1.0441                 1.0438
 Frc consts  --      4.8845                 1.3953                 1.4057
 IR Inten    --    120.2993                 6.2213                 8.8932

                     40                     41                     42
                      A                      A                      A
 Frequencies --   1525.9243              1532.1584              1576.6140
 Red. masses --      1.1594                 1.1563                 6.3872
 Frc consts  --      1.5905                 1.5993                 9.3544
 IR Inten    --     24.5390                17.2067                72.5795

                     43                     44                     45
                      A                      A                      A
 Frequencies --   1612.4031              1687.9921              1807.7699
 Red. masses --      3.4134                 1.3666                 9.0595
 Frc consts  --      5.2286                 2.2942                17.4439
 IR Inten    --     11.8446               101.2621               478.6146

                     46                     47                     48
                      A                      A                      A
 Frequencies --   3032.3860              3080.3682              3082.6917
 Red. masses --      1.0424                 1.0981                 1.0321
 Frc consts  --      5.6476                 6.1389                 5.7788
 IR Inten    --     41.0756                23.4802                34.7616

                     49                     50                     51
                      A                      A                      A
 Frequencies --   3145.7595              3149.0068              3188.8368
 Red. masses --      1.0978                 1.1057                 1.1053
 Frc consts  --      6.4005                 6.4602                 6.6220
 IR Inten    --      7.3928                12.9518                 4.6062

                     52                     53                     54
                      A                      A                      A
 Frequencies --   3551.9763              3657.1384              3702.9723
 Red. masses --      1.0470                 1.0991                 1.0643
 Frc consts  --      7.7830                 8.6612                 8.5980
 IR Inten    --     18.9359                30.4297                81.8360

 - Thermochemistry -
 -------------------
 Temperature   298.150 Kelvin.  Pressure   1.00000 Atm.
 Atom     1 has atomic number  6 and mass  12.00000

 Molecular mass:   155.06948 amu.
 Principal axes and moments of inertia in atomic units:
                           1         2         3
     Eigenvalues --  1072.983531801.117632849.46920
           X            0.99916  -0.04098  -0.00145
           Y            0.04099   0.99915   0.00464
           Z            0.00125  -0.00470   0.99999
 This molecule is an asymmetric top.
 Rotational symmetry number  1.
 Warning -- assumption of classical behavior for rotation
           may cause significant error
 Rotational temperatures (Kelvin)      0.08072     0.04809     0.03040
 Rotational constants (GHZ):           1.68198     1.00201     0.63336
 Zero-point vibrational energy     418538.5 (Joules/Mol)
                                  100.03309 (Kcal/Mol)
 Warning -- explicit consideration of  16 degrees of freedom as
           vibrations may cause significant error
 Vibrational temperatures:    108.19   144.11   158.73   176.23   240.24
          (Kelvin)            272.29   366.27   392.55   442.32   489.41
                              506.63   569.41   598.06   801.29   870.59
                              887.39   897.87   920.90   938.37  1026.99
                             1067.71  1097.36  1296.42  1474.29  1523.05
                             1550.45  1592.76  1668.10  1686.69  1790.11
                             1834.21  1977.52  1995.38  2028.20  2070.48
                             2123.90  2157.83  2166.85  2175.22  2195.46
                             2204.43  2268.40  2319.89  2428.64  2600.98
                             4362.93  4431.96  4435.31  4526.05  4530.72
                             4588.02  5110.50  5261.81  5327.75

 Zero-point correction=                           0.159413 (Hartree/Particle)
 Thermal correction to Energy=                    0.170556
 Thermal correction to Enthalpy=                  0.171501
 Thermal correction to Gibbs Free Energy=         0.122748
 Sum of electronic and zero-point Energies=           -548.636063
 Sum of electronic and thermal Energies=              -548.624920
 Sum of electronic and thermal Enthalpies=            -548.623976
 Sum of electronic and thermal Free Energies=         -548.672729

                     E (Thermal)             CV                S
                      KCal/Mol        Cal/Mol-Kelvin    Cal/Mol-Kelvin
 Total                  107.026             40.532            102.610
 Electronic               0.000              0.000              0.000
 Translational            0.889              2.981             41.026
 Rotational               0.889              2.981             30.089
 Vibrational            105.248             34.571             31.495
 Vibration     1          0.599              1.966              4.013
 Vibration     2          0.604              1.949              3.451
 Vibration     3          0.606              1.941              3.263
 Vibration     4          0.610              1.930              3.061
 Vibration     5          0.624              1.883              2.469
 Vibration     6          0.633              1.855              2.235
 Vibration     7          0.665              1.755              1.699
 Vibration     8          0.676              1.723              1.578
 Vibration     9          0.697              1.660              1.376
 Vibration    10          0.720              1.595              1.211
 Vibration    11          0.729              1.571              1.157
 Vibration    12          0.762              1.479              0.978
 Vibration    13          0.779              1.436              0.907
 Vibration    14          0.912              1.125              0.530
 Vibration    15          0.964              1.021              0.441
 Vibration    16          0.976              0.996              0.422

 Optimization completed.
    -- Stationary point found.
 Normal termination of Gaussian 16 at Tue Dec  8 20:17:01 2020.

 ----------------------------------------------------------------------
 # B3LYP/6-311++G(d,p) empiricaldispersion=gd3bj scf=xqc pop=npa geom=c
 heck
 ----------------------------------------------------------------------

 --------------------------------------
 CID_20549861_JID_1651_Energie_neutraal
 --------------------------------------
 Structure from the checkpoint file:  "JID_1651.chk"
 Charge =  0 Multiplicity = 1

 SCF Done:  E(RB3LYP) =  -548.964741973     A.U. after   15 cycles
 Normal termination of Gaussian 16 at Tue Dec  8 20:18:28 2020.

 ----------------------------------------------------------------------
 # B3LYP/6-311++G(d,p) empiricaldispersion=gd3bj scf=xqc pop=npa geom=c
 heck
 ----------------------------------------------------------------------

 ------------------------------------
 CID_20549861_JID_1651_Energie_kation
 ------------------------------------
 Structure from the checkpoint file:  "JID_1651.chk"
 Charge =  1 Multiplicity = 2

 SCF Done:  E(UB3LYP) =  -548.676852604     A.U. after   22 cycles
 Normal termination of Gaussian 16 at Tue Dec  8 20:21:39 2020.
 Gaussian 16:  ES64L-G16RevA.03 25-Dec-2016

 ----------------------------------------------------------------------
 # B3LYP/6-311++G(d,p) empiricaldispersion=gd3bj scf=xqc pop=npa geom=c
 heck
 ----------------------------------------------------------------------

 -----------------------------------
 CID_20549861_JID_1651_Energie_anion
 -----------------------------------
 Structure from the checkpoint file:  "JID_1651.chk"
 Charge = -1 Multiplicity = 2

                         Standard orientation:
 ---------------------------------------------------------------------
 Center     Atomic      Atomic             Coordinates (Angstroms)
 Number     Number       Type             X           Y           Z
 ---------------------------------------------------------------------
      1          6           0        3.265963   -0.109426   -0.009218
      2          6           0        1.795179    0.155015   -0.005620
      3          7           0        1.301833    1.400937   -0.015055
      4          7           0       -0.027221    1.290382    0.002670
      5          6           0       -0.430284   -0.032449    0.017394
      6          6           0        0.745964   -0.795377    0.015969
      7          7           0        0.882140   -2.170267    0.097641
      8          6           0       -1.818831   -0.430590   -0.000097
      9          8           0       -2.792212    0.303527   -0.006499
     10          8           0       -1.954804   -1.795268   -0.018534
     11          6           0       -0.851857    2.485463    0.004687
     12          1           0        3.811515    0.837275    0.009866
     13          1           0        3.581443   -0.662634   -0.904669
     14          1           0        3.568319   -0.701451    0.863847
     15          1           0        0.039030   -2.683928   -0.126697
     16          1           0        1.705150   -2.539612   -0.361570
     17          1           0       -2.915815   -1.957221   -0.032195
     18          1           0       -1.489395    2.511956    0.891455
     19          1           0       -0.165167    3.331826    0.004329
     20          1           0       -1.493024    2.514541   -0.879577
 ---------------------------------------------------------------------

 SCF Done:  E(UB3LYP) =  -548.954410516     A.U. after   33 cycles
 SCF Done:  E(UB3LYP) =  -548.954410516     a.u. after    1 cycles

 The electronic state is 2-A.
 Alpha  occ. eigenvalues --  -19.03828 -18.97285 -14.25602 -14.20213 -14.19073
 Alpha  occ. eigenvalues --  -10.16427 -10.09221 -10.07902 -10.07409 -10.06501
 Alpha  occ. eigenvalues --  -10.05212  -0.97501  -0.92598  -0.88382  -0.78831
 Alpha  occ. eigenvalues --   -0.71956  -0.65837  -0.62085  -0.55016  -0.53995
 Alpha  occ. eigenvalues --   -0.46882  -0.43484  -0.40310  -0.38441  -0.36294
 Alpha  occ. eigenvalues --   -0.35658  -0.34660  -0.32593  -0.31683  -0.30723
 Alpha  occ. eigenvalues --   -0.29926  -0.28749  -0.27188  -0.26497  -0.25395
 Alpha  occ. eigenvalues --   -0.20758  -0.20012  -0.17170  -0.15635  -0.12494
 Alpha  occ. eigenvalues --   -0.08215   0.05205
 Alpha virt. eigenvalues --    0.07482   0.07899   0.08755   0.09831   0.11457
 Alpha virt. eigenvalues --    0.12008   0.12542   0.13335   0.13960   0.14477
 Alpha virt. eigenvalues --    0.16413   0.16778   0.17404   0.17500   0.17867

  Beta  occ. eigenvalues --  -19.03745 -18.97104 -14.25438 -14.20029 -14.19012
  Beta  occ. eigenvalues --  -10.16232 -10.09226 -10.07796 -10.07419 -10.06548
  Beta  occ. eigenvalues --  -10.05178  -0.97254  -0.92340  -0.88098  -0.78714
  Beta  occ. eigenvalues --   -0.71776  -0.65653  -0.62035  -0.54870  -0.53628
  Beta  occ. eigenvalues --   -0.46746  -0.43382  -0.40152  -0.38275  -0.35899
  Beta  occ. eigenvalues --   -0.35467  -0.34519  -0.32488  -0.31005  -0.30615
  Beta  occ. eigenvalues --   -0.29885  -0.28649  -0.27131  -0.26202  -0.25282
  Beta  occ. eigenvalues --   -0.20319  -0.19311  -0.16924  -0.15445  -0.11861
  Beta  occ. eigenvalues --   -0.07717
  Beta virt. eigenvalues --    0.08010   0.08785   0.08929   0.09451   0.10692
  Beta virt. eigenvalues --    0.11906   0.12063   0.12593   0.13594   0.13986
  Beta virt. eigenvalues --    0.15211   0.16529   0.16859   0.17670   0.17750

 Mulliken charges and spin densities:
               1          2
     1  C    1.992472  -2.514370
     2  C   -1.850079   1.506824
     3  N   -0.115114   0.164147
     4  N    0.009255  -0.000815
     5  C    0.186731  -0.625426
     6  C    0.754243  -0.500899
     7  N   -0.349489  -0.027806
     8  C   -0.054501   0.592294
     9  O   -0.399036   0.056214
    10  O   -0.273381   0.026760
    11  C   -0.241011  -0.089074
    12  H    0.002804   0.137273
    13  H   -0.424831   0.581387
    14  H   -0.111030   0.260818
    15  H   -0.023052   0.304110
    16  H   -0.371639   0.629734
    17  H   -0.125543   0.423836
    18  H    0.139916   0.026843
    19  H    0.130763  -0.000937
    20  H    0.122523   0.049085
 Sum of Mulliken charges =  -1.00000   1.00000

 Dipole moment (field-independent basis, Debye):
    X=             -2.1094    Y=              4.8070    Z=              1.3170  Tot=              5.4122
 Quadrupole moment (field-independent basis, Debye-Ang):
   XX=           -115.0232   YY=            -99.6987   ZZ=            -81.2234
   XY=              4.3235   XZ=              4.6852   YZ=             -1.8464

 Summary of Natural Population Analysis:

                                       Natural Population
                Natural  -----------------------------------------------
    Atom  No    Charge         Core      Valence    Rydberg      Total
 -----------------------------------------------------------------------
      C    1   -0.29883      0.99964     2.29309    0.00611     3.29883
      C    2    0.03189      0.99956     1.95360    0.01496     2.96811
      N    3   -0.11947      0.99970     2.60856    0.01121     3.61947
      N    4   -0.07526      0.99965     2.56413    0.01149     3.57526
      C    5   -0.01818      0.99942     2.00643    0.01232     3.01818
      C    6    0.08334      0.99941     1.90499    0.01226     2.91666
      N    7   -0.39653      0.99971     2.88668    0.01015     3.89653
      C    8    0.40478      0.99964     1.57250    0.02309     2.59522
      O    9   -0.31528      0.99988     3.30944    0.00596     4.31528
      O   10   -0.35713      0.99988     3.35023    0.00703     4.35713
      C   11   -0.17245      0.99965     2.16636    0.00644     3.17245
      H   12    0.10585      0.00000     0.39304    0.00111     0.39415
      H   13    0.10252      0.00000     0.39537    0.00211     0.39748
      H   14    0.10076      0.00000     0.39804    0.00119     0.39924
      H   15    0.19806      0.00000     0.29877    0.00317     0.30194
      H   16    0.18887      0.00000     0.30479    0.00634     0.31113
      H   17    0.23841      0.00000     0.25598    0.00562     0.26159
      H   18    0.09874      0.00000     0.40007    0.00119     0.40126
      H   19    0.10043      0.00000     0.39855    0.00101     0.39957
      H   20    0.09949      0.00000     0.39906    0.00145     0.40051
 =======================================================================
   * Total *   -0.00000     10.99613    29.85967    0.14420    41.00000

 Normal termination of Gaussian 16 at Tue Dec  8 20:25:55 2020.
