 Gaussian 16, Revision A.03,

 -----------------------------------------------------------
 # opt freq B3LYP/6-31G(d) empiricaldispersion=gd3bj scf=xqc
 -----------------------------------------------------------

 ------------------------------
 CID_87260593_JID_1471_neutraal
 ------------------------------
 Symbolic Z-matrix:
 Charge =  0 Multiplicity = 1

 SCF Done:  E(RB3LYP) =  -611.924303145     A.U. after   15 cycles
 SCF Done:  E(RB3LYP) =  -611.928563724     A.U. after   13 cycles
 SCF Done:  E(RB3LYP) =  -611.927061258     A.U. after   14 cycles
 SCF Done:  E(RB3LYP) =  -611.929093327     A.U. after   12 cycles
 SCF Done:  E(RB3LYP) =  -611.929909405     A.U. after   12 cycles
 SCF Done:  E(RB3LYP) =  -611.929917340     A.U. after   12 cycles
 SCF Done:  E(RB3LYP) =  -611.929981477     A.U. after   12 cycles
 SCF Done:  E(RB3LYP) =  -611.930101459     A.U. after   11 cycles
 SCF Done:  E(RB3LYP) =  -611.930095323     A.U. after   10 cycles
 SCF Done:  E(RB3LYP) =  -611.930088290     A.U. after   10 cycles
 SCF Done:  E(RB3LYP) =  -611.930104944     A.U. after   10 cycles
 SCF Done:  E(RB3LYP) =  -611.930106129     A.U. after    8 cycles
 SCF Done:  E(RB3LYP) =  -611.930106333     A.U. after    8 cycles
 SCF Done:  E(RB3LYP) =  -611.930106375     A.U. after    7 cycles
 Optimization completed.
    -- Stationary point found.

 1\1\GINC-NODE107\FOpt\RB3LYP\6-31G(d)\C6H12O5\VSC10255\08-Dec-2020\0\\
 # opt freq B3LYP/6-31G(d) empiricaldispersion=gd3bj scf=xqc\\CID_87260
 593_JID_1471_neutraal\\0,1\C,0.8778258241,-0.0124934897,-0.0103638924\
 C,0.3339811004,0.471125746,1.3336802537\C,0.8381383499,1.8891392116,1.
 6360068957\C,-1.2514959178,0.4392983331,1.3300874894\C,-1.8163741026,-
 0.9800933615,1.2131101191\C,-1.7913144071,1.1087476268,2.5993568879\O,
 -2.5182637137,2.0788332158,2.6352145061\O,-1.3770657783,0.4914328863,3
 .7370407849\O,-1.6099807621,1.2586145588,0.2202898202\O,-3.0550315982,

 Normal termination of Gaussian 16 at Tue Dec  8 20:07:13 2020.

 --------------------------------------------------------------------
 #N Geom=AllCheck Guess=TCheck SCRF=Check GenChk RB3LYP/6-31G(d) Freq
 --------------------------------------------------------------------

 Structure from the checkpoint file:  "JID_1471.chk"
 ------------------------------
 CID_87260593_JID_1471_neutraal
 ------------------------------
 Charge =  0 Multiplicity = 1

 SCF Done:  E(RB3LYP) =  -611.930106375     A.U. after    1 cycles

  Exact polarizability:  88.042  -0.055  79.931   2.391  -0.488  70.930
 Approx polarizability: 127.743   5.524 114.832  10.645   4.395 102.556

                      1                      2                      3
                      A                      A                      A
 Frequencies --     73.2347                84.0903               160.2991
 Red. masses --      9.0240                 3.1505                 1.6494
 Frc consts  --      0.0285                 0.0131                 0.0250
 IR Inten    --      0.2513                 1.8356                 1.7272

                      4                      5                      6
                      A                      A                      A
 Frequencies --    188.4759               198.8575               217.2112
 Red. masses --      3.4419                 1.5465                 4.3843
 Frc consts  --      0.0720                 0.0360                 0.1219
 IR Inten    --      0.8824                 0.3506                11.4697

                      7                      8                      9
                      A                      A                      A
 Frequencies --    221.8314               246.4820               272.2989
 Red. masses --      1.4724                 1.3172                 2.5355
 Frc consts  --      0.0427                 0.0471                 0.1108
 IR Inten    --      0.6262                 0.2567                 0.5385

                     10                     11                     12
                      A                      A                      A
 Frequencies --    303.0188               326.1929               361.2071
 Red. masses --      2.9594                 3.2536                 2.7198
 Frc consts  --      0.1601                 0.2040                 0.2091
 IR Inten    --      0.9949                 1.1142                 2.3186

                     13                     14                     15
                      A                      A                      A
 Frequencies --    365.9738               374.6825               420.0868
 Red. masses --      4.9097                 5.1817                 3.6338
 Frc consts  --      0.3874                 0.4286                 0.3778
 IR Inten    --      1.7221                 4.8637                 5.7606

                     16                     17                     18
                      A                      A                      A
 Frequencies --    463.8255               470.5995               485.7844
 Red. masses --      1.2008                 3.4501                 2.8999
 Frc consts  --      0.1522                 0.4502                 0.4032
 IR Inten    --     77.0689                17.8050                28.4136

                     19                     20                     21
                      A                      A                      A
 Frequencies --    541.2037               588.2315               598.9828
 Red. masses --      1.1614                 2.5054                 3.3996
 Frc consts  --      0.2004                 0.5108                 0.7186
 IR Inten    --    136.8609                70.3016                13.3119

                     22                     23                     24
                      A                      A                      A
 Frequencies --    634.8571               720.2928               773.7500
 Red. masses --      1.4661                 3.8792                 4.3721
 Frc consts  --      0.3482                 1.1858                 1.5422
 IR Inten    --    100.5922                31.2640                35.0929

                     25                     26                     27
                      A                      A                      A
 Frequencies --    838.3039               898.5205               930.4095
 Red. masses --      2.8232                 2.3798                 3.6540
 Frc consts  --      1.1690                 1.1320                 1.8636
 IR Inten    --      8.7427                 3.0250                16.1265

                     28                     29                     30
                      A                      A                      A
 Frequencies --    950.1602               955.3740               998.8304
 Red. masses --      3.2830                 1.6130                 2.1565
 Frc consts  --      1.7463                 0.8674                 1.2676
 IR Inten    --      3.4792                 0.9708                25.6938

                     31                     32                     33
                      A                      A                      A
 Frequencies --   1031.8379              1119.7676              1141.0739
 Red. masses --      1.3067                 2.3585                 2.9813
 Frc consts  --      0.8197                 1.7424                 2.2871
 IR Inten    --      2.2626                42.0373               183.4463

                     34                     35                     36
                      A                      A                      A
 Frequencies --   1170.0050              1182.8982              1221.0311
 Red. masses --      2.4280                 2.6668                 2.2141
 Frc consts  --      1.9583                 2.1986                 1.9450
 IR Inten    --     29.3394                24.8588                 5.3627

                     37                     38                     39
                      A                      A                      A
 Frequencies --   1248.0870              1257.8207              1355.2477
 Red. masses --      2.4290                 3.2247                 2.2020
 Frc consts  --      2.2293                 3.0059                 2.3829
 IR Inten    --     73.1187                41.8708                50.2837

                     40                     41                     42
                      A                      A                      A
 Frequencies --   1410.5267              1424.7761              1434.1750
 Red. masses --      1.3256                 1.2357                 1.3870
 Frc consts  --      1.5539                 1.4779                 1.6809
 IR Inten    --     32.2147                17.0880                31.9449

                     43                     44                     45
                      A                      A                      A
 Frequencies --   1447.0165              1450.0995              1507.7921
 Red. masses --      1.1772                 1.2493                 1.0510
 Frc consts  --      1.4523                 1.5478                 1.4078
 IR Inten    --     21.6739                76.4293                 3.4925

                     46                     47                     48
                      A                      A                      A
 Frequencies --   1513.7441              1517.3259              1530.9115
 Red. masses --      1.0595                 1.0492                 1.0503
 Frc consts  --      1.4303                 1.4232                 1.4504
 IR Inten    --      4.1521                 3.8471                11.0388

                     49                     50                     51
                      A                      A                      A
 Frequencies --   1532.1967              1545.9214              1828.0475
 Red. masses --      1.0689                 1.0539                 9.5522
 Frc consts  --      1.4785                 1.4840                18.8074
 IR Inten    --      3.9220                 0.2990               220.7534

                     52                     53                     54
                      A                      A                      A
 Frequencies --   3056.7907              3079.0497              3092.2939
 Red. masses --      1.0392                 1.0364                 1.0342
 Frc consts  --      5.7212                 5.7892                 5.8267
 IR Inten    --     19.1709                 9.9690                 6.9000

                     55                     56                     57
                      A                      A                      A
 Frequencies --   3123.9560              3146.1890              3153.7553
 Red. masses --      1.0969                 1.1018                 1.1033
 Frc consts  --      6.3071                 6.4256                 6.4656
 IR Inten    --     25.3502                18.0458                16.3563

                     58                     59                     60
                      A                      A                      A
 Frequencies --   3165.6284              3173.0622              3183.0289
 Red. masses --      1.1029                 1.1029                 1.1038
 Frc consts  --      6.5117                 6.5427                 6.5891
 IR Inten    --      8.0989                13.4736                 4.8917

                     61                     62                     63
                      A                      A                      A
 Frequencies --   3615.5316              3663.6490              3725.5992
 Red. masses --      1.0673                 1.0642                 1.0650
 Frc consts  --      8.2198                 8.4162                 8.7091
 IR Inten    --     58.8847                63.6009                35.8505

 - Thermochemistry -
 -------------------
 Temperature   298.150 Kelvin.  Pressure   1.00000 Atm.
 Atom     1 has atomic number  6 and mass  12.00000

 Molecular mass:   164.06847 amu.
 Principal axes and moments of inertia in atomic units:
                           1         2         3
     Eigenvalues --  1304.649841696.757152096.78835
           X            0.99782  -0.05736  -0.03261
           Y            0.05612   0.99771  -0.03785
           Z            0.03471   0.03594   0.99875
 This molecule is an asymmetric top.
 Rotational symmetry number  1.
 Warning -- assumption of classical behavior for rotation
           may cause significant error
 Rotational temperatures (Kelvin)      0.06639     0.05105     0.04131
 Rotational constants (GHZ):           1.38331     1.06364     0.86072
 Zero-point vibrational energy     494727.1 (Joules/Mol)
                                  118.24260 (Kcal/Mol)
 Warning -- explicit consideration of  21 degrees of freedom as
           vibrations may cause significant error
 Vibrational temperatures:    105.37   120.99   230.63   271.17   286.11
          (Kelvin)            312.52   319.17   354.63   391.78   435.98
                              469.32   519.70   526.55   539.08   604.41
                              667.34   677.09   698.94   778.67   846.33
                              861.80   913.42  1036.34  1113.25  1206.13
                             1292.77  1338.65  1367.07  1374.57  1437.09
                             1484.58  1611.10  1641.75  1683.38  1701.93
                             1756.79  1795.72  1809.72  1949.90  2029.43
                             2049.93  2063.46  2081.93  2086.37  2169.38
                             2177.94  2183.09  2202.64  2204.49  2224.24
                             2630.15  4398.04  4430.07  4449.12  4494.68
                             4526.66  4537.55  4554.63  4565.33  4579.67
                             5201.94  5271.17  5360.31

 Zero-point correction=                           0.188432 (Hartree/Particle)
 Thermal correction to Energy=                    0.200826
 Thermal correction to Enthalpy=                  0.201771
 Thermal correction to Gibbs Free Energy=         0.151452
 Sum of electronic and zero-point Energies=           -611.741675
 Sum of electronic and thermal Energies=              -611.729280
 Sum of electronic and thermal Enthalpies=            -611.728336
 Sum of electronic and thermal Free Energies=         -611.778654

                     E (Thermal)             CV                S
                      KCal/Mol        Cal/Mol-Kelvin    Cal/Mol-Kelvin
 Total                  126.020             47.209            105.904
 Electronic               0.000              0.000              0.000
 Translational            0.889              2.981             41.194
 Rotational               0.889              2.981             29.919
 Vibrational            124.243             41.247             34.792
 Vibration     1          0.599              1.967              4.064
 Vibration     2          0.601              1.960              3.793
 Vibration     3          0.622              1.891              2.546
 Vibration     4          0.633              1.856              2.243
 Vibration     5          0.637              1.841              2.144
 Vibration     6          0.646              1.815              1.982
 Vibration     7          0.648              1.808              1.944
 Vibration     8          0.661              1.769              1.756
 Vibration     9          0.675              1.724              1.582
 Vibration    10          0.694              1.668              1.400
 Vibration    11          0.710              1.623              1.279
 Vibration    12          0.735              1.552              1.117
 Vibration    13          0.739              1.542              1.097
 Vibration    14          0.746              1.524              1.061
 Vibration    15          0.783              1.427              0.892
 Vibration    16          0.821              1.330              0.755
 Vibration    17          0.828              1.315              0.736
 Vibration    18          0.842              1.282              0.695
 Vibration    19          0.896              1.159              0.563
 Vibration    20          0.945              1.057              0.470
 Vibration    21          0.957              1.034              0.451

 Optimization completed.
    -- Stationary point found.

 1\1\GINC-NODE107\Freq\RB3LYP\6-31G(d)\C6H12O5\VSC10255\08-Dec-2020\0\\
 #N Geom=AllCheck Guess=TCheck SCRF=Check GenChk RB3LYP/6-31G(d) Freq\\
 CID_87260593_JID_1471_neutraal\\0,1\C,0.8778258241,-0.0124934897,-0.01
 03638924\C,0.3339811004,0.471125746,1.3336802537\C,0.8381383499,1.8891
 392116,1.6360068957\C,-1.2514959178,0.4392983331,1.3300874894\C,-1.816
 3741026,-0.9800933615,1.2131101191\C,-1.7913144071,1.1087476268,2.5993
 568879\O,-2.5182637137,2.0788332158,2.6352145061\O,-1.3770657783,0.491
 4328863,3.7370407849\O,-1.6099807621,1.2586145588,0.2202898202\O,-3.05

 Normal termination of Gaussian 16 at Tue Dec  8 20:12:36 2020.

 ----------------------------------------------------------------------
 # B3LYP/6-311++G(d,p) empiricaldispersion=gd3bj scf=xqc pop=npa geom=c
 heck
 ----------------------------------------------------------------------

 --------------------------------------
 CID_87260593_JID_1471_Energie_neutraal
 --------------------------------------
 Structure from the checkpoint file:  "JID_1471.chk"
 Charge =  0 Multiplicity = 1

 SCF Done:  E(RB3LYP) =  -612.136516438     A.U. after   14 cycles
 Normal termination of Gaussian 16 at Tue Dec  8 20:14:59 2020.

 ----------------------------------------------------------------------
 # B3LYP/6-311++G(d,p) empiricaldispersion=gd3bj scf=xqc pop=npa geom=c
 heck
 ----------------------------------------------------------------------

 ------------------------------------
 CID_87260593_JID_1471_Energie_kation
 ------------------------------------
 Structure from the checkpoint file:  "JID_1471.chk"
 Charge =  1 Multiplicity = 2

 SCF Done:  E(UB3LYP) =  -611.772385318     A.U. after   33 cycles
 SCF Done:  E(UB3LYP) =  -611.772387953     a.u. after    3 cycles
 Normal termination of Gaussian 16 at Tue Dec  8 20:35:27 2020.
 Gaussian 16:  ES64L-G16RevA.03 25-Dec-2016

 -----------------------------------
 CID_87260593_JID_1471_Energie_anion
 -----------------------------------
 Structure from the checkpoint file:  "JID_1471.chk"
 Charge = -1 Multiplicity = 2

                         Standard orientation:
 ---------------------------------------------------------------------
 Center     Atomic      Atomic             Coordinates (Angstroms)
 Number     Number       Type             X           Y           Z
 ---------------------------------------------------------------------
      1          6           0        2.147501   -1.275580   -0.000105
      2          6           0        1.301986   -0.014437   -0.175411
      3          6           0        1.325428    0.446333   -1.639474
      4          6           0       -0.188989   -0.281067    0.294338
      5          6           0       -0.295792   -0.569407    1.795303
      6          6           0       -1.073934    0.917589   -0.067196
      7          8           0       -2.048194    0.887805   -0.788818
      8          8           0       -0.664308    2.071334    0.522789
      9          8           0       -0.608320   -1.386769   -0.501291
     10          8           0       -1.965955   -1.763148   -0.148018
     11          8           0        1.899411    0.964752    0.667480
     12          1           0        1.743137   -2.104246   -0.583931
     13          1           0        2.194785   -1.569279    1.051160
     14          1           0        3.166383   -1.059652   -0.334807
     15          1           0        0.842926   -0.287091   -2.290864
     16          1           0        0.809448    1.405699   -1.765673
     17          1           0        2.362938    0.582628   -1.957507
     18          1           0        0.197127    0.219262    2.365043
     19          1           0       -1.342585   -0.647576    2.095222
     20          1           0        0.189479   -1.523943    2.009158
     21          1           0       -1.290052    2.765262    0.236864
     22          1           0       -2.450376   -1.094555   -0.675736
     23          1           0        1.378518    1.781120    0.589200
 ---------------------------------------------------------------------

 SCF Done:  E(UB3LYP) =  -612.126453834     A.U. after   32 cycles

 The electronic state is 2-A.
 Alpha  occ. eigenvalues --  -19.08304 -19.07341 -19.06664 -19.02090 -19.01514
 Alpha  occ. eigenvalues --  -10.20572 -10.14899 -10.14209 -10.06326 -10.05891
 Alpha  occ. eigenvalues --  -10.05680  -1.03047  -1.00665  -0.92786  -0.91966
 Alpha  occ. eigenvalues --   -0.82451  -0.68690  -0.65373  -0.60035  -0.56552
 Alpha  occ. eigenvalues --   -0.51172  -0.47589  -0.43331  -0.41256  -0.40247
 Alpha  occ. eigenvalues --   -0.38934  -0.37001  -0.35833  -0.33300  -0.32313
 Alpha  occ. eigenvalues --   -0.32158  -0.31294  -0.29535  -0.28989  -0.28168
 Alpha  occ. eigenvalues --   -0.28029  -0.26823  -0.25031  -0.23465  -0.22205
 Alpha  occ. eigenvalues --   -0.21238  -0.19036  -0.17630  -0.17388   0.04948
 Alpha virt. eigenvalues --    0.07517   0.08193   0.08543   0.09426   0.10516
 Alpha virt. eigenvalues --    0.10605   0.11416   0.11920   0.12540   0.13043
 Alpha virt. eigenvalues --    0.13545   0.14732   0.15037   0.16486   0.17438

  Beta  occ. eigenvalues --  -19.08295 -19.07334 -19.06557 -19.02031 -19.01491
  Beta  occ. eigenvalues --  -10.20511 -10.14893 -10.14200 -10.06299 -10.05867
  Beta  occ. eigenvalues --  -10.05654  -1.03009  -1.00525  -0.92715  -0.91846
  Beta  occ. eigenvalues --   -0.82428  -0.68644  -0.65318  -0.59971  -0.56429
  Beta  occ. eigenvalues --   -0.51031  -0.47525  -0.43246  -0.41204  -0.40206
  Beta  occ. eigenvalues --   -0.38824  -0.36954  -0.35704  -0.33238  -0.32235
  Beta  occ. eigenvalues --   -0.32106  -0.31248  -0.29498  -0.28935  -0.28133
  Beta  occ. eigenvalues --   -0.27999  -0.26793  -0.24995  -0.23359  -0.22107
  Beta  occ. eigenvalues --   -0.21156  -0.19010  -0.17598  -0.17320
  Beta virt. eigenvalues --    0.07432   0.08260   0.08864   0.09437   0.09954
  Beta virt. eigenvalues --    0.10764   0.10984   0.11868   0.12315   0.12666
  Beta virt. eigenvalues --    0.13239   0.14320   0.14956   0.15399   0.16978

 Mulliken charges and spin densities:
               1          2
     1  C    0.331515  -0.763213
     2  C   -0.518698   0.311460
     3  C    0.553471  -0.861008
     4  C   -0.966399   0.309080
     5  C    0.765961  -1.091836
     6  C    0.928256  -0.817313
     7  O   -0.316725   0.068609
     8  O   -0.279197   0.143722
     9  O    0.001641   0.018465
    10  O   -0.105540  -0.013914
    11  O   -0.078563  -0.037791
    12  H   -0.019064   0.179161
    13  H   -0.001925   0.160577
    14  H   -0.009879   0.175790
    15  H    0.055428   0.106694
    16  H   -0.491673   0.694860
    17  H   -0.171830   0.337615
    18  H   -0.031693   0.199444
    19  H    0.057295   0.132509
    20  H   -0.002258   0.183516
    21  H   -0.989799   1.326213
    22  H    0.207217   0.035716
    23  H    0.082461   0.201643
 Sum of Mulliken charges =  -1.00000   1.00000

 Dipole moment (field-independent basis, Debye):
    X=              0.7830    Y=             -6.7550    Z=              0.1632  Tot=              6.8022
 Quadrupole moment (field-independent basis, Debye-Ang):
   XX=           -101.7808   YY=           -123.0069   ZZ=            -92.6487
   XY=              6.6764   XZ=             -0.0966   YZ=              0.8953

 Summary of Natural Population Analysis:

                                       Natural Population
                Natural  -----------------------------------------------
    Atom  No    Charge         Core      Valence    Rydberg      Total
 -----------------------------------------------------------------------
      C    1   -0.29122      0.99961     2.28468    0.00694     3.29122
      C    2    0.13020      0.99951     1.85169    0.01860     2.86980
      C    3   -0.30207      0.99961     2.29471    0.00775     3.30207
      C    4    0.08818      0.99944     1.89328    0.01910     2.91182
      C    5   -0.29731      0.99961     2.29122    0.00648     3.29731
      C    6    0.41580      0.99962     1.55724    0.02734     2.58420
      O    7   -0.30989      0.99986     3.30295    0.00709     4.30989
      O    8   -0.35729      0.99987     3.34841    0.00901     4.35729
      O    9   -0.17064      0.99986     3.16107    0.00971     4.17064
      O   10   -0.23043      0.99991     3.22442    0.00610     4.23043
      O   11   -0.38019      0.99988     3.37359    0.00672     4.38019
      H   12    0.10713      0.00000     0.39164    0.00123     0.39287
      H   13    0.10364      0.00000     0.39538    0.00098     0.39636
      H   14    0.10403      0.00000     0.39504    0.00093     0.39597
      H   15    0.10719      0.00000     0.39155    0.00126     0.39281
      H   16    0.10675      0.00000     0.39162    0.00163     0.39325
      H   17    0.10395      0.00000     0.39508    0.00097     0.39605
      H   18    0.11619      0.00000     0.38254    0.00126     0.38381
      H   19    0.10903      0.00000     0.38979    0.00117     0.39097
      H   20    0.10517      0.00000     0.39372    0.00111     0.39483
      H   21    0.26036      0.00000     0.17123    0.06841     0.23964
      H   22    0.23812      0.00000     0.25871    0.00317     0.26188
      H   23    0.24331      0.00000     0.25185    0.00484     0.25669
 =======================================================================
   * Total *    0.00000     10.99678    32.79143    0.21179    44.00000

 Normal termination of Gaussian 16 at Tue Dec  8 20:43:50 2020.
