 Gaussian 16, Revision A.03,

 -----------------------------------------------------------
 # opt freq B3LYP/6-31G(d) empiricaldispersion=gd3bj scf=xqc
 -----------------------------------------------------------

 -------------------------------
 CID_115712926_JID_5117_neutraal
 -------------------------------
 Symbolic Z-matrix:
 Charge =  0 Multiplicity = 1

 SCF Done:  E(RB3LYP) =  -960.981292605     A.U. after   14 cycles
 SCF Done:  E(RB3LYP) =  -960.987931299     A.U. after   12 cycles
 SCF Done:  E(RB3LYP) =  -960.988667221     A.U. after   12 cycles
 SCF Done:  E(RB3LYP) =  -960.987991972     A.U. after   12 cycles
 SCF Done:  E(RB3LYP) =  -960.988847568     A.U. after   12 cycles
 SCF Done:  E(RB3LYP) =  -960.989507979     A.U. after   12 cycles
 SCF Done:  E(RB3LYP) =  -960.989689818     A.U. after   11 cycles
 SCF Done:  E(RB3LYP) =  -960.989741726     A.U. after   12 cycles
 SCF Done:  E(RB3LYP) =  -960.989771451     A.U. after   10 cycles
 SCF Done:  E(RB3LYP) =  -960.989788642     A.U. after   10 cycles
 SCF Done:  E(RB3LYP) =  -960.989996337     A.U. after    8 cycles
 SCF Done:  E(RB3LYP) =  -960.989996695     A.U. after    7 cycles
 SCF Done:  E(RB3LYP) =  -960.989996911     A.U. after    7 cycles
 SCF Done:  E(RB3LYP) =  -960.989996970     A.U. after    7 cycles
 SCF Done:  E(RB3LYP) =  -960.989996993     A.U. after    6 cycles
 Optimization completed.
    -- Stationary point found.
 Normal termination of Gaussian 16 at Thu Dec 10 15:05:46 2020.

 --------------------------------------------------------------------
 #N Geom=AllCheck Guess=TCheck SCRF=Check GenChk RB3LYP/6-31G(d) Freq
 --------------------------------------------------------------------

 Structure from the checkpoint file:  "JID_5117.chk"
 -------------------------------
 CID_115712926_JID_5117_neutraal
 -------------------------------
 Charge =  0 Multiplicity = 1

 SCF Done:  E(RB3LYP) =  -960.989996993     A.U. after    1 cycles

  Exact polarizability: 187.296  -1.401 161.572   3.544  11.078 111.474
 Approx polarizability: 256.454  -5.574 243.291   8.789  27.766 180.199

                      1                      2                      3
                      A                      A                      A
 Frequencies --     31.0534                35.0307                51.1092
 Red. masses --      2.9905                 5.6501                 3.9839
 Frc consts  --      0.0017                 0.0041                 0.0061
 IR Inten    --      0.0584                 0.1111                 0.0920

                      4                      5                      6
                      A                      A                      A
 Frequencies --     72.4119                88.3904                97.8456
 Red. masses --      3.6487                 3.6152                 3.6916
 Frc consts  --      0.0113                 0.0166                 0.0208
 IR Inten    --      0.0150                 0.3217                 0.1098

                      7                      8                      9
                      A                      A                      A
 Frequencies --    138.1876               150.5638               187.4852
 Red. masses --      2.2634                 2.2737                 1.9866
 Frc consts  --      0.0255                 0.0304                 0.0411
 IR Inten    --      0.0592                 0.0411                 0.3825

                     10                     11                     12
                      A                      A                      A
 Frequencies --    210.5231               214.4111               234.5436
 Red. masses --      2.1777                 1.5076                 1.8471
 Frc consts  --      0.0569                 0.0408                 0.0599
 IR Inten    --      0.4409                 0.0970                 0.2493

                     13                     14                     15
                      A                      A                      A
 Frequencies --    274.4902               302.3256               330.2714
 Red. masses --      4.1361                 2.0249                 2.3084
 Frc consts  --      0.1836                 0.1090                 0.1484
 IR Inten    --      2.2137                 1.3945                 0.3265

                     16                     17                     18
                      A                      A                      A
 Frequencies --    374.7733               418.6323               422.0700
 Red. masses --      2.0866                 2.6597                 2.0694
 Frc consts  --      0.1727                 0.2746                 0.2172
 IR Inten    --      1.9972                 2.2736                 1.0916

                     19                     20                     21
                      A                      A                      A
 Frequencies --    459.3095               477.0349               513.1640
 Red. masses --      2.4117                 3.7436                 3.8080
 Frc consts  --      0.2998                 0.5019                 0.5908
 IR Inten    --      0.7471                 7.5669                 0.9208

                     22                     23                     24
                      A                      A                      A
 Frequencies --    564.1679               579.0309               642.1413
 Red. masses --      3.4028                 3.3079                 4.8700
 Frc consts  --      0.6381                 0.6534                 1.1831
 IR Inten    --      1.4697                 2.2599                 4.3415

                     25                     26                     27
                      A                      A                      A
 Frequencies --    686.7964               709.9301               716.6618
 Red. masses --      2.0135                 1.4812                 1.8376
 Frc consts  --      0.5596                 0.4398                 0.5561
 IR Inten    --     28.1378                 4.4872                97.9360

                     28                     29                     30
                      A                      A                      A
 Frequencies --    748.5352               768.3025               778.0771
 Red. masses --      5.8155                 2.3949                 1.5440
 Frc consts  --      1.9198                 0.8329                 0.5507
 IR Inten    --      0.5933                15.9221                 1.9236

                     31                     32                     33
                      A                      A                      A
 Frequencies --    840.1002               843.6860               857.6085
 Red. masses --      1.5030                 1.5297                 1.9701
 Frc consts  --      0.6250                 0.6415                 0.8537
 IR Inten    --      5.1507                11.9640                17.1146

                     34                     35                     36
                      A                      A                      A
 Frequencies --    868.5125               878.9065               891.4120
 Red. masses --      2.1663                 1.7827                 1.5754
 Frc consts  --      0.9628                 0.8114                 0.7375
 IR Inten    --      1.8988                 0.8565                 4.6387

                     37                     38                     39
                      A                      A                      A
 Frequencies --    906.4552               907.7232               937.0220
 Red. masses --      1.5168                 1.3214                 2.8499
 Frc consts  --      0.7343                 0.6415                 1.4743
 IR Inten    --      9.1023                 1.0986                11.8310

                     40                     41                     42
                      A                      A                      A
 Frequencies --    965.3584               985.1436              1042.2849
 Red. masses --      1.7238                 1.5008                 1.9422
 Frc consts  --      0.9465                 0.8582                 1.2432
 IR Inten    --      7.7525                 2.1492                 6.9282

                     43                     44                     45
                      A                      A                      A
 Frequencies --   1050.5744              1060.6001              1072.9333
 Red. masses --      1.5648                 2.1670                 1.6936
 Frc consts  --      1.0176                 1.4362                 1.1487
 IR Inten    --      3.8911                 1.6128                 4.7811

                     46                     47                     48
                      A                      A                      A
 Frequencies --   1091.6708              1102.6737              1119.3945
 Red. masses --      1.6490                 1.6083                 1.2312
 Frc consts  --      1.1579                 1.1521                 0.9090
 IR Inten    --      5.5526                 8.8449                 5.5969

                     49                     50                     51
                      A                      A                      A
 Frequencies --   1123.0429              1145.2163              1151.6969
 Red. masses --      1.4542                 1.7840                 3.0919
 Frc consts  --      1.0806                 1.3785                 2.4163
 IR Inten    --      2.3838                 9.1324                34.2934

                     52                     53                     54
                      A                      A                      A
 Frequencies --   1162.9665              1181.6298              1199.4785
 Red. masses --      1.3710                 3.0453                 2.2284
 Frc consts  --      1.0925                 2.5052                 1.8890
 IR Inten    --      1.0784                67.5001                 1.2061

                     55                     56                     57
                      A                      A                      A
 Frequencies --   1214.3840              1249.0162              1252.1218
 Red. masses --      1.6552                 1.4539                 1.4988
 Frc consts  --      1.4382                 1.3363                 1.3845
 IR Inten    --      1.9452                17.2679                 1.5370

                     58                     59                     60
                      A                      A                      A
 Frequencies --   1271.7462              1288.9182              1309.4750
 Red. masses --      1.3335                 1.2867                 1.2683
 Frc consts  --      1.2707                 1.2594                 1.2813
 IR Inten    --      1.9264                 6.9874                16.0251

                     61                     62                     63
                      A                      A                      A
 Frequencies --   1345.7746              1360.9398              1372.7109
 Red. masses --      1.2772                 1.3672                 1.3033
 Frc consts  --      1.3629                 1.4920                 1.4469
 IR Inten    --      8.8522                 1.3424                 7.8601

                     64                     65                     66
                      A                      A                      A
 Frequencies --   1390.3508              1404.9697              1418.1659
 Red. masses --      1.3490                 1.9752                 1.4027
 Frc consts  --      1.5364                 2.2972                 1.6621
 IR Inten    --     11.8752                 1.4746                 0.7633

                     67                     68                     69
                      A                      A                      A
 Frequencies --   1422.3979              1440.9313              1442.9914
 Red. masses --      1.4358                 1.3665                 1.2444
 Frc consts  --      1.7115                 1.6717                 1.5267
 IR Inten    --      2.3702                 8.0820                 5.6166

                     70                     71                     72
                      A                      A                      A
 Frequencies --   1455.7375              1499.8856              1502.3824
 Red. masses --      1.4566                 1.1372                 4.1385
 Frc consts  --      1.8187                 1.5072                 5.5037
 IR Inten    --      6.3675                 0.2916                 5.5345

                     73                     74                     75
                      A                      A                      A
 Frequencies --   1510.0356              1520.1598              1523.2326
 Red. masses --      1.1438                 1.0686                 1.2662
 Frc consts  --      1.5366                 1.4549                 1.7310
 IR Inten    --      2.9939                 4.8520                16.1572

                     76                     77                     78
                      A                      A                      A
 Frequencies --   1525.9148              1528.9970              1531.3403
 Red. masses --      1.0728                 1.1811                 1.0676
 Frc consts  --      1.4718                 1.6269                 1.4750
 IR Inten    --     13.5145                40.0234                 4.7993

                     79                     80                     81
                      A                      A                      A
 Frequencies --   1536.0718              1540.1272              1597.4502
 Red. masses --      1.1307                 1.0575                 5.2527
 Frc consts  --      1.5719                 1.4779                 7.8974
 IR Inten    --      3.4749                 2.6135                 1.2443

                     82                     83                     84
                      A                      A                      A
 Frequencies --   3024.6627              3038.9424              3041.9894
 Red. masses --      1.0824                 1.0593                 1.0390
 Frc consts  --      5.8342                 5.7636                 5.6649
 IR Inten    --     12.4631                28.0884                22.7511

                     85                     86                     87
                      A                      A                      A
 Frequencies --   3046.1446              3058.2851              3071.8363
 Red. masses --      1.0420                 1.0612                 1.0653
 Frc consts  --      5.6965                 5.8482                 5.9228
 IR Inten    --     65.3704                19.5360                33.7970

                     88                     89                     90
                      A                      A                      A
 Frequencies --   3084.7785              3089.3659              3101.5063
 Red. masses --      1.0996                 1.0995                 1.1024
 Frc consts  --      6.1651                 6.1830                 6.2480
 IR Inten    --     26.2481                 3.7856                29.1444

                     91                     92                     93
                      A                      A                      A
 Frequencies --   3109.0282              3116.2541              3119.3942
 Red. masses --      1.1014                 1.0995                 1.0949
 Frc consts  --      6.2727                 6.2911                 6.2770
 IR Inten    --     47.6616                65.9926                 7.3563

                     94                     95                     96
                      A                      A                      A
 Frequencies --   3121.0853              3127.4482              3139.1752
 Red. masses --      1.0999                 1.0573                 1.0891
 Frc consts  --      6.3128                 6.0929                 6.3231
 IR Inten    --     25.0709                18.9746                29.4058

                     97                     98                     99
                      A                      A                      A
 Frequencies --   3150.8742              3208.1935              3218.1345
 Red. masses --      1.0905                 1.1157                 1.0885
 Frc consts  --      6.3787                 6.7660                 6.6416
 IR Inten    --     35.9975                17.3532                 8.0388

                    100                    101                    102
                      A                      A                      A
 Frequencies --   3234.6690              3271.2609              3500.7411
 Red. masses --      1.0945                 1.0970                 1.0733
 Frc consts  --      6.7470                 6.9167                 7.7496
 IR Inten    --      2.7412                 1.6668                 6.1514

 - Thermochemistry -
 -------------------
 Temperature   298.150 Kelvin.  Pressure   1.00000 Atm.
 Atom     1 has atomic number  6 and mass  12.00000

 Molecular mass:   223.13947 amu.
 Principal axes and moments of inertia in atomic units:
                           1         2         3
     Eigenvalues --  2286.251065730.741557389.97934
           X            0.99971  -0.02389  -0.00136
           Y            0.02390   0.99968   0.00869
           Z            0.00115  -0.00872   0.99996
 This molecule is an asymmetric top.
 Rotational symmetry number  1.
 Warning -- assumption of classical behavior for rotation
           may cause significant error
 Rotational temperatures (Kelvin)      0.03788     0.01511     0.01172
 Rotational constants (GHZ):           0.78939     0.31492     0.24421
 Zero-point vibrational energy     837346.2 (Joules/Mol)
                                  200.13055 (Kcal/Mol)
 Warning -- explicit consideration of  23 degrees of freedom as
           vibrations may cause significant error
 Vibrational temperatures:     44.68    50.40    73.53   104.18   127.17
          (Kelvin)            140.78   198.82   216.63   269.75   302.90
                              308.49   337.46   394.93   434.98   475.19
                              539.22   602.32   607.26   660.84   686.35
                              738.33   811.71   833.10   923.90   988.15
                             1021.43  1031.12  1076.98  1105.42  1119.48
                             1208.72  1213.88  1233.91  1249.60  1264.55
                             1282.54  1304.19  1306.01  1348.17  1388.94
                             1417.40  1499.62  1511.54  1525.97  1543.71
                             1570.67  1586.50  1610.56  1615.81  1647.71
                             1657.03  1673.25  1700.10  1725.78  1747.23
                             1797.06  1801.52  1829.76  1854.47  1884.04
                             1936.27  1958.09  1975.02  2000.40  2021.44
                             2040.42  2046.51  2073.18  2076.14  2094.48
                             2158.00  2161.59  2172.60  2187.17  2191.59
                             2195.45  2199.89  2203.26  2210.06  2215.90
                             2298.37  4351.82  4372.36  4376.74  4382.72
                             4400.19  4419.69  4438.31  4444.91  4462.38
                             4473.20  4483.59  4488.11  4490.55  4499.70
                             4516.57  4533.41  4615.87  4630.18  4653.97
                             4706.61  5036.79

 Zero-point correction=                           0.318928 (Hartree/Particle)
 Thermal correction to Energy=                    0.335187
 Thermal correction to Enthalpy=                  0.336131
 Thermal correction to Gibbs Free Energy=         0.273872
 Sum of electronic and zero-point Energies=           -960.671069
 Sum of electronic and thermal Energies=              -960.654810
 Sum of electronic and thermal Enthalpies=            -960.653866
 Sum of electronic and thermal Free Energies=         -960.716125

                     E (Thermal)             CV                S
                      KCal/Mol        Cal/Mol-Kelvin    Cal/Mol-Kelvin
 Total                  210.333             61.710            131.036
 Electronic               0.000              0.000              0.000
 Translational            0.889              2.981             42.110
 Rotational               0.889              2.981             32.937
 Vibrational            208.555             55.749             55.988
 Vibration     1          0.594              1.983              5.761
 Vibration     2          0.594              1.982              5.522
 Vibration     3          0.595              1.977              4.774
 Vibration     4          0.599              1.967              4.087
 Vibration     5          0.601              1.957              3.695
 Vibration     6          0.603              1.951              3.497
 Vibration     7          0.614              1.915              2.829
 Vibration     8          0.618              1.902              2.665
 Vibration     9          0.632              1.857              2.253
 Vibration    10          0.643              1.825              2.039
 Vibration    11          0.644              1.819              2.006
 Vibration    12          0.654              1.788              1.844
 Vibration    13          0.677              1.720              1.568
 Vibration    14          0.694              1.669              1.404
 Vibration    15          0.713              1.615              1.259
 Vibration    16          0.746              1.524              1.060
 Vibration    17          0.781              1.430              0.897
 Vibration    18          0.784              1.422              0.885
 Vibration    19          0.817              1.340              0.768
 Vibration    20          0.834              1.301              0.718
 Vibration    21          0.868              1.221              0.626
 Vibration    22          0.920              1.109              0.516
 Vibration    23          0.936              1.077              0.487

 Optimization completed.
    -- Stationary point found.
 Normal termination of Gaussian 16 at Thu Dec 10 15:17:39 2020.

 ----------------------------------------------------------------------
 # B3LYP/6-311++G(d,p) empiricaldispersion=gd3bj scf=xqc pop=npa geom=c
 heck
 ----------------------------------------------------------------------

 ---------------------------------------
 CID_115712926_JID_5117_Energie_neutraal
 ---------------------------------------
 Structure from the checkpoint file:  "JID_5117.chk"
 Charge =  0 Multiplicity = 1

 SCF Done:  E(RB3LYP) =  -961.171921450     A.U. after   16 cycles
 Normal termination of Gaussian 16 at Thu Dec 10 15:23:30 2020.

 ----------------------------------------------------------------------
 # B3LYP/6-311++G(d,p) empiricaldispersion=gd3bj scf=xqc pop=npa geom=c
 heck
 ----------------------------------------------------------------------

 -------------------------------------
 CID_115712926_JID_5117_Energie_kation
 -------------------------------------
 Structure from the checkpoint file:  "JID_5117.chk"
 Charge =  1 Multiplicity = 2

 SCF Done:  E(UB3LYP) =  -960.892592722     A.U. after   27 cycles
 Normal termination of Gaussian 16 at Thu Dec 10 15:36:40 2020.
 Gaussian 16:  ES64L-G16RevA.03 25-Dec-2016

 ----------------------------------------------------------------------
 # B3LYP/6-311++G(d,p) empiricaldispersion=gd3bj scf=xqc pop=npa geom=c
 heck
 ----------------------------------------------------------------------

 ------------------------------------
 CID_115712926_JID_5117_Energie_anion
 ------------------------------------
 Structure from the checkpoint file:  "JID_5117.chk"
 Charge = -1 Multiplicity = 2

                         Standard orientation:
 ---------------------------------------------------------------------
 Center     Atomic      Atomic             Coordinates (Angstroms)
 Number     Number       Type             X           Y           Z
 ---------------------------------------------------------------------
      1          6           0       -2.260426    3.079843    0.230369
      2          6           0       -1.283420    2.327043   -0.676322
      3          6           0       -0.161040    1.576629    0.060737
      4          6           0       -0.700717    0.542653    1.098499
      5          6           0       -1.437376   -0.614017    0.490854
      6          6           0       -0.918910   -1.811662    0.063929
      7          6           0       -1.890988   -2.686797   -0.512290
      8          6           0       -3.147028   -2.149183   -0.519925
      9         16           0       -3.157950   -0.558384    0.176570
     10          7           0        0.749253    1.003479   -0.929794
     11          6           0        2.175278    0.986407   -0.616881
     12          6           0        2.632894    0.132915    0.558264
     13          6           0        2.750756   -1.368843    0.421846
     14          6           0        3.994133   -0.530774    0.604651
     15          6           0        5.019022   -0.404091   -0.503613
     16          1           0       -2.875386    2.402254    0.832959
     17          1           0       -2.945764    3.694506   -0.363185
     18          1           0       -1.728666    3.747450    0.920617
     19          1           0       -1.830847    1.617236   -1.308707
     20          1           0       -0.793757    3.027957   -1.361228
     21          1           0        0.412095    2.317585    0.636161
     22          1           0        0.148516    0.139074    1.656256
     23          1           0       -1.335779    1.060019    1.825853
     24          1           0        0.129022   -2.062871    0.182784
     25          1           0       -1.662228   -3.675196   -0.895725
     26          1           0       -4.065045   -2.588646   -0.885325
     27          1           0        0.426611    0.076721   -1.200771
     28          1           0        2.692617    0.660352   -1.526003
     29          1           0        2.486259    2.025725   -0.445984
     30          1           0        2.276781    0.487694    1.523814
     31          1           0        2.415410   -2.006175    1.236004
     32          1           0        2.583406   -1.791110   -0.567866
     33          1           0        4.437974   -0.574110    1.598359
     34          1           0        5.571614    0.540681   -0.432843
     35          1           0        5.746596   -1.222489   -0.446327
     36          1           0        4.559942   -0.447598   -1.496114
 ---------------------------------------------------------------------

 SCF Done:  E(UB3LYP) =  -961.158167936     A.U. after   33 cycles
 SCF Done:  E(UB3LYP) =  -961.158167936     a.u. after    1 cycles

 The electronic state is 2-A.
 Alpha  occ. eigenvalues --  -88.77002 -14.18835 -10.09702 -10.09616 -10.09390
 Alpha  occ. eigenvalues --  -10.09111 -10.07752 -10.07562 -10.07210 -10.06888
 Alpha  occ. eigenvalues --  -10.06810 -10.06664 -10.06462 -10.06296 -10.06118
 Alpha  occ. eigenvalues --   -7.85642  -5.81923  -5.81561  -5.81253  -0.80694
 Alpha  occ. eigenvalues --   -0.77759  -0.75736  -0.68887  -0.65338  -0.63175
 Alpha  occ. eigenvalues --   -0.61746  -0.60218  -0.57464  -0.53736  -0.48781
 Alpha  occ. eigenvalues --   -0.47920  -0.46222  -0.44909  -0.43076  -0.40825
 Alpha  occ. eigenvalues --   -0.39908  -0.37540  -0.36341  -0.35071  -0.33862
 Alpha  occ. eigenvalues --   -0.33201  -0.31366  -0.30895  -0.30542  -0.29870
 Alpha  occ. eigenvalues --   -0.29788  -0.28246  -0.27541  -0.27075  -0.26419
 Alpha  occ. eigenvalues --   -0.26102  -0.25339  -0.24483  -0.23993  -0.22927
 Alpha  occ. eigenvalues --   -0.22140  -0.18187  -0.18135  -0.15460  -0.13574
 Alpha  occ. eigenvalues --   -0.11567   0.04544
 Alpha virt. eigenvalues --    0.06472   0.06810   0.07064   0.07962   0.08333
 Alpha virt. eigenvalues --    0.08584   0.09294   0.09629   0.10076   0.10773
 Alpha virt. eigenvalues --    0.10990   0.11349   0.11565   0.12377   0.12633

  Beta  occ. eigenvalues --  -88.76988 -14.18835 -10.09683 -10.09495 -10.09298
  Beta  occ. eigenvalues --  -10.09101 -10.07756 -10.07547 -10.07204 -10.06872
  Beta  occ. eigenvalues --  -10.06802 -10.06652 -10.06435 -10.06276 -10.06116
  Beta  occ. eigenvalues --   -7.85629  -5.81918  -5.81556  -5.81205  -0.80675
  Beta  occ. eigenvalues --   -0.77651  -0.75693  -0.68838  -0.65231  -0.63105
  Beta  occ. eigenvalues --   -0.61700  -0.60147  -0.57410  -0.53694  -0.48732
  Beta  occ. eigenvalues --   -0.47847  -0.46135  -0.44861  -0.42962  -0.40762
  Beta  occ. eigenvalues --   -0.39843  -0.37478  -0.36312  -0.35046  -0.33831
  Beta  occ. eigenvalues --   -0.33136  -0.31328  -0.30850  -0.30471  -0.29817
  Beta  occ. eigenvalues --   -0.29746  -0.28206  -0.27362  -0.27029  -0.26375
  Beta  occ. eigenvalues --   -0.26035  -0.25290  -0.24431  -0.23907  -0.22884
  Beta  occ. eigenvalues --   -0.22104  -0.18159  -0.18105  -0.15248  -0.13098
  Beta  occ. eigenvalues --   -0.11507
  Beta virt. eigenvalues --    0.06594   0.07015   0.07187   0.07644   0.08426
  Beta virt. eigenvalues --    0.08772   0.09038   0.09681   0.09810   0.10473
  Beta virt. eigenvalues --    0.10982   0.11231   0.11670   0.11813   0.12616

 Mulliken charges and spin densities:
               1          2
     1  C    0.189957  -0.817116
     2  C   -0.723166   0.777403
     3  C   -0.243245  -0.643480
     4  C    1.068383  -0.795481
     5  C   -0.482408   0.600249
     6  C    0.195984  -0.416125
     7  C   -0.394925   0.004515
     8  C   -0.077881  -0.047953
     9  S   -0.335127  -0.002139
    10  N    0.148847   0.052437
    11  C   -0.047600  -0.494300
    12  C    0.093706  -0.041427
    13  C    0.285325  -0.928064
    14  C   -0.363150   0.652042
    15  C    0.722133  -1.401752
    16  H    0.030078   0.095083
    17  H    0.032160   0.096604
    18  H   -0.165614   0.306476
    19  H    0.124697   0.009453
    20  H    0.107603   0.057645
    21  H   -0.105073   0.299341
    22  H   -0.009698   0.196088
    23  H   -0.290967   0.518196
    24  H    0.149027   0.023768
    25  H    0.021060   0.110006
    26  H    0.173932   0.037014
    27  H    0.221800  -0.009091
    28  H    0.083843   0.037706
    29  H   -0.069225   0.236513
    30  H   -0.222103   0.431574
    31  H   -0.160008   0.319431
    32  H    0.125901   0.027897
    33  H   -0.702175   0.913697
    34  H   -0.041664   0.185633
    35  H   -0.273818   0.417442
    36  H   -0.066591   0.190716
 Sum of Mulliken charges =  -1.00000   1.00000

 Dipole moment (field-independent basis, Debye):
    X=             -6.3631    Y=             -1.5685    Z=             -4.8603  Tot=              8.1592
 Quadrupole moment (field-independent basis, Debye-Ang):
   XX=           -184.2039   YY=           -143.4492   ZZ=           -138.4298
   XY=              5.8937   XZ=             -6.1974   YZ=              0.4715

 Summary of Natural Population Analysis:

                                       Natural Population
                Natural  -----------------------------------------------
    Atom  No    Charge         Core      Valence    Rydberg      Total
 -----------------------------------------------------------------------
      C    1   -0.28892      0.99966     2.28439    0.00487     3.28892
      C    2   -0.19482      0.99961     2.18551    0.00969     3.19482
      C    3   -0.00304      0.99958     1.98925    0.01421     3.00304
      C    4   -0.21927      0.99955     2.20723    0.01248     3.21927
      C    5   -0.07445      0.99949     2.06155    0.01341     3.07445
      C    6   -0.14298      0.99945     2.13247    0.01106     3.14298
      C    7   -0.12923      0.99953     2.12018    0.00952     3.12923
      C    8   -0.18988      0.99954     2.17890    0.01144     3.18988
      S    9    0.20119      4.99940     2.77920    0.02021     7.79881
      N   10   -0.34601      0.99973     2.83527    0.01101     3.84601
      C   11   -0.08378      0.99959     2.07187    0.01231     3.08378
      C   12   -0.12431      0.99957     2.11310    0.01164     3.12431
      C   13   -0.20254      0.99959     2.19285    0.01010     3.20254
      C   14   -0.10825      0.99959     2.09755    0.01111     3.10825
      C   15   -0.28581      0.99965     2.27972    0.00644     3.28581
      H   16    0.09680      0.00000     0.40216    0.00104     0.40320
      H   17    0.09638      0.00000     0.40294    0.00067     0.40362
      H   18    0.09767      0.00000     0.40132    0.00101     0.40233
      H   19    0.09767      0.00000     0.40088    0.00144     0.40233
      H   20    0.09938      0.00000     0.39946    0.00115     0.40062
      H   21    0.09383      0.00000     0.40397    0.00220     0.40617
      H   22    0.11418      0.00000     0.38346    0.00235     0.38582
      H   23    0.10836      0.00000     0.39019    0.00145     0.39164
      H   24    0.11131      0.00000     0.38724    0.00145     0.38869
      H   25    0.10316      0.00000     0.39605    0.00079     0.39684
      H   26    0.10435      0.00000     0.39488    0.00077     0.39565
      H   27    0.17785      0.00000     0.31964    0.00251     0.32215
      H   28    0.09178      0.00000     0.40693    0.00129     0.40822
      H   29    0.09381      0.00000     0.40498    0.00121     0.40619
      H   30    0.10467      0.00000     0.39278    0.00255     0.39533
      H   31    0.10543      0.00000     0.39326    0.00131     0.39457
      H   32    0.09617      0.00000     0.40263    0.00120     0.40383
      H   33    0.10380      0.00000     0.39352    0.00268     0.39620
      H   34    0.09992      0.00000     0.39902    0.00106     0.40008
      H   35    0.10055      0.00000     0.39837    0.00108     0.39945
      H   36    0.09500      0.00000     0.40393    0.00106     0.40500
 =======================================================================
   * Total *   -0.00000     18.99354    41.80667    0.19979    61.00000

 Normal termination of Gaussian 16 at Thu Dec 10 15:52:47 2020.
