 Gaussian 16, Revision A.03,

 -----------------------------------------------------------
 # opt freq B3LYP/6-31G(d) empiricaldispersion=gd3bj scf=xqc
 -----------------------------------------------------------

 -------------------------------
 CID_117224317_JID_6569_neutraal
 -------------------------------
 Symbolic Z-matrix:
 Charge =  0 Multiplicity = 1

 SCF Done:  E(RB3LYP) =  -688.406469947     A.U. after   14 cycles
 SCF Done:  E(RB3LYP) =  -688.413053127     A.U. after   12 cycles
 SCF Done:  E(RB3LYP) =  -688.413761137     A.U. after   11 cycles
 SCF Done:  E(RB3LYP) =  -688.414058572     A.U. after   11 cycles
 SCF Done:  E(RB3LYP) =  -688.414190119     A.U. after   11 cycles
 SCF Done:  E(RB3LYP) =  -688.414323110     A.U. after   11 cycles
 SCF Done:  E(RB3LYP) =  -688.414468660     A.U. after   12 cycles
 SCF Done:  E(RB3LYP) =  -688.414614955     A.U. after   12 cycles
 SCF Done:  E(RB3LYP) =  -688.414720145     A.U. after   11 cycles
 SCF Done:  E(RB3LYP) =  -688.414774326     A.U. after   11 cycles
 SCF Done:  E(RB3LYP) =  -688.414846202     A.U. after   10 cycles
 SCF Done:  E(RB3LYP) =  -688.414846551     A.U. after    8 cycles
 SCF Done:  E(RB3LYP) =  -688.414846647     A.U. after    9 cycles
 SCF Done:  E(RB3LYP) =  -688.414846674     A.U. after    7 cycles
 SCF Done:  E(RB3LYP) =  -688.414846678     A.U. after    6 cycles
 Optimization completed.
    -- Stationary point found.
 Normal termination of Gaussian 16 at Thu Dec 10 23:46:50 2020.

 --------------------------------------------------------------------
 #N Geom=AllCheck Guess=TCheck SCRF=Check GenChk RB3LYP/6-31G(d) Freq
 --------------------------------------------------------------------

 Structure from the checkpoint file:  "JID_6569.chk"
 -------------------------------
 CID_117224317_JID_6569_neutraal
 -------------------------------
 Charge =  0 Multiplicity = 1

 SCF Done:  E(RB3LYP) =  -688.414846678     A.U. after    1 cycles

  Exact polarizability: 194.156  -0.566 141.074   7.741  14.795 119.302
 Approx polarizability: 267.081  -5.487 206.141  20.832  33.698 186.625

                      1                      2                      3
                      A                      A                      A
 Frequencies --     16.3815                27.2474                43.3776
 Red. masses --      3.4189                 3.5300                 4.1326
 Frc consts  --      0.0005                 0.0015                 0.0046
 IR Inten    --      0.0088                 0.4160                 0.0781

                      4                      5                      6
                      A                      A                      A
 Frequencies --     82.1125               124.4782               142.3531
 Red. masses --      3.2171                 2.3753                 4.1842
 Frc consts  --      0.0128                 0.0217                 0.0500
 IR Inten    --      0.0228                 0.6456                 5.8234

                      7                      8                      9
                      A                      A                      A
 Frequencies --    152.5929               183.9807               222.1644
 Red. masses --      2.2395                 3.3688                 3.2892
 Frc consts  --      0.0307                 0.0672                 0.0957
 IR Inten    --      1.2137                 1.5298                 1.1359

                     10                     11                     12
                      A                      A                      A
 Frequencies --    241.8111               273.1038               296.7244
 Red. masses --      1.4792                 1.1530                 1.9494
 Frc consts  --      0.0510                 0.0507                 0.1011
 IR Inten    --      1.2760                41.9571                 1.7254

                     13                     14                     15
                      A                      A                      A
 Frequencies --    335.0983               356.8851               385.9372
 Red. masses --      2.4235                 3.9911                 2.2124
 Frc consts  --      0.1603                 0.2995                 0.1942
 IR Inten    --     17.6717                 4.2837                 0.6477

                     16                     17                     18
                      A                      A                      A
 Frequencies --    401.3031               411.0089               461.0854
 Red. masses --      2.1266                 3.1887                 2.6408
 Frc consts  --      0.2018                 0.3174                 0.3308
 IR Inten    --      4.0353                 0.1081                 1.7837

                     19                     20                     21
                      A                      A                      A
 Frequencies --    464.4902               487.9826               530.3359
 Red. masses --      2.7817                 2.3909                 3.4095
 Frc consts  --      0.3536                 0.3354                 0.5650
 IR Inten    --      3.0162                 7.9815                 1.7618

                     22                     23                     24
                      A                      A                      A
 Frequencies --    537.3377               579.8913               625.0505
 Red. masses --      4.6520                 4.2910                 2.3690
 Frc consts  --      0.7914                 0.8502                 0.5453
 IR Inten    --      1.3753                12.5421                 2.3836

                     25                     26                     27
                      A                      A                      A
 Frequencies --    688.9154               734.4082               792.0161
 Red. masses --      3.4530                 3.9714                 1.7496
 Frc consts  --      0.9656                 1.2620                 0.6466
 IR Inten    --      4.1398                 4.9490                 9.5278

                     28                     29                     30
                      A                      A                      A
 Frequencies --    806.9032               811.7339               822.4531
 Red. masses --      1.8332                 3.0004                 1.9625
 Frc consts  --      0.7032                 1.1648                 0.7821
 IR Inten    --      1.9393                 1.0101                28.2133

                     31                     32                     33
                      A                      A                      A
 Frequencies --    823.7331               872.9733               898.6148
 Red. masses --      1.5577                 2.7318                 2.3904
 Frc consts  --      0.6227                 1.2266                 1.1373
 IR Inten    --      1.7379                 5.8835                47.2628

                     34                     35                     36
                      A                      A                      A
 Frequencies --    904.7065               910.1240               952.6381
 Red. masses --      1.7602                 1.4063                 1.7150
 Frc consts  --      0.8489                 0.6863                 0.9170
 IR Inten    --     91.9356                 4.5789                58.5895

                     37                     38                     39
                      A                      A                      A
 Frequencies --    982.1406               991.1802               994.8523
 Red. masses --      2.7015                 1.4157                 1.5176
 Frc consts  --      1.5354                 0.8194                 0.8850
 IR Inten    --      2.2099                 2.1350                 3.9558

                     40                     41                     42
                      A                      A                      A
 Frequencies --    997.6212              1014.4160              1046.5081
 Red. masses --      2.5549                 3.8543                 2.0179
 Frc consts  --      1.4982                 2.3368                 1.3021
 IR Inten    --     58.8486                 3.0069                13.7520

                     43                     44                     45
                      A                      A                      A
 Frequencies --   1063.7895              1083.2125              1101.7626
 Red. masses --      1.8445                 1.7690                 1.9014
 Frc consts  --      1.2298                 1.2229                 1.3599
 IR Inten    --      1.0627                 3.0505                 0.3502

                     46                     47                     48
                      A                      A                      A
 Frequencies --   1118.6130              1124.9044              1135.6834
 Red. masses --      2.0389                 2.0413                 1.6660
 Frc consts  --      1.5031                 1.5219                 1.2660
 IR Inten    --     20.6219                21.6341                18.0295

                     49                     50                     51
                      A                      A                      A
 Frequencies --   1146.9623              1192.1201              1210.4249
 Red. masses --      1.8481                 1.2622                 2.5263
 Frc consts  --      1.4324                 1.0569                 2.1807
 IR Inten    --      1.6182                 3.0717                 9.9533

                     52                     53                     54
                      A                      A                      A
 Frequencies --   1239.3964              1244.9962              1273.5988
 Red. masses --      1.7170                 1.8653                 1.5053
 Frc consts  --      1.5540                 1.7035                 1.4386
 IR Inten    --     16.3199                15.2767                20.0851

                     55                     56                     57
                      A                      A                      A
 Frequencies --   1286.6735              1299.7986              1301.1721
 Red. masses --      3.7004                 1.5026                 1.3422
 Frc consts  --      3.6094                 1.4957                 1.3388
 IR Inten    --     12.7943                 3.6985                14.9078

                     58                     59                     60
                      A                      A                      A
 Frequencies --   1311.1814              1326.4721              1352.9425
 Red. masses --      1.5802                 1.5423                 1.2896
 Frc consts  --      1.6006                 1.5989                 1.3908
 IR Inten    --      4.5353                52.2382                 3.1402

                     61                     62                     63
                      A                      A                      A
 Frequencies --   1378.8820              1386.3862              1387.7466
 Red. masses --      1.4543                 1.2615                 1.3929
 Frc consts  --      1.6291                 1.4286                 1.5805
 IR Inten    --     11.9980                 4.0215                 2.7161

                     64                     65                     66
                      A                      A                      A
 Frequencies --   1392.1721              1399.4923              1405.8764
 Red. masses --      1.4099                 1.4184                 1.6896
 Frc consts  --      1.6100                 1.6368                 1.9675
 IR Inten    --     11.2213                 6.1253               126.3102

                     67                     68                     69
                      A                      A                      A
 Frequencies --   1422.8507              1443.5813              1444.5653
 Red. masses --      1.5405                 1.2630                 1.4705
 Frc consts  --      1.8376                 1.5508                 1.8079
 IR Inten    --      8.9955                 4.0761                 4.3148

                     70                     71                     72
                      A                      A                      A
 Frequencies --   1493.8594              1503.6287              1505.1897
 Red. masses --      2.4966                 1.1757                 1.2310
 Frc consts  --      3.2826                 1.5662                 1.6432
 IR Inten    --     39.9801                47.2300                47.3462

                     73                     74                     75
                      A                      A                      A
 Frequencies --   1507.8718              1512.1482              1519.2584
 Red. masses --      1.1081                 1.1137                 1.1164
 Frc consts  --      1.4844                 1.5004                 1.5182
 IR Inten    --      1.5469                 7.8042                 8.3967

                     76                     77                     78
                      A                      A                      A
 Frequencies --   1519.7773              1531.2784              1535.2381
 Red. masses --      1.1290                 1.0455                 1.0630
 Frc consts  --      1.5365                 1.4443                 1.4761
 IR Inten    --     25.7343                 3.8766                 2.1873

                     79                     80                     81
                      A                      A                      A
 Frequencies --   1559.2018              1609.4253              1644.3910
 Red. masses --      2.5605                 6.3543                 6.2968
 Frc consts  --      3.6676                 9.6975                10.0319
 IR Inten    --    354.0578               174.4779               474.1029

                     82                     83                     84
                      A                      A                      A
 Frequencies --   1695.6184              3009.5783              3025.9110
 Red. masses --      1.0908                 1.0828                 1.0629
 Frc consts  --      1.8477                 5.7783                 5.7339
 IR Inten    --     25.8847                13.0976                30.4817

                     85                     86                     87
                      A                      A                      A
 Frequencies --   3031.8832              3037.0496              3044.5077
 Red. masses --      1.0675                 1.0727                 1.0412
 Frc consts  --      5.7814                 5.8293                 5.6860
 IR Inten    --      8.2944                 9.9072                28.4448

                     88                     89                     90
                      A                      A                      A
 Frequencies --   3044.6776              3046.8990              3054.4912
 Red. masses --      1.0714                 1.0567                 1.0611
 Frc consts  --      5.8515                 5.7801                 5.8328
 IR Inten    --     93.8655                14.7407                41.6055

                     91                     92                     93
                      A                      A                      A
 Frequencies --   3073.5580              3085.7535              3095.7792
 Red. masses --      1.1026                 1.1023                 1.1016
 Frc consts  --      6.1371                 6.1842                 6.2206
 IR Inten    --     88.9915                 8.2100                11.3331

                     94                     95                     96
                      A                      A                      A
 Frequencies --   3099.0157              3114.0775              3120.1536
 Red. masses --      1.0978                 1.1013                 1.1029
 Frc consts  --      6.2117                 6.2926                 6.3259
 IR Inten    --     51.3303                51.1270                58.2599

                     97                     98                     99
                      A                      A                      A
 Frequencies --   3160.8183              3179.0828              3180.5055
 Red. masses --      1.0903                 1.0917                 1.0916
 Frc consts  --      6.4181                 6.5008                 6.5060
 IR Inten    --     39.8245                 3.2520                 3.2140

                    100                    101                    102
                      A                      A                      A
 Frequencies --   3226.2736              3441.8464              3527.1305
 Red. masses --      1.0937                 1.0494                 1.0916
 Frc consts  --      6.7073                 7.3248                 8.0012
 IR Inten    --      9.4989                 3.1752                 2.1349

 - Thermochemistry -
 -------------------
 Temperature   298.150 Kelvin.  Pressure   1.00000 Atm.
 Atom     1 has atomic number  6 and mass  12.00000

 Molecular mass:   220.16880 amu.
 Principal axes and moments of inertia in atomic units:
                           1         2         3
     Eigenvalues --  2195.727165443.355446500.41885
           X            0.99981  -0.01953   0.00200
           Y            0.01953   0.99981  -0.00057
           Z           -0.00199   0.00061   1.00000
 This molecule is an asymmetric top.
 Rotational symmetry number  1.
 Warning -- assumption of classical behavior for rotation
           may cause significant error
 Rotational temperatures (Kelvin)      0.03945     0.01591     0.01332
 Rotational constants (GHZ):           0.82193     0.33155     0.27763
 Zero-point vibrational energy     841212.9 (Joules/Mol)
                                  201.05470 (Kcal/Mol)
 Warning -- explicit consideration of  23 degrees of freedom as
           vibrations may cause significant error
 Vibrational temperatures:     23.57    39.20    62.41   118.14   179.10
          (Kelvin)            204.81   219.55   264.71   319.65   347.91
                              392.94   426.92   482.13   513.48   555.28
                              577.39   591.35   663.40   668.30   702.10
                              763.04   773.11   834.33   899.31   991.20
                             1056.65  1139.53  1160.95  1167.90  1183.33
                             1185.17  1256.01  1292.91  1301.67  1309.47
                             1370.63  1413.08  1426.09  1431.37  1435.35
                             1459.52  1505.69  1530.56  1558.50  1585.19
                             1609.43  1618.49  1634.00  1650.22  1715.19
                             1741.53  1783.22  1791.27  1832.42  1851.24
                             1870.12  1872.10  1886.50  1908.50  1946.58
                             1983.90  1994.70  1996.66  2003.03  2013.56
                             2022.74  2047.16  2076.99  2078.41  2149.33
                             2163.39  2165.63  2169.49  2175.64  2185.87
                             2186.62  2203.17  2208.87  2243.34  2315.60
                             2365.91  2439.62  4330.11  4353.61  4362.20
                             4369.64  4380.37  4380.61  4383.81  4394.73
                             4422.16  4439.71  4454.14  4458.79  4480.46
                             4489.21  4547.71  4573.99  4576.04  4641.89
                             4952.05  5074.75

 Zero-point correction=                           0.320401 (Hartree/Particle)
 Thermal correction to Energy=                    0.335737
 Thermal correction to Enthalpy=                  0.336681
 Thermal correction to Gibbs Free Energy=         0.276039
 Sum of electronic and zero-point Energies=           -688.094446
 Sum of electronic and thermal Energies=              -688.079110
 Sum of electronic and thermal Enthalpies=            -688.078166
 Sum of electronic and thermal Free Energies=         -688.138807

                     E (Thermal)             CV                S
                      KCal/Mol        Cal/Mol-Kelvin    Cal/Mol-Kelvin
 Total                  210.678             59.308            127.631
 Electronic               0.000              0.000              0.000
 Translational            0.889              2.981             42.071
 Rotational               0.889              2.981             32.719
 Vibrational            208.901             53.346             52.842
 Vibration     1          0.593              1.986              7.031
 Vibration     2          0.593              1.984              6.020
 Vibration     3          0.595              1.980              5.099
 Vibration     4          0.600              1.961              3.840
 Vibration     5          0.610              1.929              3.030
 Vibration     6          0.616              1.911              2.772
 Vibration     7          0.619              1.900              2.640
 Vibration     8          0.631              1.862              2.288
 Vibration     9          0.648              1.807              1.941
 Vibration    10          0.658              1.776              1.790
 Vibration    11          0.676              1.723              1.576
 Vibration    12          0.690              1.680              1.435
 Vibration    13          0.716              1.605              1.235
 Vibration    14          0.732              1.561              1.136
 Vibration    15          0.755              1.500              1.016
 Vibration    16          0.767              1.467              0.958
 Vibration    17          0.775              1.446              0.923
 Vibration    18          0.819              1.336              0.763
 Vibration    19          0.822              1.329              0.753
 Vibration    20          0.844              1.277              0.689
 Vibration    21          0.885              1.183              0.586
 Vibration    22          0.892              1.167              0.571
 Vibration    23          0.937              1.075              0.486

 Optimization completed.
    -- Stationary point found.
 Normal termination of Gaussian 16 at Thu Dec 10 23:59:23 2020.

 ----------------------------------------------------------------------
 # B3LYP/6-311++G(d,p) empiricaldispersion=gd3bj scf=xqc pop=npa geom=c
 heck
 ----------------------------------------------------------------------

 ---------------------------------------
 CID_117224317_JID_6569_Energie_neutraal
 ---------------------------------------
 Structure from the checkpoint file:  "JID_6569.chk"
 Charge =  0 Multiplicity = 1

 SCF Done:  E(RB3LYP) =  -688.603726922     A.U. after   14 cycles
 Normal termination of Gaussian 16 at Fri Dec 11 00:04:58 2020.

 ----------------------------------------------------------------------
 # B3LYP/6-311++G(d,p) empiricaldispersion=gd3bj scf=xqc pop=npa geom=c
 heck
 ----------------------------------------------------------------------

 -------------------------------------
 CID_117224317_JID_6569_Energie_kation
 -------------------------------------
 Structure from the checkpoint file:  "JID_6569.chk"
 Charge =  1 Multiplicity = 2

 SCF Done:  E(UB3LYP) =  -688.327365977     A.U. after   24 cycles
 Normal termination of Gaussian 16 at Fri Dec 11 00:17:21 2020.
 Gaussian 16:  ES64L-G16RevA.03 25-Dec-2016

 ----------------------------------------------------------------------
 # B3LYP/6-311++G(d,p) empiricaldispersion=gd3bj scf=xqc pop=npa geom=c
 heck
 ----------------------------------------------------------------------

 ------------------------------------
 CID_117224317_JID_6569_Energie_anion
 ------------------------------------
 Structure from the checkpoint file:  "JID_6569.chk"
 Charge = -1 Multiplicity = 2

                         Standard orientation:
 ---------------------------------------------------------------------
 Center     Atomic      Atomic             Coordinates (Angstroms)
 Number     Number       Type             X           Y           Z
 ---------------------------------------------------------------------
      1          6           0       -3.111994    2.111740   -1.262649
      2          6           0       -3.114165    1.980885    0.261866
      3          6           0       -3.413976    0.549558    0.744635
      4          6           0       -2.356014   -0.432413    0.304932
      5          7           0       -1.119713   -0.209698    0.762327
      6          6           0       -0.146446   -1.054257    0.363461
      7          7           0       -0.314161   -2.100422   -0.479384
      8          6           0       -1.554843   -2.299540   -0.917435
      9          6           0       -2.634657   -1.495808   -0.558728
     10          7           0        1.112955   -0.847449    0.865999
     11          6           0        2.269633   -1.505578    0.264212
     12          6           0        2.939441   -0.572187   -0.755155
     13          6           0        3.306277    0.786157   -0.126475
     14          6           0        2.084441    1.396841    0.571045
     15          6           0        1.443310    0.402252    1.547664
     16          7           0        3.875621    1.764211   -1.059855
     17          1           0       -2.345808    1.470859   -1.712972
     18          1           0       -2.909861    3.143432   -1.570662
     19          1           0       -4.080272    1.818812   -1.687341
     20          1           0       -2.138369    2.278181    0.662062
     21          1           0       -3.859941    2.660132    0.693430
     22          1           0       -3.456791    0.543236    1.840774
     23          1           0       -4.393928    0.224897    0.374510
     24          1           0       -1.689393   -3.142012   -1.595435
     25          1           0       -3.633466   -1.676039   -0.938741
     26          1           0        1.940509   -2.434226   -0.197754
     27          1           0        2.974470   -1.747485    1.071326
     28          1           0        2.243973   -0.408606   -1.590648
     29          1           0        3.838105   -1.050441   -1.168071
     30          1           0        4.072632    0.604450    0.642626
     31          1           0        2.381172    2.314158    1.091346
     32          1           0        1.334341    1.676591   -0.182947
     33          1           0        0.534692    0.807037    1.988503
     34          1           0        2.147568    0.164176    2.356215
     35          1           0        4.691535    1.359513   -1.519515
     36          1           0        3.199883    1.940936   -1.804554
 ---------------------------------------------------------------------

 SCF Done:  E(UB3LYP) =  -688.593225786     A.U. after   33 cycles
 SCF Done:  E(UB3LYP) =  -688.593225786     a.u. after    1 cycles

 The electronic state is 2-A.
 Alpha  occ. eigenvalues --  -14.22229 -14.19617 -14.17519 -14.17509 -10.14972
 Alpha  occ. eigenvalues --  -10.10049 -10.09469 -10.09455 -10.08892 -10.08829
 Alpha  occ. eigenvalues --  -10.06626 -10.06487 -10.05893 -10.05823 -10.05442
 Alpha  occ. eigenvalues --  -10.05019  -0.88429  -0.82074  -0.79046  -0.76516
 Alpha  occ. eigenvalues --   -0.69302  -0.67290  -0.65840  -0.64311  -0.59050
 Alpha  occ. eigenvalues --   -0.56365  -0.54072  -0.51515  -0.50031  -0.47759
 Alpha  occ. eigenvalues --   -0.45964  -0.42171  -0.39613  -0.38768  -0.36877
 Alpha  occ. eigenvalues --   -0.35484  -0.35309  -0.34755  -0.34398  -0.33780
 Alpha  occ. eigenvalues --   -0.32564  -0.30768  -0.30630  -0.29291  -0.28792
 Alpha  occ. eigenvalues --   -0.28269  -0.27532  -0.26738  -0.25483  -0.24422
 Alpha  occ. eigenvalues --   -0.23703  -0.23109  -0.22716  -0.22569  -0.19414
 Alpha  occ. eigenvalues --   -0.18736  -0.17903  -0.14849  -0.12399  -0.10288
 Alpha  occ. eigenvalues --    0.04501
 Alpha virt. eigenvalues --    0.05909   0.07030   0.07628   0.07944   0.08656
 Alpha virt. eigenvalues --    0.08881   0.09206   0.10110   0.10694   0.10944
 Alpha virt. eigenvalues --    0.11096   0.11434   0.11728   0.12056   0.12592

  Beta  occ. eigenvalues --  -14.22237 -14.19588 -14.17410 -14.17334 -10.14990
  Beta  occ. eigenvalues --  -10.10042 -10.09465 -10.09452 -10.08667 -10.08656
  Beta  occ. eigenvalues --  -10.06622 -10.06465 -10.05861 -10.05832 -10.05425
  Beta  occ. eigenvalues --  -10.05081  -0.88296  -0.81950  -0.78992  -0.76161
  Beta  occ. eigenvalues --   -0.69171  -0.67241  -0.65817  -0.64186  -0.58921
  Beta  occ. eigenvalues --   -0.56335  -0.53985  -0.51286  -0.49974  -0.47672
  Beta  occ. eigenvalues --   -0.45888  -0.42114  -0.39465  -0.38720  -0.36791
  Beta  occ. eigenvalues --   -0.35442  -0.35247  -0.34664  -0.34286  -0.33717
  Beta  occ. eigenvalues --   -0.32510  -0.30655  -0.30493  -0.29155  -0.28686
  Beta  occ. eigenvalues --   -0.28122  -0.27438  -0.26681  -0.25464  -0.24218
  Beta  occ. eigenvalues --   -0.23676  -0.23058  -0.22641  -0.22535  -0.18972
  Beta  occ. eigenvalues --   -0.18394  -0.17146  -0.14804  -0.12230  -0.10018
  Beta virt. eigenvalues --    0.06705   0.07122   0.07725   0.08016   0.08599
  Beta virt. eigenvalues --    0.09027   0.09121   0.09523   0.10242   0.10898
  Beta virt. eigenvalues --    0.11166   0.11361   0.11402   0.11875   0.12087

 Mulliken charges and spin densities:
               1          2
     1  C   -0.074549  -0.566562
     2  C    0.012859  -0.092858
     3  C    0.132605  -0.563945
     4  C    0.061123   0.647371
     5  N   -0.111726   0.083083
     6  C   -0.404613  -0.129485
     7  N   -0.181918   0.111521
     8  C    0.023077   0.031702
     9  C   -0.121128  -0.501740
    10  N    0.211836   0.008513
    11  C    0.016461  -0.408661
    12  C   -0.497026   0.512934
    13  C    0.631387  -1.390800
    14  C   -0.157300   0.066613
    15  C   -0.338861  -0.043400
    16  N   -0.367064   0.127595
    17  H    0.079306   0.067860
    18  H   -0.078856   0.206062
    19  H    0.036450   0.085729
    20  H    0.124946   0.005547
    21  H   -0.374020   0.521467
    22  H   -0.077539   0.249804
    23  H   -0.126598   0.265598
    24  H    0.077829   0.060627
    25  H    0.011697   0.124967
    26  H    0.225452   0.009502
    27  H    0.031000   0.099054
    28  H    0.141437   0.005320
    29  H   -0.438006   0.603491
    30  H    0.052939   0.110543
    31  H    0.094418   0.079080
    32  H    0.218934  -0.039079
    33  H    0.163264   0.087444
    34  H    0.097652   0.026009
    35  H   -0.130868   0.362015
    36  H    0.035404   0.177081
 Sum of Mulliken charges =  -1.00000   1.00000

 Dipole moment (field-independent basis, Debye):
    X=             -0.0947    Y=             -2.0453    Z=              0.8336  Tot=              2.2107
 Quadrupole moment (field-independent basis, Debye-Ang):
   XX=           -182.7330   YY=           -139.8217   ZZ=           -123.2203
   XY=              3.8453   XZ=             15.0233   YZ=              0.0256

 Summary of Natural Population Analysis:

                                       Natural Population
                Natural  -----------------------------------------------
    Atom  No    Charge         Core      Valence    Rydberg      Total
 -----------------------------------------------------------------------
      C    1   -0.28814      0.99967     2.28245    0.00602     3.28814
      C    2   -0.18557      0.99964     2.17786    0.00807     3.18557
      C    3   -0.20531      0.99960     2.19529    0.01042     3.20531
      C    4    0.17105      0.99955     1.81451    0.01489     2.82895
      N    5   -0.27841      0.99963     2.76905    0.00972     3.77841
      C    6    0.30864      0.99957     1.67432    0.01747     2.69136
      N    7   -0.26190      0.99967     2.75217    0.01006     3.76190
      C    8    0.07852      0.99960     1.90732    0.01456     2.92148
      C    9   -0.18625      0.99949     2.17910    0.00765     3.18625
      N   10   -0.25078      0.99964     2.74031    0.01083     3.75078
      C   11   -0.08586      0.99961     2.07562    0.01063     3.08586
      C   12   -0.20480      0.99961     2.19510    0.01010     3.20480
      C   13   -0.01462      0.99959     2.00261    0.01242     3.01462
      C   14   -0.19781      0.99960     2.19046    0.00775     3.19781
      C   15   -0.08482      0.99961     2.07598    0.00923     3.08482
      N   16   -0.42004      0.99977     2.90977    0.01050     3.92004
      H   17    0.10042      0.00000     0.39856    0.00102     0.39958
      H   18    0.09602      0.00000     0.40326    0.00072     0.40398
      H   19    0.09284      0.00000     0.40623    0.00093     0.40716
      H   20    0.10005      0.00000     0.39844    0.00151     0.39995
      H   21    0.09358      0.00000     0.40463    0.00179     0.40642
      H   22    0.10890      0.00000     0.38959    0.00151     0.39110
      H   23    0.09416      0.00000     0.40478    0.00106     0.40584
      H   24    0.08167      0.00000     0.41729    0.00104     0.41833
      H   25    0.10125      0.00000     0.39775    0.00100     0.39875
      H   26    0.11849      0.00000     0.37995    0.00156     0.38151
      H   27    0.08706      0.00000     0.41185    0.00110     0.41294
      H   28    0.09794      0.00000     0.40061    0.00145     0.40206
      H   29    0.09889      0.00000     0.39923    0.00189     0.40111
      H   30    0.08400      0.00000     0.41388    0.00212     0.41600
      H   31    0.10196      0.00000     0.39698    0.00106     0.39804
      H   32    0.09791      0.00000     0.40073    0.00136     0.40209
      H   33    0.11907      0.00000     0.37971    0.00122     0.38093
      H   34    0.08666      0.00000     0.41224    0.00110     0.41334
      H   35    0.17506      0.00000     0.32256    0.00238     0.32494
      H   36    0.17019      0.00000     0.32797    0.00184     0.32981
 =======================================================================
   * Total *   -0.00000     15.99385    43.80815    0.19800    60.00000

 Normal termination of Gaussian 16 at Fri Dec 11 00:34:27 2020.
