 Gaussian 16, Revision A.03,

 -----------------------------------------------------------
 # opt freq B3LYP/6-31G(d) empiricaldispersion=gd3bj scf=xqc
 -----------------------------------------------------------

 ------------------------------
 CID_64881940_JID_4763_neutraal
 ------------------------------
 Symbolic Z-matrix:
 Charge =  0 Multiplicity = 1

 SCF Done:  E(RB3LYP) =  -582.496267818     A.U. after   12 cycles
 SCF Done:  E(RB3LYP) =  -582.498644295     A.U. after   10 cycles
 SCF Done:  E(RB3LYP) =  -582.498473536     A.U. after   10 cycles
 SCF Done:  E(RB3LYP) =  -582.499205145     A.U. after   10 cycles
 SCF Done:  E(RB3LYP) =  -582.499227306     A.U. after   10 cycles
 SCF Done:  E(RB3LYP) =  -582.499251182     A.U. after    8 cycles
 SCF Done:  E(RB3LYP) =  -582.499251945     A.U. after    8 cycles
 SCF Done:  E(RB3LYP) =  -582.499253504     A.U. after    7 cycles
 SCF Done:  E(RB3LYP) =  -582.499253761     A.U. after    6 cycles
 SCF Done:  E(RB3LYP) =  -582.499253853     A.U. after    6 cycles
 SCF Done:  E(RB3LYP) =  -582.499253916     A.U. after    6 cycles
 Optimization completed.
    -- Stationary point found.
 Normal termination of Gaussian 16 at Thu Dec 10 10:36:58 2020.

 --------------------------------------------------------------------
 #N Geom=AllCheck Guess=TCheck SCRF=Check GenChk RB3LYP/6-31G(d) Freq
 --------------------------------------------------------------------

 Structure from the checkpoint file:  "JID_4763.chk"
 ------------------------------
 CID_64881940_JID_4763_neutraal
 ------------------------------
 Charge =  0 Multiplicity = 1

 SCF Done:  E(RB3LYP) =  -582.499253916     A.U. after    1 cycles

  Exact polarizability: 166.754   2.130 125.316  -1.481   1.120 123.387
 Approx polarizability: 195.031   3.827 182.160  -1.966   0.838 192.870

                      1                      2                      3
                      A                      A                      A
 Frequencies --     35.2487                46.0145                50.4894
 Red. masses --      3.0878                 2.7308                 2.8479
 Frc consts  --      0.0023                 0.0034                 0.0043
 IR Inten    --      0.1710                 0.0065                 0.0079

                      4                      5                      6
                      A                      A                      A
 Frequencies --     98.4375               144.6418               195.1964
 Red. masses --      2.8743                 2.9811                 2.8364
 Frc consts  --      0.0164                 0.0367                 0.0637
 IR Inten    --      0.3455                 0.0588                 2.0121

                      7                      8                      9
                      A                      A                      A
 Frequencies --    223.5259               226.5777               231.8519
 Red. masses --      1.3333                 1.5874                 1.1464
 Frc consts  --      0.0393                 0.0480                 0.0363
 IR Inten    --      0.1901                 0.7009                 0.0552

                     10                     11                     12
                      A                      A                      A
 Frequencies --    246.4297               258.9969               271.7686
 Red. masses --      1.5626                 1.2572                 1.5515
 Frc consts  --      0.0559                 0.0497                 0.0675
 IR Inten    --      0.1610                 0.4222                 3.0941

                     13                     14                     15
                      A                      A                      A
 Frequencies --    293.0869               299.5233               320.4552
 Red. masses --      2.0701                 1.9070                 2.1207
 Frc consts  --      0.1048                 0.1008                 0.1283
 IR Inten    --      0.6548                 1.5147                 0.7236

                     16                     17                     18
                      A                      A                      A
 Frequencies --    336.6674               359.7712               364.9730
 Red. masses --      1.2984                 2.2246                 2.1804
 Frc consts  --      0.0867                 0.1696                 0.1711
 IR Inten    --      4.0241                 2.9118                 0.8241

                     19                     20                     21
                      A                      A                      A
 Frequencies --    398.7759               410.4603               432.6402
 Red. masses --      2.2301                 2.0723                 2.3350
 Frc consts  --      0.2089                 0.2057                 0.2575
 IR Inten    --      0.3988                 0.9586                 0.2971

                     22                     23                     24
                      A                      A                      A
 Frequencies --    445.2788               473.0821               481.5824
 Red. masses --      2.3801                 2.4429                 2.3411
 Frc consts  --      0.2780                 0.3221                 0.3199
 IR Inten    --      0.4383                 6.1794                 1.7892

                     25                     26                     27
                      A                      A                      A
 Frequencies --    515.7227               580.0154               662.2312
 Red. masses --      3.1078                 2.5000                 2.6102
 Frc consts  --      0.4870                 0.4955                 0.6744
 IR Inten    --      5.9640                 2.5010                11.5045

                     28                     29                     30
                      A                      A                      A
 Frequencies --    735.4913               794.0705               809.7102
 Red. masses --      1.9923                 1.9838                 1.9224
 Frc consts  --      0.6350                 0.7370                 0.7426
 IR Inten    --     18.1814               140.6848                24.8634

                     31                     32                     33
                      A                      A                      A
 Frequencies --    837.9019               846.8656               854.4727
 Red. masses --      2.3717                 2.3106                 2.4457
 Frc consts  --      0.9811                 0.9763                 1.0521
 IR Inten    --     27.3803                 4.4953                 1.9972

                     34                     35                     36
                      A                      A                      A
 Frequencies --    895.2774               939.9711               941.0602
 Red. masses --      1.9875                 1.3943                 1.5024
 Frc consts  --      0.9386                 0.7258                 0.7839
 IR Inten    --      0.1559                 5.1433                 0.0897

                     37                     38                     39
                      A                      A                      A
 Frequencies --    949.2750               964.4703               971.1238
 Red. masses --      1.6936                 1.8714                 1.5768
 Frc consts  --      0.8992                 1.0256                 0.8761
 IR Inten    --      0.8093                 0.1961                 7.8425

                     40                     41                     42
                      A                      A                      A
 Frequencies --    972.9600               977.0167               983.3415
 Red. masses --      1.2919                 1.5386                 2.0874
 Frc consts  --      0.7205                 0.8654                 1.1892
 IR Inten    --      2.6123                 0.3377                 3.6607

                     43                     44                     45
                      A                      A                      A
 Frequencies --   1026.9879              1046.1987              1050.3226
 Red. masses --      1.9424                 1.6808                 1.6491
 Frc consts  --      1.2070                 1.0839                 1.0718
 IR Inten    --      9.9813                 1.2728                 4.8907

                     46                     47                     48
                      A                      A                      A
 Frequencies --   1062.0834              1106.8469              1115.2233
 Red. masses --      1.4989                 1.7333                 2.4851
 Frc consts  --      0.9962                 1.2511                 1.8210
 IR Inten    --      8.0660                 0.9876                 7.7400

                     49                     50                     51
                      A                      A                      A
 Frequencies --   1150.3835              1164.0070              1169.8496
 Red. masses --      4.1095                 2.5958                 2.3017
 Frc consts  --      3.2043                 2.0722                 1.8559
 IR Inten    --     65.9306                 2.7574                 6.9192

                     52                     53                     54
                      A                      A                      A
 Frequencies --   1192.4696              1209.6256              1235.4851
 Red. masses --      2.3418                 1.7958                 1.7739
 Frc consts  --      1.9620                 1.5482                 1.5953
 IR Inten    --      1.4266                 3.5188                 2.4633

                     55                     56                     57
                      A                      A                      A
 Frequencies --   1242.5835              1254.7791              1270.0681
 Red. masses --      1.5628                 1.5166                 1.9492
 Frc consts  --      1.4217                 1.4068                 1.8525
 IR Inten    --      6.3773                12.6111                 0.6400

                     58                     59                     60
                      A                      A                      A
 Frequencies --   1285.6760              1322.7020              1339.3357
 Red. masses --      2.2165                 1.2923                 1.3380
 Frc consts  --      2.1587                 1.3321                 1.4141
 IR Inten    --      1.9966                 6.4754                 1.2768

                     61                     62                     63
                      A                      A                      A
 Frequencies --   1349.6738              1357.6536              1379.2188
 Red. masses --      1.3262                 1.3681                 1.3884
 Frc consts  --      1.4233                 1.4858                 1.5561
 IR Inten    --      2.6467                 0.5924                 2.2173

                     64                     65                     66
                      A                      A                      A
 Frequencies --   1380.8593              1402.7087              1408.6949
 Red. masses --      1.2847                 1.3222                 1.3574
 Frc consts  --      1.4433                 1.5327                 1.5870
 IR Inten    --      1.2367                10.6025                 0.2483

                     67                     68                     69
                      A                      A                      A
 Frequencies --   1419.0757              1426.8525              1428.3082
 Red. masses --      1.3674                 1.3017                 1.2420
 Frc consts  --      1.6224                 1.5614                 1.4929
 IR Inten    --      5.1155                 2.6490                 5.3810

                     70                     71                     72
                      A                      A                      A
 Frequencies --   1430.0157              1432.7912              1451.4594
 Red. masses --      1.2656                 1.3039                 1.2316
 Frc consts  --      1.5249                 1.5771                 1.5288
 IR Inten    --      0.9484                 3.4770                 4.5926

                     73                     74                     75
                      A                      A                      A
 Frequencies --   1459.8059              1503.6697              1505.7087
 Red. masses --      1.2211                 1.0890                 1.1672
 Frc consts  --      1.5332                 1.4507                 1.5591
 IR Inten    --     16.2302                 4.2068                20.8451

                     76                     77                     78
                      A                      A                      A
 Frequencies --   1507.5030              1512.6154              1515.3544
 Red. masses --      1.0723                 1.0719                 1.0589
 Frc consts  --      1.4358                 1.4449                 1.4326
 IR Inten    --      7.0705                 0.2768                 1.3331

                     79                     80                     81
                      A                      A                      A
 Frequencies --   1516.9047              1520.4591              1520.8041
 Red. masses --      1.0728                 1.0641                 1.0534
 Frc consts  --      1.4543                 1.4493                 1.4355
 IR Inten    --      1.2764                 0.5981                 3.0161

                     82                     83                     84
                      A                      A                      A
 Frequencies --   1524.0222              1529.8045              1536.5222
 Red. masses --      1.1341                 1.0682                 1.0585
 Frc consts  --      1.5520                 1.4730                 1.4724
 IR Inten    --      4.2275                 2.9804                 0.3031

                     85                     86                     87
                      A                      A                      A
 Frequencies --   1537.1066              1541.6886              1548.0486
 Red. masses --      1.0558                 1.0497                 1.0725
 Frc consts  --      1.4698                 1.4700                 1.5143
 IR Inten    --      5.9514                 5.9507                12.3151

                     88                     89                     90
                      A                      A                      A
 Frequencies --   1551.6144              2985.3092              3004.6514
 Red. masses --      1.0626                 1.0821                 1.0767
 Frc consts  --      1.5072                 5.6821                 5.7272
 IR Inten    --      8.3102                15.0785                 3.6265

                     91                     92                     93
                      A                      A                      A
 Frequencies --   3014.9987              3018.0348              3033.9282
 Red. masses --      1.0742                 1.0755                 1.0731
 Frc consts  --      5.7535                 5.7719                 5.8199
 IR Inten    --     42.9308                19.6261                63.1659

                     94                     95                     96
                      A                      A                      A
 Frequencies --   3037.1297              3040.9134              3041.7067
 Red. masses --      1.0361                 1.0443                 1.0423
 Frc consts  --      5.6311                 5.6894                 5.6817
 IR Inten    --     26.1841                12.4394                40.6389

                     97                     98                     99
                      A                      A                      A
 Frequencies --   3044.6150              3046.1050              3052.2051
 Red. masses --      1.0410                 1.0473                 1.0419
 Frc consts  --      5.6856                 5.7256                 5.7185
 IR Inten    --      7.7338               103.0846                15.6477

                    100                    101                    102
                      A                      A                      A
 Frequencies --   3075.8999              3087.5955              3089.5366
 Red. masses --      1.0942                 1.0963                 1.1031
 Frc consts  --      6.0997                 6.1575                 6.2036
 IR Inten    --     24.6583                36.2467                65.6792

                    103                    104                    105
                      A                      A                      A
 Frequencies --   3098.9646              3099.2647              3102.8947
 Red. masses --      1.1013                 1.1015                 1.1021
 Frc consts  --      6.2314                 6.2340                 6.2515
 IR Inten    --     17.4029                 4.3344                 7.5130

                    106                    107                    108
                      A                      A                      A
 Frequencies --   3106.4353              3110.7267              3112.3431
 Red. masses --      1.1008                 1.1014                 1.1025
 Frc consts  --      6.2585                 6.2792                 6.2922
 IR Inten    --     78.0453                77.6035                41.7785

                    109                    110                    111
                      A                      A                      A
 Frequencies --   3114.1958              3132.9992              3134.8659
 Red. masses --      1.1003                 1.0984                 1.0988
 Frc consts  --      6.2872                 6.3523                 6.3624
 IR Inten    --     52.7266                34.9849                21.8725

                    112                    113                    114
                      A                      A                      A
 Frequencies --   3148.4475              3488.9575              3502.4665
 Red. masses --      1.0980                 1.0744                 1.0726
 Frc consts  --      6.4129                 7.7055                 7.7521
 IR Inten    --     30.2555                 1.3805                 1.0318

 - Thermochemistry -
 -------------------
 Temperature   298.150 Kelvin.  Pressure   1.00000 Atm.
 Atom     1 has atomic number  6 and mass  12.00000

 Molecular mass:   198.20960 amu.
 Principal axes and moments of inertia in atomic units:
                           1         2         3
     Eigenvalues --  1237.568875663.342746000.64359
           X            1.00000   0.00266  -0.00122
           Y           -0.00264   0.99979   0.02048
           Z            0.00128  -0.02047   0.99979
 This molecule is an asymmetric top.
 Rotational symmetry number  1.
 Warning -- assumption of classical behavior for rotation
           may cause significant error
 Rotational temperatures (Kelvin)      0.06999     0.01529     0.01443
 Rotational constants (GHZ):           1.45830     0.31867     0.30076
 Zero-point vibrational energy     987189.6 (Joules/Mol)
                                  235.94398 (Kcal/Mol)
 Warning -- explicit consideration of  26 degrees of freedom as
           vibrations may cause significant error
 Vibrational temperatures:     50.72    66.20    72.64   141.63   208.11
          (Kelvin)            280.84   321.60   325.99   333.58   354.56
                              372.64   391.01   421.69   430.95   461.06
                              484.39   517.63   525.11   573.75   590.56
                              622.47   640.66   680.66   692.89   742.01
                              834.51   952.80  1058.21  1142.49  1164.99
                             1205.55  1218.45  1229.40  1288.10  1352.41
                             1353.98  1365.79  1387.66  1397.23  1399.87
                             1405.71  1414.81  1477.61  1505.25  1511.18
                             1528.10  1592.51  1604.56  1655.15  1674.75
                             1683.15  1715.70  1740.38  1777.59  1787.80
                             1805.35  1827.34  1849.80  1903.07  1927.01
                             1941.88  1953.36  1984.39  1986.75  2018.19
                             2026.80  2041.73  2052.92  2055.02  2057.47
                             2061.47  2088.33  2100.34  2163.45  2166.38
                             2168.96  2176.32  2180.26  2182.49  2187.60
                             2188.10  2192.73  2201.05  2210.71  2211.55
                             2218.15  2227.30  2232.43  4295.19  4323.02
                             4337.91  4342.28  4365.15  4369.75  4375.20
                             4376.34  4380.52  4382.67  4391.44  4425.53
                             4442.36  4445.15  4458.72  4459.15  4464.37
                             4469.47  4475.64  4477.97  4480.63  4507.69
                             4510.37  4529.91  5019.83  5039.27

 Zero-point correction=                           0.376001 (Hartree/Particle)
 Thermal correction to Energy=                    0.392143
 Thermal correction to Enthalpy=                  0.393087
 Thermal correction to Gibbs Free Energy=         0.333307
 Sum of electronic and zero-point Energies=           -582.123253
 Sum of electronic and thermal Energies=              -582.107111
 Sum of electronic and thermal Enthalpies=            -582.106167
 Sum of electronic and thermal Free Energies=         -582.165947

                     E (Thermal)             CV                S
                      KCal/Mol        Cal/Mol-Kelvin    Cal/Mol-Kelvin
 Total                  246.073             63.542            125.818
 Electronic               0.000              0.000              0.000
 Translational            0.889              2.981             41.757
 Rotational               0.889              2.981             32.109
 Vibrational            244.296             57.581             51.952
 Vibration     1          0.594              1.982              5.510
 Vibration     2          0.595              1.979              4.982
 Vibration     3          0.595              1.977              4.798
 Vibration     4          0.604              1.950              3.485
 Vibration     5          0.616              1.908              2.742
 Vibration     6          0.636              1.847              2.178
 Vibration     7          0.649              1.805              1.930
 Vibration     8          0.650              1.801              1.906
 Vibration     9          0.653              1.792              1.865
 Vibration    10          0.661              1.769              1.756
 Vibration    11          0.668              1.748              1.669
 Vibration    12          0.675              1.725              1.585
 Vibration    13          0.688              1.687              1.456
 Vibration    14          0.692              1.675              1.420
 Vibration    15          0.706              1.634              1.308
 Vibration    16          0.717              1.602              1.228
 Vibration    17          0.734              1.555              1.123
 Vibration    18          0.738              1.544              1.101
 Vibration    19          0.765              1.473              0.967
 Vibration    20          0.775              1.448              0.925
 Vibration    21          0.794              1.399              0.850
 Vibration    22          0.805              1.371              0.810
 Vibration    23          0.830              1.310              0.729
 Vibration    24          0.838              1.291              0.706
 Vibration    25          0.871              1.215              0.620
 Vibration    26          0.937              1.075              0.485

 Optimization completed.
    -- Stationary point found.
 Normal termination of Gaussian 16 at Thu Dec 10 10:51:48 2020.

 ----------------------------------------------------------------------
 # B3LYP/6-311++G(d,p) empiricaldispersion=gd3bj scf=xqc pop=npa geom=c
 heck
 ----------------------------------------------------------------------

 --------------------------------------
 CID_64881940_JID_4763_Energie_neutraal
 --------------------------------------
 Structure from the checkpoint file:  "JID_4763.chk"
 Charge =  0 Multiplicity = 1

 SCF Done:  E(RB3LYP) =  -582.666897415     A.U. after   14 cycles
 Normal termination of Gaussian 16 at Thu Dec 10 10:59:32 2020.

 ----------------------------------------------------------------------
 # B3LYP/6-311++G(d,p) empiricaldispersion=gd3bj scf=xqc pop=npa geom=c
 heck
 ----------------------------------------------------------------------

 ------------------------------------
 CID_64881940_JID_4763_Energie_kation
 ------------------------------------
 Structure from the checkpoint file:  "JID_4763.chk"
 Charge =  1 Multiplicity = 2

 SCF Done:  E(UB3LYP) =  -582.397052751     A.U. after   19 cycles
 Normal termination of Gaussian 16 at Thu Dec 10 11:14:22 2020.
 Gaussian 16:  ES64L-G16RevA.03 25-Dec-2016

 ----------------------------------------------------------------------
 # B3LYP/6-311++G(d,p) empiricaldispersion=gd3bj scf=xqc pop=npa geom=c
 heck
 ----------------------------------------------------------------------

 -----------------------------------
 CID_64881940_JID_4763_Energie_anion
 -----------------------------------
 Structure from the checkpoint file:  "JID_4763.chk"
 Charge = -1 Multiplicity = 2

                         Standard orientation:
 ---------------------------------------------------------------------
 Center     Atomic      Atomic             Coordinates (Angstroms)
 Number     Number       Type             X           Y           Z
 ---------------------------------------------------------------------
      1          6           0        3.542759    1.649619    0.335196
      2          6           0        3.516920    0.185422   -0.127781
      3          6           0        4.847690   -0.494554    0.222472
      4          6           0        2.329680   -0.604468    0.469479
      5          6           0        1.057860   -0.644030   -0.384101
      6          6           0        0.423118    0.729153   -0.652831
      7          7           0       -0.862142    0.663018   -1.357776
      8          6           0       -1.844267   -0.310741   -0.833063
      9          6           0       -1.164691   -1.658249   -0.488348
     10          7           0        0.099406   -1.562837    0.244751
     11          6           0       -2.773209    0.280969    0.278231
     12          6           0       -3.195453    1.703573   -0.124786
     13          6           0       -4.038401   -0.596984    0.361449
     14          6           0       -2.141123    0.329405    1.683168
     15          1           0        3.690554    1.701943    1.421568
     16          1           0        2.613499    2.177865    0.103089
     17          1           0        4.366458    2.196789   -0.138130
     18          1           0        3.416518    0.173968   -1.223780
     19          1           0        4.981707   -0.544578    1.310785
     20          1           0        4.884895   -1.518998   -0.165047
     21          1           0        5.699295    0.057321   -0.192541
     22          1           0        2.620254   -1.648492    0.635651
     23          1           0        2.084736   -0.195861    1.462534
     24          1           0        1.314571   -1.087728   -1.360520
     25          1           0        1.087756    1.357605   -1.256129
     26          1           0        0.279283    1.251598    0.301740
     27          1           0       -0.675011    0.420844   -2.328587
     28          1           0       -2.520743   -0.499617   -1.677430
     29          1           0       -0.944488   -2.174993   -1.433401
     30          1           0       -1.836778   -2.314896    0.074767
     31          1           0       -0.078793   -1.242119    1.194373
     32          1           0       -3.651764    1.708648   -1.121624
     33          1           0       -3.930815    2.097877    0.587287
     34          1           0       -2.336688    2.377473   -0.157880
     35          1           0       -3.807830   -1.629885    0.645263
     36          1           0       -4.730887   -0.198226    1.111779
     37          1           0       -4.565839   -0.621640   -0.599595
     38          1           0       -1.903564   -0.671775    2.061039
     39          1           0       -1.231567    0.935846    1.710942
     40          1           0       -2.850902    0.775078    2.390514
 ---------------------------------------------------------------------

 SCF Done:  E(UB3LYP) =  -582.652069573     A.U. after   28 cycles

 The electronic state is 2-A.
 Alpha  occ. eigenvalues --  -14.19610 -14.19289 -10.09459 -10.09365 -10.08853
 Alpha  occ. eigenvalues --  -10.08708 -10.08563 -10.08112 -10.06734 -10.06568
 Alpha  occ. eigenvalues --  -10.06463 -10.06326 -10.06092 -10.05214  -0.83240
 Alpha  occ. eigenvalues --   -0.77817  -0.72249  -0.71240  -0.65846  -0.60041
 Alpha  occ. eigenvalues --   -0.59165  -0.58782  -0.58615  -0.55648  -0.52333
 Alpha  occ. eigenvalues --   -0.49052  -0.47003  -0.43288  -0.40681  -0.37698
 Alpha  occ. eigenvalues --   -0.36865  -0.36477  -0.35801  -0.35095  -0.33191
 Alpha  occ. eigenvalues --   -0.33108  -0.32524  -0.32061  -0.31189  -0.29822
 Alpha  occ. eigenvalues --   -0.29266  -0.28915  -0.27779  -0.27282  -0.26839
 Alpha  occ. eigenvalues --   -0.26433  -0.26017  -0.24343  -0.23477  -0.23075
 Alpha  occ. eigenvalues --   -0.22850  -0.22567  -0.21707  -0.21069  -0.15835
 Alpha  occ. eigenvalues --   -0.10195   0.04330
 Alpha virt. eigenvalues --    0.05992   0.06515   0.07632   0.08050   0.08413
 Alpha virt. eigenvalues --    0.08544   0.09645   0.09756   0.09974   0.10315
 Alpha virt. eigenvalues --    0.10741   0.11106   0.11777   0.12286   0.12845

  Beta  occ. eigenvalues --  -14.19606 -14.19271 -10.09448 -10.09353 -10.08836
  Beta  occ. eigenvalues --  -10.08694 -10.08562 -10.08102 -10.06727 -10.06545
  Beta  occ. eigenvalues --  -10.06441 -10.06304 -10.06066 -10.05197  -0.83215
  Beta  occ. eigenvalues --   -0.77788  -0.72227  -0.71218  -0.65816  -0.60007
  Beta  occ. eigenvalues --   -0.59119  -0.58743  -0.58571  -0.55603  -0.52292
  Beta  occ. eigenvalues --   -0.49007  -0.46954  -0.43244  -0.40631  -0.37664
  Beta  occ. eigenvalues --   -0.36830  -0.36442  -0.35779  -0.35064  -0.33166
  Beta  occ. eigenvalues --   -0.33080  -0.32494  -0.32026  -0.31154  -0.29794
  Beta  occ. eigenvalues --   -0.29242  -0.28886  -0.27754  -0.27249  -0.26813
  Beta  occ. eigenvalues --   -0.26408  -0.25984  -0.24306  -0.23452  -0.23043
  Beta  occ. eigenvalues --   -0.22820  -0.22531  -0.21679  -0.21038  -0.15813
  Beta  occ. eigenvalues --   -0.10173
  Beta virt. eigenvalues --    0.06261   0.06719   0.07325   0.08008   0.08402
  Beta virt. eigenvalues --    0.08828   0.08974   0.09952   0.10068   0.10364
  Beta virt. eigenvalues --    0.10649   0.10871   0.11399   0.11977   0.12612

 Mulliken charges and spin densities:
               1          2
     1  C    0.559829  -1.218245
     2  C   -1.408631   1.720152
     3  C    0.379795  -1.027089
     4  C    0.740655  -0.815644
     5  C   -0.713042   0.218224
     6  C   -0.134364  -0.773431
     7  N   -0.295640   0.311732
     8  C    0.380881  -0.269453
     9  C    0.836426  -1.494490
    10  N    0.029840   0.056100
    11  C   -0.872691   1.292219
    12  C   -0.031912  -0.425697
    13  C    0.480419  -1.055134
    14  C    0.237843  -0.832158
    15  H   -0.015594   0.149229
    16  H    0.006489   0.113386
    17  H   -0.265622   0.404422
    18  H   -0.095326   0.258172
    19  H   -0.008811   0.145527
    20  H   -0.102780   0.233390
    21  H   -0.243782   0.384621
    22  H    0.218897  -0.028022
    23  H   -0.043759   0.150513
    24  H   -0.032482   0.211565
    25  H   -0.260627   0.439545
    26  H    0.703606  -0.480243
    27  H   -0.096735   0.359379
    28  H   -0.198510   0.414919
    29  H   -0.249571   0.407749
    30  H    0.048900   0.127613
    31  H    0.229476  -0.009666
    32  H   -0.035944   0.184391
    33  H   -0.113343   0.239658
    34  H   -0.019660   0.181023
    35  H   -0.044864   0.158610
    36  H   -0.036530   0.174593
    37  H   -0.222004   0.359822
    38  H   -0.069425   0.217308
    39  H   -0.287254   0.396382
    40  H    0.045846   0.119026
 Sum of Mulliken charges =  -1.00000   1.00000

 Dipole moment (field-independent basis, Debye):
    X=             -0.5277    Y=             -0.4878    Z=              2.9890  Tot=              3.0742
 Quadrupole moment (field-independent basis, Debye-Ang):
   XX=           -185.1219   YY=           -133.6926   ZZ=           -133.0941
   XY=             -4.1852   XZ=              0.2071   YZ=              0.1577

 Summary of Natural Population Analysis:

                                       Natural Population
                Natural  -----------------------------------------------
    Atom  No    Charge         Core      Valence    Rydberg      Total
 -----------------------------------------------------------------------
      C    1   -0.28362      0.99965     2.27787    0.00610     3.28362
      C    2   -0.11783      0.99962     2.10794    0.01027     3.11783
      C    3   -0.27890      0.99965     2.27441    0.00484     3.27890
      C    4   -0.18819      0.99959     2.17944    0.00916     3.18819
      C    5   -0.01327      0.99958     2.00196    0.01173     3.01327
      C    6   -0.09554      0.99958     2.08481    0.01114     3.09554
      N    7   -0.34242      0.99974     2.82833    0.01434     3.84242
      C    8   -0.01386      0.99953     1.99872    0.01561     3.01386
      C    9   -0.09599      0.99960     2.08407    0.01232     3.09599
      N   10   -0.34114      0.99975     2.82934    0.01205     3.84114
      C   11   -0.04911      0.99957     2.03743    0.01212     3.04911
      C   12   -0.28200      0.99962     2.27579    0.00659     3.28200
      C   13   -0.28415      0.99963     2.27710    0.00742     3.28415
      C   14   -0.28834      0.99962     2.28142    0.00730     3.28834
      H   15    0.09403      0.00000     0.40502    0.00095     0.40597
      H   16    0.10055      0.00000     0.39829    0.00116     0.39945
      H   17    0.09885      0.00000     0.40018    0.00097     0.40115
      H   18    0.09315      0.00000     0.40480    0.00205     0.40685
      H   19    0.09430      0.00000     0.40469    0.00101     0.40570
      H   20    0.09821      0.00000     0.40073    0.00105     0.40179
      H   21    0.09859      0.00000     0.40032    0.00109     0.40141
      H   22    0.10373      0.00000     0.39469    0.00158     0.39627
      H   23    0.09210      0.00000     0.40648    0.00142     0.40790
      H   24    0.08777      0.00000     0.41008    0.00215     0.41223
      H   25    0.09821      0.00000     0.40060    0.00119     0.40179
      H   26    0.08592      0.00000     0.41249    0.00159     0.41408
      H   27    0.17532      0.00000     0.32160    0.00308     0.32468
      H   28    0.09935      0.00000     0.39837    0.00228     0.40065
      H   29    0.09355      0.00000     0.40506    0.00139     0.40645
      H   30    0.09603      0.00000     0.40294    0.00103     0.40397
      H   31    0.16978      0.00000     0.32676    0.00346     0.33022
      H   32    0.10085      0.00000     0.39808    0.00107     0.39915
      H   33    0.09351      0.00000     0.40561    0.00089     0.40649
      H   34    0.10759      0.00000     0.39122    0.00119     0.39241
      H   35    0.09824      0.00000     0.40067    0.00110     0.40176
      H   36    0.09835      0.00000     0.40077    0.00088     0.40165
      H   37    0.10092      0.00000     0.39794    0.00114     0.39908
      H   38    0.09577      0.00000     0.40330    0.00093     0.40423
      H   39    0.09981      0.00000     0.39907    0.00111     0.40019
      H   40    0.09989      0.00000     0.39928    0.00084     0.40011
 =======================================================================
   * Total *   -0.00000     13.99472    41.82769    0.17759    56.00000

 Normal termination of Gaussian 16 at Thu Dec 10 11:35:03 2020.
