 Gaussian 16, Revision A.03,

 -----------------------------------------------------------
 # opt freq B3LYP/6-31G(d) empiricaldispersion=gd3bj scf=xqc
 -----------------------------------------------------------

 ------------------------------
 CID_62990642_JID_8260_neutraal
 ------------------------------
 Symbolic Z-matrix:
 Charge =  0 Multiplicity = 1

 SCF Done:  E(RB3LYP) =  -822.783931614     A.U. after   15 cycles
 SCF Done:  E(RB3LYP) =  -822.789777887     A.U. after   12 cycles
 SCF Done:  E(RB3LYP) =  -822.791778522     A.U. after   13 cycles
 SCF Done:  E(RB3LYP) =  -822.793702710     A.U. after   14 cycles
 SCF Done:  E(RB3LYP) =  -822.794661791     A.U. after   13 cycles
 SCF Done:  E(RB3LYP) =  -822.795259787     A.U. after   12 cycles
 SCF Done:  E(RB3LYP) =  -822.795447103     A.U. after   12 cycles
 SCF Done:  E(RB3LYP) =  -822.795531092     A.U. after   12 cycles
 SCF Done:  E(RB3LYP) =  -822.795561462     A.U. after   10 cycles
 SCF Done:  E(RB3LYP) =  -822.795568086     A.U. after    9 cycles
 SCF Done:  E(RB3LYP) =  -822.795569035     A.U. after    7 cycles
 SCF Done:  E(RB3LYP) =  -822.795569295     A.U. after    7 cycles
 SCF Done:  E(RB3LYP) =  -822.795569346     A.U. after    7 cycles
 Optimization completed.
    -- Stationary point found.
 Normal termination of Gaussian 16 at Fri Dec 11 19:45:19 2020.

 --------------------------------------------------------------------
 #N Geom=AllCheck Guess=TCheck SCRF=Check GenChk RB3LYP/6-31G(d) Freq
 --------------------------------------------------------------------

 Structure from the checkpoint file:  "JID_8260.chk"
 ------------------------------
 CID_62990642_JID_8260_neutraal
 ------------------------------
 Charge =  0 Multiplicity = 1

 SCF Done:  E(RB3LYP) =  -822.795569346     A.U. after    1 cycles

  Exact polarizability: 211.444  23.187 149.252  14.810  -7.314 127.628
 Approx polarizability: 261.816  41.119 234.547  32.078 -18.498 208.304

                      1                      2                      3
                      A                      A                      A
 Frequencies --     17.3193                22.0460                30.9978
 Red. masses --      4.1514                 4.0448                 5.0970
 Frc consts  --      0.0007                 0.0012                 0.0029
 IR Inten    --      2.5910                 2.9867                 0.2490

                      4                      5                      6
                      A                      A                      A
 Frequencies --     57.0923                60.0430                80.1340
 Red. masses --      3.7050                 4.3333                 2.7963
 Frc consts  --      0.0071                 0.0092                 0.0106
 IR Inten    --      0.9485                 1.2457                 1.1299

                      7                      8                      9
                      A                      A                      A
 Frequencies --     88.5260               107.8230               111.2402
 Red. masses --      3.3049                 3.4511                 2.7976
 Frc consts  --      0.0153                 0.0236                 0.0204
 IR Inten    --      1.8553                 1.6929                 1.8905

                     10                     11                     12
                      A                      A                      A
 Frequencies --    150.9118               190.4482               197.9305
 Red. masses --      4.3467                 3.1649                 3.7202
 Frc consts  --      0.0583                 0.0676                 0.0859
 IR Inten    --      1.1059                 4.2463                 1.5152

                     13                     14                     15
                      A                      A                      A
 Frequencies --    227.7045               236.5825               245.4953
 Red. masses --      1.0870                 1.1872                 1.4082
 Frc consts  --      0.0332                 0.0391                 0.0500
 IR Inten    --      0.2090                 1.2357                 0.1942

                     16                     17                     18
                      A                      A                      A
 Frequencies --    272.6040               305.8469               328.0909
 Red. masses --      2.3139                 3.1501                 2.7088
 Frc consts  --      0.1013                 0.1736                 0.1718
 IR Inten    --      4.5140                 0.6121                 0.0294

                     19                     20                     21
                      A                      A                      A
 Frequencies --    336.6418               351.3928               413.2845
 Red. masses --      2.4199                 2.2322                 3.0681
 Frc consts  --      0.1616                 0.1624                 0.3088
 IR Inten    --      3.3842                 0.7876                 0.7182

                     22                     23                     24
                      A                      A                      A
 Frequencies --    424.4207               435.6499               450.8109
 Red. masses --      2.8450                 4.2086                 3.0277
 Frc consts  --      0.3019                 0.4706                 0.3625
 IR Inten    --      4.8662                 1.5037                 8.5940

                     25                     26                     27
                      A                      A                      A
 Frequencies --    500.6862               510.7647               532.1829
 Red. masses --      3.3752                 3.3487                 3.9337
 Frc consts  --      0.4985                 0.5147                 0.6564
 IR Inten    --      5.3697                 3.3749                12.0269

                     28                     29                     30
                      A                      A                      A
 Frequencies --    590.7830               621.7306               661.5592
 Red. masses --      3.2234                 3.6637                 7.3998
 Frc consts  --      0.6628                 0.8344                 1.9081
 IR Inten    --      4.5644                20.0720                 3.0027

                     31                     32                     33
                      A                      A                      A
 Frequencies --    698.6950               739.8862               766.9933
 Red. masses --      3.9874                 3.4769                 2.5401
 Frc consts  --      1.1469                 1.1214                 0.8804
 IR Inten    --     18.0742                10.1875                11.1394

                     34                     35                     36
                      A                      A                      A
 Frequencies --    774.4926               800.1528               808.6783
 Red. masses --      3.4388                 1.2883                 1.1346
 Frc consts  --      1.2153                 0.4860                 0.4372
 IR Inten    --     32.1479                 5.1316                 4.2175

                     37                     38                     39
                      A                      A                      A
 Frequencies --    827.0476               839.9639               873.7002
 Red. masses --      1.6994                 2.1507                 3.9989
 Frc consts  --      0.6849                 0.8940                 1.7985
 IR Inten    --     50.7762                40.8250                43.8139

                     40                     41                     42
                      A                      A                      A
 Frequencies --    920.2664               942.0455               960.0705
 Red. masses --      1.9542                 2.0175                 1.8009
 Frc consts  --      0.9751                 1.0549                 0.9780
 IR Inten    --      2.5660                 4.3132                 6.2402

                     43                     44                     45
                      A                      A                      A
 Frequencies --    966.9569               970.0469               999.6249
 Red. masses --      1.8957                 1.3403                 2.1442
 Frc consts  --      1.0443                 0.7431                 1.2624
 IR Inten    --      1.4972                 0.1394                45.4198

                     46                     47                     48
                      A                      A                      A
 Frequencies --   1041.6113              1051.9332              1090.1468
 Red. masses --      3.1375                 2.6088                 2.0032
 Frc consts  --      2.0056                 1.7008                 1.4027
 IR Inten    --     10.7043                27.4731                 9.9696

                     49                     50                     51
                      A                      A                      A
 Frequencies --   1102.6598              1105.0946              1116.8451
 Red. masses --      4.9513                 2.0845                 1.7558
 Frc consts  --      3.5470                 1.4998                 1.2904
 IR Inten    --     57.9385                25.2327                11.0220

                     52                     53                     54
                      A                      A                      A
 Frequencies --   1131.1508              1133.5786              1180.4764
 Red. masses --      2.7128                 2.3425                 1.3532
 Frc consts  --      2.0450                 1.7735                 1.1110
 IR Inten    --      4.5292                54.3749                 2.8799

                     55                     56                     57
                      A                      A                      A
 Frequencies --   1186.6609              1189.5843              1214.7485
 Red. masses --      1.2727                 1.4485                 1.4113
 Frc consts  --      1.0559                 1.2077                 1.2270
 IR Inten    --      0.6961                33.6241                 3.9482

                     58                     59                     60
                      A                      A                      A
 Frequencies --   1230.0120              1249.4084              1263.8633
 Red. masses --      1.4011                 2.9399                 2.6203
 Frc consts  --      1.2489                 2.7040                 2.4660
 IR Inten    --      1.8532                13.3699                29.0993

                     61                     62                     63
                      A                      A                      A
 Frequencies --   1300.4252              1323.7425              1331.3113
 Red. masses --      1.8128                 2.4495                 1.4033
 Frc consts  --      1.8063                 2.5290                 1.4654
 IR Inten    --     79.7770                71.9352               214.7612

                     64                     65                     66
                      A                      A                      A
 Frequencies --   1338.1000              1355.4906              1366.4008
 Red. masses --      1.8202                 1.3225                 2.1780
 Frc consts  --      1.9202                 1.4317                 2.3959
 IR Inten    --     38.2207                13.0538                94.6663

                     67                     68                     69
                      A                      A                      A
 Frequencies --   1385.3005              1396.5200              1399.9483
 Red. masses --      1.3195                 1.4734                 1.2891
 Frc consts  --      1.4919                 1.6931                 1.4885
 IR Inten    --      9.2316                18.2614                13.5887

                     70                     71                     72
                      A                      A                      A
 Frequencies --   1419.2467              1435.3110              1440.9329
 Red. masses --      1.2879                 1.2945                 1.2714
 Frc consts  --      1.5284                 1.5712                 1.5554
 IR Inten    --     15.2550                11.4655                17.3773

                     73                     74                     75
                      A                      A                      A
 Frequencies --   1442.9155              1487.9377              1498.3325
 Red. masses --      2.4659                 1.8987                 1.1929
 Frc consts  --      3.0249                 2.4767                 1.5778
 IR Inten    --     66.0955               118.9424                16.1463

                     76                     77                     78
                      A                      A                      A
 Frequencies --   1501.3028              1510.2323              1518.6811
 Red. masses --      1.1837                 1.1860                 1.2225
 Frc consts  --      1.5719                 1.5937                 1.6612
 IR Inten    --     10.3009                30.0464                 4.6565

                     79                     80                     81
                      A                      A                      A
 Frequencies --   1520.6669              1522.6715              1524.2415
 Red. masses --      1.0601                 1.0488                 1.0473
 Frc consts  --      1.4444                 1.4327                 1.4336
 IR Inten    --      1.2985                 1.1514                 6.0261

                     82                     83                     84
                      A                      A                      A
 Frequencies --   1527.6750              1532.4269              1536.1643
 Red. masses --      1.1002                 1.1248                 1.0582
 Frc consts  --      1.5128                 1.5563                 1.4713
 IR Inten    --     30.4661                85.0117                 5.8878

                     85                     86                     87
                      A                      A                      A
 Frequencies --   1541.0168              1549.4067              1559.4318
 Red. masses --      1.0930                 2.0657                 1.0979
 Frc consts  --      1.5293                 2.9218                 1.5731
 IR Inten    --     23.5948                89.5582                 4.3188

                     88                     89                     90
                      A                      A                      A
 Frequencies --   1624.7936              1664.2736              1752.0953
 Red. masses --      5.9888                 5.8789                 9.2673
 Frc consts  --      9.3151                 9.5939                16.7618
 IR Inten    --     55.0493               128.3541               263.7226

                     91                     92                     93
                      A                      A                      A
 Frequencies --   3028.7177              3037.8312              3047.2187
 Red. masses --      1.0351                 1.0588                 1.0594
 Frc consts  --      5.5943                 5.7572                 5.7959
 IR Inten    --     52.1226                29.8261                28.5015

                     94                     95                     96
                      A                      A                      A
 Frequencies --   3050.6253              3052.2930              3057.0279
 Red. masses --      1.0365                 1.0383                 1.0677
 Frc consts  --      5.6831                 5.6993                 5.8792
 IR Inten    --     17.9555                12.8234                35.8987

                     97                     98                     99
                      A                      A                      A
 Frequencies --   3070.2886              3083.3403              3089.0421
 Red. masses --      1.0673                 1.1035                 1.1067
 Frc consts  --      5.9278                 6.1808                 6.2222
 IR Inten    --     37.1950                28.3932                40.1750

                    100                    101                    102
                      A                      A                      A
 Frequencies --   3089.2525              3112.5285              3115.1716
 Red. masses --      1.1057                 1.1018                 1.1010
 Frc consts  --      6.2171                 6.2892                 6.2948
 IR Inten    --     21.3300                20.4967                25.3645

                    103                    104                    105
                      A                      A                      A
 Frequencies --   3122.6062              3136.7138              3142.3109
 Red. masses --      1.1013                 1.0971                 1.0975
 Frc consts  --      6.3268                 6.3600                 6.3848
 IR Inten    --     41.1897                19.4374                12.4285

                    106                    107                    108
                      A                      A                      A
 Frequencies --   3149.4016              3152.3666              3165.2001
 Red. masses --      1.1033                 1.0900                 1.0996
 Frc consts  --      6.4478                 6.3819                 6.4905
 IR Inten    --     23.0164                32.9706                26.3173

                    109                    110                    111
                      A                      A                      A
 Frequencies --   3174.0590              3236.0117              3476.3117
 Red. masses --      1.0899                 1.0918                 1.0738
 Frc consts  --      6.4696                 6.7364                 7.6459
 IR Inten    --     12.0219                10.5855                 0.5337

 - Thermochemistry -
 -------------------
 Temperature   298.150 Kelvin.  Pressure   1.00000 Atm.
 Atom     1 has atomic number  6 and mass  12.00000

 Molecular mass:   251.16338 amu.
 Principal axes and moments of inertia in atomic units:
                           1         2         3
     Eigenvalues --  1956.90835********************
           X            0.99994   0.01083  -0.00252
           Y           -0.01093   0.99889  -0.04582
           Z            0.00202   0.04585   0.99895
 This molecule is an asymmetric top.
 Rotational symmetry number  1.
 Warning -- assumption of classical behavior for rotation
           may cause significant error
 Rotational temperatures (Kelvin)      0.04426     0.00739     0.00700
 Rotational constants (GHZ):           0.92224     0.15392     0.14595
 Zero-point vibrational energy     889019.5 (Joules/Mol)
                                  212.48076 (Kcal/Mol)
 Warning -- explicit consideration of  28 degrees of freedom as
           vibrations may cause significant error
 Vibrational temperatures:     24.92    31.72    44.60    82.14    86.39
          (Kelvin)            115.29   127.37   155.13   160.05   217.13
                              274.01   284.78   327.62   340.39   353.21
                              392.22   440.05   472.05   484.35   505.58
                              594.62   610.65   626.80   648.62   720.38
                              734.88   765.69   850.00   894.53   951.84
                             1005.27  1064.53  1103.53  1114.32  1151.24
                             1163.51  1189.94  1208.52  1257.06  1324.06
                             1355.39  1381.33  1391.24  1395.68  1438.24
                             1498.65  1513.50  1568.48  1586.48  1589.98
                             1606.89  1627.47  1630.97  1698.44  1707.34
                             1711.55  1747.75  1769.71  1797.62  1818.42
                             1871.02  1904.57  1915.46  1925.23  1950.25
                             1965.95  1993.14  2009.28  2014.21  2041.98
                             2065.09  2073.18  2076.03  2140.81  2155.77
                             2160.04  2172.89  2185.04  2187.90  2190.78
                             2193.04  2197.98  2204.82  2210.20  2217.18
                             2229.25  2243.67  2337.72  2394.52  2520.87
                             4357.65  4370.76  4384.27  4389.17  4391.57
                             4398.38  4417.46  4436.24  4444.44  4444.75
                             4478.23  4482.04  4492.73  4513.03  4521.08
                             4531.29  4535.55  4554.02  4566.76  4655.90
                             5001.64

 Zero-point correction=                           0.338610 (Hartree/Particle)
 Thermal correction to Energy=                    0.357698
 Thermal correction to Enthalpy=                  0.358643
 Thermal correction to Gibbs Free Energy=         0.288205
 Sum of electronic and zero-point Energies=           -822.456960
 Sum of electronic and thermal Energies=              -822.437871
 Sum of electronic and thermal Enthalpies=            -822.436927
 Sum of electronic and thermal Free Energies=         -822.507365

                     E (Thermal)             CV                S
                      KCal/Mol        Cal/Mol-Kelvin    Cal/Mol-Kelvin
 Total                  224.459             69.774            148.249
 Electronic               0.000              0.000              0.000
 Translational            0.889              2.981             42.463
 Rotational               0.889              2.981             34.005
 Vibrational            222.682             63.813             71.780
 Vibration     1          0.593              1.986              6.920
 Vibration     2          0.593              1.985              6.441
 Vibration     3          0.594              1.984              5.765
 Vibration     4          0.596              1.975              4.555
 Vibration     5          0.597              1.973              4.456
 Vibration     6          0.600              1.963              3.888
 Vibration     7          0.601              1.957              3.692
 Vibration     8          0.606              1.943              3.308
 Vibration     9          0.607              1.940              3.247
 Vibration    10          0.618              1.902              2.661
 Vibration    11          0.634              1.853              2.223
 Vibration    12          0.637              1.843              2.152
 Vibration    13          0.651              1.799              1.897
 Vibration    14          0.655              1.785              1.828
 Vibration    15          0.660              1.770              1.763
 Vibration    16          0.676              1.724              1.580
 Vibration    17          0.696              1.663              1.385
 Vibration    18          0.711              1.619              1.269
 Vibration    19          0.717              1.602              1.228
 Vibration    20          0.728              1.572              1.160
 Vibration    21          0.777              1.441              0.915
 Vibration    22          0.786              1.417              0.877
 Vibration    23          0.796              1.393              0.840
 Vibration    24          0.810              1.359              0.793
 Vibration    25          0.856              1.248              0.656
 Vibration    26          0.866              1.226              0.632
 Vibration    27          0.887              1.179              0.582
 Vibration    28          0.948              1.051              0.466

                           ! Non-Optimized Parameters !
 Normal termination of Gaussian 16 at Fri Dec 11 20:02:07 2020.

 ----------------------------------------------------------------------
 # B3LYP/6-311++G(d,p) empiricaldispersion=gd3bj scf=xqc pop=npa geom=c
 heck
 ----------------------------------------------------------------------

 --------------------------------------
 CID_62990642_JID_8260_Energie_neutraal
 --------------------------------------
 Structure from the checkpoint file:  "JID_8260.chk"
 Charge =  0 Multiplicity = 1

 SCF Done:  E(RB3LYP) =  -823.028129721     A.U. after   15 cycles
 Normal termination of Gaussian 16 at Fri Dec 11 20:10:14 2020.

 ----------------------------------------------------------------------
 # B3LYP/6-311++G(d,p) empiricaldispersion=gd3bj scf=xqc pop=npa geom=c
 heck
 ----------------------------------------------------------------------

 ------------------------------------
 CID_62990642_JID_8260_Energie_kation
 ------------------------------------
 Structure from the checkpoint file:  "JID_8260.chk"
 Charge =  1 Multiplicity = 2

 SCF Done:  E(UB3LYP) =  -822.735936676     A.U. after   28 cycles
 Normal termination of Gaussian 16 at Fri Dec 11 20:31:54 2020.
 Gaussian 16:  ES64L-G16RevA.03 25-Dec-2016

 ----------------------------------------------------------------------
 # B3LYP/6-311++G(d,p) empiricaldispersion=gd3bj scf=xqc pop=npa geom=c
 heck
 ----------------------------------------------------------------------

 -----------------------------------
 CID_62990642_JID_8260_Energie_anion
 -----------------------------------
 Structure from the checkpoint file:  "JID_8260.chk"
 Charge = -1 Multiplicity = 2

                         Standard orientation:
 ---------------------------------------------------------------------
 Center     Atomic      Atomic             Coordinates (Angstroms)
 Number     Number       Type             X           Y           Z
 ---------------------------------------------------------------------
      1          6           0        4.876648   -1.921000    0.760709
      2          6           0        4.566478   -1.134538   -0.513661
      3          7           0        3.448145   -0.206347   -0.339164
      4          6           0        3.750623    1.147911    0.123550
      5          6           0        4.071366    2.112516   -1.020188
      6          6           0        2.183952   -0.693525   -0.505621
      7          8           0        1.964945   -1.872890   -0.781529
      8          6           0        1.013549    0.272359   -0.311344
      9          7           0        0.773407    0.462767    1.122506
     10          6           0       -0.380058    1.326430    1.415214
     11          6           0       -1.704682    0.865339    0.846276
     12          6           0       -2.273900    1.468401   -0.278961
     13          7           0       -3.411987    1.081639   -0.857687
     14          6           0       -4.054596    0.041507   -0.329231
     15          6           0       -3.589179   -0.651574    0.802324
     16          6           0       -2.401285   -0.222448    1.381773
     17          8           0       -5.195636   -0.273292   -0.990512
     18          6           0       -5.955788   -1.377888   -0.525583
     19          1           0        5.112153   -1.250298    1.595134
     20          1           0        5.734600   -2.584964    0.605178
     21          1           0        4.011742   -2.530578    1.036205
     22          1           0        5.436518   -0.549824   -0.832200
     23          1           0        4.305443   -1.821696   -1.320980
     24          1           0        2.913936    1.503182    0.727958
     25          1           0        4.609130    1.077151    0.802334
     26          1           0        3.213339    2.222394   -1.692075
     27          1           0        4.329219    3.102843   -0.627686
     28          1           0        4.917645    1.752517   -1.615694
     29          1           0        1.217361    1.254440   -0.754023
     30          1           0        0.162847   -0.167137   -0.848835
     31          1           0        0.616992   -0.455109    1.538861
     32          1           0       -0.446499    1.411975    2.506334
     33          1           0       -0.146860    2.327136    1.030689
     34          1           0       -1.778460    2.323103   -0.740310
     35          1           0       -4.129690   -1.491643    1.219897
     36          1           0       -2.016530   -0.738963    2.259103
     37          1           0       -5.377199   -2.309868   -0.563682
     38          1           0       -6.316131   -1.217215    0.498878
     39          1           0       -6.809755   -1.455343   -1.199877
 ---------------------------------------------------------------------

 SCF Done:  E(UB3LYP) =  -823.020703970     A.U. after   33 cycles
 SCF Done:  E(UB3LYP) =  -823.020703970     a.u. after    1 cycles

 The electronic state is 2-A.
 Alpha  occ. eigenvalues --  -19.06171 -18.99166 -14.24852 -14.21625 -14.19642
 Alpha  occ. eigenvalues --  -10.17400 -10.16110 -10.13822 -10.11438 -10.11420
 Alpha  occ. eigenvalues --  -10.10809 -10.10555 -10.10249 -10.07970 -10.07739
 Alpha  occ. eigenvalues --  -10.07637 -10.07612 -10.07591  -0.98480  -0.94377
 Alpha  occ. eigenvalues --   -0.84542  -0.83850  -0.81976  -0.70956  -0.68554
 Alpha  occ. eigenvalues --   -0.67265  -0.65902  -0.63643  -0.61003  -0.56068
 Alpha  occ. eigenvalues --   -0.55431  -0.54188  -0.53555  -0.49843  -0.44786
 Alpha  occ. eigenvalues --   -0.44622  -0.43372  -0.40957  -0.40379  -0.38605
 Alpha  occ. eigenvalues --   -0.38259  -0.37728  -0.36590  -0.35531  -0.35047
 Alpha  occ. eigenvalues --   -0.34260  -0.33911  -0.33592  -0.32348  -0.31038
 Alpha  occ. eigenvalues --   -0.30929  -0.30312  -0.30136  -0.29192  -0.28482
 Alpha  occ. eigenvalues --   -0.27900  -0.27407  -0.26957  -0.26338  -0.25762
 Alpha  occ. eigenvalues --   -0.25352  -0.23277  -0.18793  -0.16765  -0.16293
 Alpha  occ. eigenvalues --   -0.15289  -0.14640  -0.13463   0.03833
 Alpha virt. eigenvalues --    0.05053   0.05663   0.06562   0.06774   0.07712
 Alpha virt. eigenvalues --    0.08192   0.08643   0.09137   0.09326   0.09587
 Alpha virt. eigenvalues --    0.09761   0.10272   0.10452   0.10834   0.11225

  Beta  occ. eigenvalues --  -19.06167 -18.99157 -14.24853 -14.21622 -14.19484
  Beta  occ. eigenvalues --  -10.17393 -10.16095 -10.13797 -10.11424 -10.11403
  Beta  occ. eigenvalues --  -10.10796 -10.10545 -10.10212 -10.07789 -10.07696
  Beta  occ. eigenvalues --  -10.07625 -10.07604 -10.07577  -0.98452  -0.94362
  Beta  occ. eigenvalues --   -0.84531  -0.83656  -0.81947  -0.70739  -0.68516
  Beta  occ. eigenvalues --   -0.67141  -0.65863  -0.63602  -0.60948  -0.56002
  Beta  occ. eigenvalues --   -0.55369  -0.54059  -0.53387  -0.49752  -0.44722
  Beta  occ. eigenvalues --   -0.44577  -0.43341  -0.40887  -0.40347  -0.38534
  Beta  occ. eigenvalues --   -0.38202  -0.37694  -0.36549  -0.35461  -0.35019
  Beta  occ. eigenvalues --   -0.34200  -0.33864  -0.33544  -0.32306  -0.30990
  Beta  occ. eigenvalues --   -0.30809  -0.30073  -0.30062  -0.29145  -0.28445
  Beta  occ. eigenvalues --   -0.27867  -0.27360  -0.26905  -0.26307  -0.25737
  Beta  occ. eigenvalues --   -0.25302  -0.23065  -0.17979  -0.16643  -0.16229
  Beta  occ. eigenvalues --   -0.15267  -0.14552  -0.13205
  Beta virt. eigenvalues --    0.05754   0.05939   0.06818   0.07040   0.07281
  Beta virt. eigenvalues --    0.08037   0.08468   0.08914   0.09280   0.09438
  Beta virt. eigenvalues --    0.09777   0.10069   0.10314   0.10586   0.10920

 Mulliken charges and spin densities:
               1          2
     1  C    0.004758  -0.418369
     2  C   -0.042021  -0.143877
     3  N    0.191653   0.018506
     4  C   -0.753580   0.431277
     5  C    0.916815  -1.368766
     6  C   -0.419530   0.314178
     7  O   -0.302894   0.001610
     8  C   -0.133728  -0.555502
     9  N    0.009489   0.045505
    10  C   -0.134428  -0.896603
    11  C    0.977456   0.023439
    12  C   -0.712729   0.323041
    13  N   -0.187995   0.093020
    14  C   -0.514511  -0.029055
    15  C   -0.020581   0.147633
    16  C    0.089828  -0.159598
    17  O   -0.088133   0.015146
    18  C    0.274479  -0.523259
    19  H    0.054243   0.072004
    20  H   -0.031978   0.166352
    21  H    0.115378   0.055216
    22  H   -0.207700   0.339840
    23  H    0.175741   0.011007
    24  H    0.245824  -0.024589
    25  H   -0.382201   0.538990
    26  H   -0.119550   0.253939
    27  H   -0.330700   0.472326
    28  H   -0.076219   0.221450
    29  H    0.201237  -0.056070
    30  H    0.296050  -0.054988
    31  H    0.273539  -0.014255
    32  H   -0.110790   0.312388
    33  H    0.113507   0.035426
    34  H    0.068109   0.119349
    35  H   -0.143315   0.332878
    36  H   -0.188079   0.335158
    37  H   -0.069129   0.217261
    38  H    0.025323   0.112605
    39  H   -0.063638   0.235384
 Sum of Mulliken charges =  -1.00000   1.00000

 Dipole moment (field-independent basis, Debye):
    X=             -0.6072    Y=             -0.9124    Z=              0.9208  Tot=              1.4314
 Quadrupole moment (field-independent basis, Debye-Ang):
   XX=           -220.3893   YY=           -150.4605   ZZ=           -141.5425
   XY=             -8.1951   XZ=             -4.0267   YZ=             -0.4697

 Summary of Natural Population Analysis:

                                       Natural Population
                Natural  -----------------------------------------------
    Atom  No    Charge         Core      Valence    Rydberg      Total
 -----------------------------------------------------------------------
      C    1   -0.29231      0.99966     2.28770    0.00496     3.29231
      C    2   -0.08723      0.99962     2.07658    0.01103     3.08723
      N    3   -0.25309      0.99963     2.74195    0.01152     3.75309
      C    4   -0.09168      0.99961     2.08134    0.01073     3.09168
      C    5   -0.28995      0.99966     2.28533    0.00496     3.28995
      C    6    0.34354      0.99964     1.63416    0.02266     2.65646
      O    7   -0.32991      0.99988     3.32466    0.00537     4.32991
      C    8   -0.12950      0.99959     2.12057    0.00934     3.12950
      N    9   -0.33548      0.99975     2.82566    0.01008     3.83548
      C   10   -0.09332      0.99959     2.08070    0.01303     3.09332
      C   11   -0.06951      0.99949     2.06075    0.00926     3.06951
      C   12    0.03998      0.99953     1.94730    0.01318     2.96002
      N   13   -0.22544      0.99966     2.71495    0.01083     3.72544
      C   14    0.26434      0.99945     1.71737    0.01885     2.73566
      C   15   -0.15586      0.99952     2.14797    0.00837     3.15586
      C   16   -0.04186      0.99952     2.03216    0.01017     3.04186
      O   17   -0.26857      0.99985     3.25927    0.00945     4.26857
      C   18   -0.10312      0.99961     2.09435    0.00916     3.10312
      H   19    0.09717      0.00000     0.40185    0.00098     0.40283
      H   20    0.09716      0.00000     0.40210    0.00074     0.40284
      H   21    0.10570      0.00000     0.39341    0.00088     0.39430
      H   22    0.09391      0.00000     0.40491    0.00118     0.40609
      H   23    0.10665      0.00000     0.39226    0.00109     0.39335
      H   24    0.11194      0.00000     0.38589    0.00218     0.38806
      H   25    0.09594      0.00000     0.40253    0.00153     0.40406
      H   26    0.09703      0.00000     0.40193    0.00104     0.40297
      H   27    0.10207      0.00000     0.39659    0.00133     0.39793
      H   28    0.09804      0.00000     0.40076    0.00120     0.40196
      H   29    0.09616      0.00000     0.40247    0.00137     0.40384
      H   30    0.10189      0.00000     0.39657    0.00155     0.39811
      H   31    0.17369      0.00000     0.32351    0.00280     0.32631
      H   32    0.10015      0.00000     0.39882    0.00104     0.39985
      H   33    0.09368      0.00000     0.40514    0.00118     0.40632
      H   34    0.08591      0.00000     0.41241    0.00169     0.41409
      H   35    0.10393      0.00000     0.39468    0.00139     0.39607
      H   36    0.09650      0.00000     0.40231    0.00120     0.40350
      H   37    0.08653      0.00000     0.41210    0.00137     0.41347
      H   38    0.08292      0.00000     0.41590    0.00118     0.41708
      H   39    0.09202      0.00000     0.40703    0.00096     0.40798
 =======================================================================
   * Total *   -0.00000     17.99326    49.78593    0.22081    68.00000

 Normal termination of Gaussian 16 at Fri Dec 11 20:57:36 2020.
