 Gaussian 16, Revision A.03,

 ----------------------------------------------------------------------
 # opt=(cartesian,calcfc) freq B3LYP/6-31G(d) empiricaldispersion=gd3bj
  scf=xqc
 ----------------------------------------------------------------------

 -------------------------------
 CID_130485605_JID_1745_neutraal
 -------------------------------
 Symbolic Z-matrix:
 Charge =  0 Multiplicity = 1

 SCF Done:  E(RB3LYP) =  -494.333034903     A.U. after   16 cycles
 SCF Done:  E(RB3LYP) =  -494.333130625     A.U. after   12 cycles
 SCF Done:  E(RB3LYP) =  -494.333136103     A.U. after    9 cycles
 SCF Done:  E(RB3LYP) =  -494.332812675     A.U. after   12 cycles
 SCF Done:  E(RB3LYP) =  -494.333134313     A.U. after   11 cycles
 SCF Done:  E(RB3LYP) =  -494.333137565     A.U. after    7 cycles
 SCF Done:  E(RB3LYP) =  -494.333139542     A.U. after    8 cycles
 SCF Done:  E(RB3LYP) =  -494.333139534     A.U. after   10 cycles
 SCF Done:  E(RB3LYP) =  -494.333140897     A.U. after    8 cycles
 SCF Done:  E(RB3LYP) =  -494.333141059     A.U. after    8 cycles
 SCF Done:  E(RB3LYP) =  -494.333141138     A.U. after    7 cycles
 SCF Done:  E(RB3LYP) =  -494.333141217     A.U. after    7 cycles
 SCF Done:  E(RB3LYP) =  -494.333141250     A.U. after    7 cycles
 Optimization completed.
    -- Stationary point found.
 Normal termination of Gaussian 16 at Mon Jan  4 08:54:08 2021.

 --------------------------------------------------------------------
 #N Geom=AllCheck Guess=TCheck SCRF=Check GenChk RB3LYP/6-31G(d) Freq
 --------------------------------------------------------------------

 Structure from the checkpoint file:  "JID_1745.chk"
 -------------------------------
 CID_130485605_JID_1745_neutraal
 -------------------------------
 Charge =  0 Multiplicity = 1

 SCF Done:  E(RB3LYP) =  -494.333141250     A.U. after    1 cycles

  Exact polarizability: 138.195   7.681 103.332   0.000  -0.002  46.133
 Approx polarizability: 188.980   8.450 188.702  -0.000  -0.004  69.026

                      1                      2                      3
                      A                      A                      A
 Frequencies --     54.4383                74.4373               103.8051
 Red. masses --      4.6084                 1.1139                 4.4173
 Frc consts  --      0.0080                 0.0036                 0.0280
 IR Inten    --      3.4559                 0.1873                 2.8106

                      4                      5                      6
                      A                      A                      A
 Frequencies --    118.5521               136.7751               203.1355
 Red. masses --      2.2138                 1.3255                 5.4690
 Frc consts  --      0.0183                 0.0146                 0.1330
 IR Inten    --      0.1810                 0.1593                 4.8834

                      7                      8                      9
                      A                      A                      A
 Frequencies --    218.0927               254.5471               266.5229
 Red. masses --      3.0360                 4.7679                 2.5682
 Frc consts  --      0.0851                 0.1820                 0.1075
 IR Inten    --      3.8749                 1.4352                 0.3642

                     10                     11                     12
                      A                      A                      A
 Frequencies --    322.2484               397.7353               420.0371
 Red. masses --      5.4499                 4.5144                 6.7002
 Frc consts  --      0.3334                 0.4208                 0.6965
 IR Inten    --      0.9857                12.0549                 1.6951

                     13                     14                     15
                      A                      A                      A
 Frequencies --    539.6661               617.3951               640.7382
 Red. masses --      4.3430                 1.2866                 3.7275
 Frc consts  --      0.7452                 0.2890                 0.9016
 IR Inten    --      0.0733                40.6035                 1.3051

                     16                     17                     18
                      A                      A                      A
 Frequencies --    651.3815               652.0851               670.7799
 Red. masses --      3.2377                 4.5207                 1.8609
 Frc consts  --      0.8094                 1.1326                 0.4933
 IR Inten    --      1.4001                 4.6764                34.3811

                     19                     20                     21
                      A                      A                      A
 Frequencies --    672.0759               786.2715               789.4818
 Red. masses --      7.3421                 3.5316                 4.1599
 Frc consts  --      1.9539                 1.2864                 1.5276
 IR Inten    --      7.1811                22.4933                 5.4769

                     22                     23                     24
                      A                      A                      A
 Frequencies --    842.5595               978.1522              1013.4533
 Red. masses --      1.5756                 6.2349                 1.5193
 Frc consts  --      0.6590                 3.5147                 0.9194
 IR Inten    --      9.6904               115.9821                 4.3006

                     25                     26                     27
                      A                      A                      A
 Frequencies --   1062.2051              1078.3717              1094.2332
 Red. masses --      2.0163                 1.4597                 2.3349
 Frc consts  --      1.3403                 1.0001                 1.6471
 IR Inten    --     33.4519                 1.8682                15.0832

                     28                     29                     30
                      A                      A                      A
 Frequencies --   1157.3456              1199.9910              1226.2508
 Red. masses --      1.3061                 2.9945                 2.9552
 Frc consts  --      1.0307                 2.5405                 2.6181
 IR Inten    --      0.0561                97.5345               119.5092

                     31                     32                     33
                      A                      A                      A
 Frequencies --   1345.2756              1417.6555              1444.7928
 Red. masses --      4.4513                 5.6604                 1.2738
 Frc consts  --      4.7464                 6.7025                 1.5666
 IR Inten    --     28.5112                49.6890                 6.1864

                     34                     35                     36
                      A                      A                      A
 Frequencies --   1471.0078              1478.6526              1496.5620
 Red. masses --      1.9904                 2.1705                 3.1412
 Frc consts  --      2.5375                 2.7960                 4.1451
 IR Inten    --      3.7844                30.7083                65.3357

                     37                     38                     39
                      A                      A                      A
 Frequencies --   1507.0757              1518.9265              1524.4884
 Red. masses --      1.0425                 1.0416                 1.2964
 Frc consts  --      1.3951                 1.4159                 1.7751
 IR Inten    --      0.0402                20.4270                23.5887

                     40                     41                     42
                      A                      A                      A
 Frequencies --   1537.1087              1611.5185              1732.6226
 Red. masses --      1.2158                 5.7043                13.1576
 Frc consts  --      1.6925                 8.7282                23.2721
 IR Inten    --      4.6846                 5.4124               233.4803

                     43                     44                     45
                      A                      A                      A
 Frequencies --   2221.0735              3043.6328              3063.2450
 Red. masses --      5.9821                 1.0398                 1.0358
 Frc consts  --     17.3873                 5.6755                 5.7266
 IR Inten    --     69.5403                24.5689                44.4760

                     46                     47                     48
                      A                      A                      A
 Frequencies --   3092.0370              3122.6524              3148.9966
 Red. masses --      1.1013                 1.1059                 1.0980
 Frc consts  --      6.2039                 6.3533                 6.4151
 IR Inten    --     16.3860                17.5875                 8.7148

                     49                     50                     51
                      A                      A                      A
 Frequencies --   3193.1695              3294.4808              3493.1845
 Red. masses --      1.1008                 1.0979                 1.1597
 Frc consts  --      6.6128                 7.0205                 8.3373
 IR Inten    --      1.2998                 1.1209                43.5230

 - Thermochemistry -
 -------------------
 Temperature   298.150 Kelvin.  Pressure   1.00000 Atm.
 Atom     1 has atomic number  6 and mass  12.00000

 Molecular mass:   148.06366 amu.
 Principal axes and moments of inertia in atomic units:
                           1         2         3
     Eigenvalues --   779.058202521.414983277.77050
           X            0.99992   0.01250   0.00000
           Y           -0.01250   0.99992   0.00000
           Z           -0.00000  -0.00000   1.00000
 This molecule is an asymmetric top.
 Rotational symmetry number  1.
 Warning -- assumption of classical behavior for rotation
           may cause significant error
 Rotational temperatures (Kelvin)      0.11118     0.03435     0.02642
 Rotational constants (GHZ):           2.31657     0.71577     0.55060
 Zero-point vibrational energy     382810.5 (Joules/Mol)
                                   91.49391 (Kcal/Mol)
 Warning -- explicit consideration of  14 degrees of freedom as
           vibrations may cause significant error
 Vibrational temperatures:     78.32   107.10   149.35   170.57   196.79
          (Kelvin)            292.27   313.79   366.24   383.47   463.64
                              572.25   604.34   776.46   888.29   921.88
                              937.19   938.21   965.10   966.97  1131.27
                             1135.89  1212.26  1407.34  1458.13  1528.28
                             1551.54  1574.36  1665.16  1726.52  1764.30
                             1935.55  2039.69  2078.73  2116.45  2127.45
                             2153.22  2168.35  2185.40  2193.40  2211.56
                             2318.62  2492.86  3195.63  4379.11  4407.33
                             4448.75  4492.80  4530.70  4594.26  4740.02
                             5025.91

 Zero-point correction=                           0.145805 (Hartree/Particle)
 Thermal correction to Energy=                    0.156872
 Thermal correction to Enthalpy=                  0.157816
 Thermal correction to Gibbs Free Energy=         0.108498
 Sum of electronic and zero-point Energies=           -494.187336
 Sum of electronic and thermal Energies=              -494.176269
 Sum of electronic and thermal Enthalpies=            -494.175325
 Sum of electronic and thermal Free Energies=         -494.224643

                     E (Thermal)             CV                S
                      KCal/Mol        Cal/Mol-Kelvin    Cal/Mol-Kelvin
 Total                   98.439             39.233            103.799
 Electronic               0.000              0.000              0.000
 Translational            0.889              2.981             40.888
 Rotational               0.889              2.981             30.244
 Vibrational             96.661             33.271             32.667
 Vibration     1          0.596              1.976              4.649
 Vibration     2          0.599              1.966              4.032
 Vibration     3          0.605              1.946              3.382
 Vibration     4          0.609              1.934              3.124
 Vibration     5          0.614              1.917              2.849
 Vibration     6          0.639              1.835              2.105
 Vibration     7          0.646              1.814              1.975
 Vibration     8          0.665              1.755              1.699
 Vibration     9          0.672              1.735              1.619
 Vibration    10          0.707              1.631              1.299
 Vibration    11          0.764              1.475              0.971
 Vibration    12          0.783              1.427              0.892
 Vibration    13          0.895              1.162              0.566
 Vibration    14          0.977              0.995              0.421

 Optimization completed.
    -- Stationary point found.
 Normal termination of Gaussian 16 at Mon Jan  4 08:57:05 2021.

 ----------------------------------------------------------------------
 # B3LYP/6-311++G(d,p) empiricaldispersion=gd3bj scf=xqc pop=npa geom=c
 heck
 ----------------------------------------------------------------------

 ---------------------------------------
 CID_130485605_JID_1745_Energie_neutraal
 ---------------------------------------
 Structure from the checkpoint file:  "JID_1745.chk"
 Charge =  0 Multiplicity = 1

 SCF Done:  E(RB3LYP) =  -494.470948026     A.U. after   17 cycles
 Normal termination of Gaussian 16 at Mon Jan  4 08:58:08 2021.

 ----------------------------------------------------------------------
 # B3LYP/6-311++G(d,p) empiricaldispersion=gd3bj scf=xqc pop=npa geom=c
 heck
 ----------------------------------------------------------------------

 -------------------------------------
 CID_130485605_JID_1745_Energie_kation
 -------------------------------------
 Structure from the checkpoint file:  "JID_1745.chk"
 Charge =  1 Multiplicity = 2

 SCF Done:  E(UB3LYP) =  -494.137307814     A.U. after   33 cycles
 SCF Done:  E(UB3LYP) =  -494.137307813     a.u. after    1 cycles
 Normal termination of Gaussian 16 at Mon Jan  4 09:01:05 2021.
 Gaussian 16:  ES64L-G16RevA.03 25-Dec-2016

 ----------------------------------------------------------------------
 # B3LYP/6-311++G(d,p) empiricaldispersion=gd3bj scf=xqc pop=npa geom=c
 heck
 ----------------------------------------------------------------------

 ------------------------------------
 CID_130485605_JID_1745_Energie_anion
 ------------------------------------
 Structure from the checkpoint file:  "JID_1745.chk"
 Charge = -1 Multiplicity = 2

                         Standard orientation:
 ---------------------------------------------------------------------
 Center     Atomic      Atomic             Coordinates (Angstroms)
 Number     Number       Type             X           Y           Z
 ---------------------------------------------------------------------
      1          6           0       -3.202784   -0.969372   -0.000122
      2          6           0       -1.763682   -0.571907   -0.000031
      3          6           0       -0.603047   -1.317143   -0.000060
      4          6           0        0.444585   -0.364839    0.000031
      5          7           0       -0.030640    0.889155    0.000113
      6          7           0       -1.364666    0.744006    0.000092
      7          6           0       -2.216192    1.917855    0.000050
      8          6           0        1.887323   -0.649054    0.000054
      9          8           0        2.318095   -1.796610    0.000118
     10          6           0        2.787999    0.494384   -0.000039
     11          6           0        3.577387    1.409359   -0.000166
     12          1           0       -3.731139   -0.591756   -0.884531
     13          1           0       -3.285875   -2.058610   -0.000159
     14          1           0       -3.731231   -0.591803    0.884243
     15          1           0       -0.504181   -2.391811   -0.000126
     16          1           0       -2.850872    1.935420   -0.891956
     17          1           0       -2.852154    1.934478    0.891151
     18          1           0       -1.562585    2.789225    0.000976
     19          1           0        4.270881    2.219906   -0.000284
 ---------------------------------------------------------------------

 SCF Done:  E(UB3LYP) =  -494.480563479     A.U. after   27 cycles

 The electronic state is 2-A.
 Alpha  occ. eigenvalues --  -18.88694 -14.24359 -14.16471 -10.10132 -10.07821
 Alpha  occ. eigenvalues --  -10.07582 -10.04131 -10.02650 -10.01645  -9.99567
 Alpha  occ. eigenvalues --   -9.98576  -0.90720  -0.83126  -0.70756  -0.67536
 Alpha  occ. eigenvalues --   -0.59263  -0.58517  -0.56988  -0.49165  -0.43951
 Alpha  occ. eigenvalues --   -0.41585  -0.37332  -0.36300  -0.34942  -0.32386
 Alpha  occ. eigenvalues --   -0.31792  -0.31478  -0.29823  -0.27261  -0.26873
 Alpha  occ. eigenvalues --   -0.25136  -0.23018  -0.21427  -0.14485  -0.11634
 Alpha  occ. eigenvalues --   -0.10930  -0.10806  -0.10221  -0.06452   0.05655
 Alpha virt. eigenvalues --    0.06703   0.08793   0.10125   0.10736   0.11397
 Alpha virt. eigenvalues --    0.12525   0.12675   0.14020   0.15192   0.15300
 Alpha virt. eigenvalues --    0.17138   0.17303   0.17406   0.17768   0.17863

  Beta  occ. eigenvalues --  -18.87873 -14.24251 -14.16055 -10.10139 -10.07817
  Beta  occ. eigenvalues --  -10.07653 -10.03696 -10.02695 -10.01573  -9.99629
  Beta  occ. eigenvalues --   -9.98317  -0.90383  -0.81664  -0.70453  -0.67507
  Beta  occ. eigenvalues --   -0.58997  -0.58150  -0.56820  -0.48349  -0.43613
  Beta  occ. eigenvalues --   -0.41233  -0.37196  -0.36078  -0.34549  -0.32243
  Beta  occ. eigenvalues --   -0.31814  -0.31432  -0.29641  -0.27173  -0.26098
  Beta  occ. eigenvalues --   -0.25006  -0.22088  -0.18460  -0.14006  -0.10761
  Beta  occ. eigenvalues --   -0.10601  -0.09579  -0.08282  -0.05721
  Beta virt. eigenvalues --    0.06647   0.08731   0.10041   0.10694   0.11327
  Beta virt. eigenvalues --    0.12541   0.12614   0.13282   0.13918   0.15250
  Beta virt. eigenvalues --    0.15860   0.17083   0.17248   0.17496   0.17720

 Mulliken charges and spin densities:
               1          2
     1  C   -0.412047   0.011087
     2  C    0.156619  -0.043371
     3  C   -0.512077   0.102212
     4  C   -0.075627  -0.046411
     5  N   -0.190085   0.218441
     6  N    0.280812   0.010724
     7  C   -0.309707  -0.002680
     8  C   -0.787828   0.276745
     9  O   -0.454231   0.289867
    10  C    0.981033  -0.097604
    11  C   -0.777208   0.285032
    12  H    0.136970  -0.002311
    13  H    0.160129  -0.000196
    14  H    0.136933  -0.002279
    15  H    0.156089  -0.005180
    16  H    0.115715   0.010182
    17  H    0.115662   0.010136
    18  H    0.177242  -0.001292
    19  H    0.101607  -0.013103
 Sum of Mulliken charges =  -1.00000   1.00000

 Dipole moment (field-independent basis, Debye):
    X=            -10.8761    Y=              2.4529    Z=             -0.0003  Tot=             11.1493
 Quadrupole moment (field-independent basis, Debye-Ang):
   XX=            -96.0569   YY=            -79.3223   ZZ=            -71.9869
   XY=              5.8240   XZ=             -0.0003   YZ=              0.0014

 Summary of Natural Population Analysis:

                                       Natural Population
                Natural  -----------------------------------------------
    Atom  No    Charge         Core      Valence    Rydberg      Total
 -----------------------------------------------------------------------
      C    1   -0.29783      0.99964     2.29409    0.00410     3.29783
      C    2    0.04703      0.99955     1.94362    0.00980     2.95297
      C    3   -0.13056      0.99946     2.12206    0.00904     3.13056
      C    4    0.03220      0.99957     1.95259    0.01564     2.96780
      N    5   -0.08559      0.99971     2.57288    0.01301     3.58559
      N    6   -0.10713      0.99963     2.59507    0.01243     3.60713
      C    7   -0.17407      0.99966     2.16822    0.00618     3.17407
      C    8    0.25775      0.99952     1.72246    0.02027     2.74225
      O    9   -0.20593      0.99988     3.20000    0.00605     4.20593
      C   10   -0.02937      0.99934     2.02008    0.00996     3.02937
      C   11   -0.09470      0.99930     2.09054    0.00486     3.09470
      H   12    0.09593      0.00000     0.40277    0.00130     0.40407
      H   13    0.10551      0.00000     0.39369    0.00080     0.39449
      H   14    0.09593      0.00000     0.40278    0.00130     0.40407
      H   15    0.10834      0.00000     0.39061    0.00105     0.39166
      H   16    0.08832      0.00000     0.41051    0.00118     0.41168
      H   17    0.08832      0.00000     0.41051    0.00118     0.41168
      H   18    0.11107      0.00000     0.38807    0.00086     0.38893
      H   19    0.09479      0.00000     0.40413    0.00108     0.40521
 =======================================================================
   * Total *   -0.00000     10.99525    27.88468    0.12007    39.00000

 Normal termination of Gaussian 16 at Mon Jan  4 09:03:30 2021.
