 Gaussian 16, Revision A.03,

 -----------------------------------------------------------
 # opt freq B3LYP/6-31G(d) empiricaldispersion=gd3bj scf=xqc
 -----------------------------------------------------------

 ------------------------------
 CID_82333120_JID_8256_neutraal
 ------------------------------
 Symbolic Z-matrix:
 Charge =  0 Multiplicity = 1

 SCF Done:  E(RB3LYP) =  -748.565107152     A.U. after   15 cycles
 SCF Done:  E(RB3LYP) =  -748.569676253     A.U. after   12 cycles
 SCF Done:  E(RB3LYP) =  -748.570102447     A.U. after   12 cycles
 SCF Done:  E(RB3LYP) =  -748.570174144     A.U. after   12 cycles
 SCF Done:  E(RB3LYP) =  -748.570289289     A.U. after   10 cycles
 SCF Done:  E(RB3LYP) =  -748.570337125     A.U. after   10 cycles
 SCF Done:  E(RB3LYP) =  -748.570358895     A.U. after   10 cycles
 SCF Done:  E(RB3LYP) =  -748.570368789     A.U. after    9 cycles
 SCF Done:  E(RB3LYP) =  -748.570383013     A.U. after   10 cycles
 SCF Done:  E(RB3LYP) =  -748.570394258     A.U. after    9 cycles
 SCF Done:  E(RB3LYP) =  -748.570452165     A.U. after   10 cycles
 SCF Done:  E(RB3LYP) =  -748.570458497     A.U. after   10 cycles
 SCF Done:  E(RB3LYP) =  -748.570458758     A.U. after    8 cycles
 SCF Done:  E(RB3LYP) =  -748.570458870     A.U. after    7 cycles
 SCF Done:  E(RB3LYP) =  -748.570458883     A.U. after    6 cycles
 Optimization completed.
    -- Stationary point found.
 Normal termination of Gaussian 16 at Fri Dec 11 19:52:06 2020.

 --------------------------------------------------------------------
 #N Geom=AllCheck Guess=TCheck SCRF=Check GenChk RB3LYP/6-31G(d) Freq
 --------------------------------------------------------------------

 Structure from the checkpoint file:  "JID_8256.chk"
 ------------------------------
 CID_82333120_JID_8256_neutraal
 ------------------------------
 Charge =  0 Multiplicity = 1

 SCF Done:  E(RB3LYP) =  -748.570458883     A.U. after    1 cycles

  Exact polarizability: 244.754  11.748 172.063 -18.682  -1.555 116.980
 Approx polarizability: 345.103  13.697 273.690 -41.049   1.796 175.868

                      1                      2                      3
                      A                      A                      A
 Frequencies --     25.5872                42.0850                45.6444
 Red. masses --      3.7625                 2.9559                 1.1749
 Frc consts  --      0.0015                 0.0031                 0.0014
 IR Inten    --      0.1869                 0.0330                 0.1445

                      4                      5                      6
                      A                      A                      A
 Frequencies --     50.6542                53.5961                77.4881
 Red. masses --      3.1237                 2.9603                 3.3404
 Frc consts  --      0.0047                 0.0050                 0.0118
 IR Inten    --      0.1555                 0.4668                 0.3052

                      7                      8                      9
                      A                      A                      A
 Frequencies --    104.5642               135.7920               146.8938
 Red. masses --      3.2960                 1.9822                 3.3021
 Frc consts  --      0.0212                 0.0215                 0.0420
 IR Inten    --      3.9196                 1.2181                 1.0817

                     10                     11                     12
                      A                      A                      A
 Frequencies --    186.8589               202.9987               207.1911
 Red. masses --      1.1381                 2.7394                 3.2509
 Frc consts  --      0.0234                 0.0665                 0.0822
 IR Inten    --      0.8467                 1.0537                 0.6033

                     13                     14                     15
                      A                      A                      A
 Frequencies --    236.5368               264.7397               286.4565
 Red. masses --      2.6781                 1.4784                 3.6140
 Frc consts  --      0.0883                 0.0611                 0.1747
 IR Inten    --      0.6204                 1.0178                 0.3670

                     16                     17                     18
                      A                      A                      A
 Frequencies --    297.9704               320.5491               337.4988
 Red. masses --      2.3493                 3.7746                 2.9067
 Frc consts  --      0.1229                 0.2285                 0.1951
 IR Inten    --      3.6095                 0.1538                 1.1158

                     19                     20                     21
                      A                      A                      A
 Frequencies --    384.3136               408.8602               414.5003
 Red. masses --      3.2791                 2.1758                 2.3881
 Frc consts  --      0.2853                 0.2143                 0.2417
 IR Inten    --      1.0462                 3.2757                 0.4591

                     22                     23                     24
                      A                      A                      A
 Frequencies --    441.7289               456.2541               497.6588
 Red. masses --      3.0141                 3.8151                 2.5556
 Frc consts  --      0.3465                 0.4679                 0.3729
 IR Inten    --      2.3262                 1.1633                 0.4797

                     25                     26                     27
                      A                      A                      A
 Frequencies --    522.3737               554.1727               593.5611
 Red. masses --      4.4981                 3.3003                 3.7951
 Frc consts  --      0.7232                 0.5972                 0.7878
 IR Inten    --      2.2650                 1.6415                 3.5980

                     28                     29                     30
                      A                      A                      A
 Frequencies --    614.7199               679.8947               693.5190
 Red. masses --      3.5893                 3.5843                 1.6275
 Frc consts  --      0.7991                 0.9762                 0.4612
 IR Inten    --      4.1308                 3.6133                 2.7660

                     31                     32                     33
                      A                      A                      A
 Frequencies --    741.0972               766.9363               773.5354
 Red. masses --      4.3408                 2.8870                 3.9539
 Frc consts  --      1.4047                 1.0005                 1.3939
 IR Inten    --      0.4764                 3.1039                 2.0860

                     34                     35                     36
                      A                      A                      A
 Frequencies --    799.3506               809.5704               823.5589
 Red. masses --      1.4586                 3.5901                 2.1299
 Frc consts  --      0.5491                 1.3863                 0.8511
 IR Inten    --     21.9776                 8.7578                61.5607

                     37                     38                     39
                      A                      A                      A
 Frequencies --    834.5176               873.8260               897.8559
 Red. masses --      3.1639                 2.2616                 1.3774
 Frc consts  --      1.2982                 1.0174                 0.6542
 IR Inten    --      7.4314                11.4606                 4.3872

                     40                     41                     42
                      A                      A                      A
 Frequencies --    906.7873               926.0629               934.8484
 Red. masses --      1.6064                 1.2698                 1.3387
 Frc consts  --      0.7782                 0.6416                 0.6893
 IR Inten    --     23.6404                 0.1117                42.1764

                     43                     44                     45
                      A                      A                      A
 Frequencies --    963.4093               978.2665               990.5008
 Red. masses --      2.4118                 1.9085                 1.5880
 Frc consts  --      1.3189                 1.0761                 0.9179
 IR Inten    --      3.5554                 4.6199                 0.4917

                     46                     47                     48
                      A                      A                      A
 Frequencies --   1007.9260              1025.5592              1036.7822
 Red. masses --      1.8273                 1.7873                 1.5587
 Frc consts  --      1.0937                 1.1076                 0.9871
 IR Inten    --     10.1640                 1.8274                17.1952

                     49                     50                     51
                      A                      A                      A
 Frequencies --   1066.9336              1073.7451              1076.0089
 Red. masses --      1.5839                 1.9065                 1.4877
 Frc consts  --      1.0623                 1.2951                 1.0148
 IR Inten    --      4.1053                 6.0689                 3.7020

                     52                     53                     54
                      A                      A                      A
 Frequencies --   1094.6488              1146.6613              1160.9730
 Red. masses --      1.7534                 2.7284                 1.5230
 Frc consts  --      1.2379                 2.1136                 1.2095
 IR Inten    --      1.4353                 0.6313                 3.9413

                     55                     56                     57
                      A                      A                      A
 Frequencies --   1173.4507              1176.9839              1189.0723
 Red. masses --      2.3286                 1.9382                 1.6365
 Frc consts  --      1.8892                 1.5819                 1.3633
 IR Inten    --     28.0215                 8.1862                20.6708

                     58                     59                     60
                      A                      A                      A
 Frequencies --   1195.4782              1225.8054              1265.1081
 Red. masses --      1.6376                 1.5198                 1.5808
 Frc consts  --      1.3789                 1.3455                 1.4907
 IR Inten    --      7.2372                30.5890                 1.7022

                     61                     62                     63
                      A                      A                      A
 Frequencies --   1290.4097              1309.0354              1316.7684
 Red. masses --      2.1154                 1.7393                 1.7843
 Frc consts  --      2.0754                 1.7560                 1.8228
 IR Inten    --     13.3604                 8.5128                21.0239

                     64                     65                     66
                      A                      A                      A
 Frequencies --   1318.1794              1356.4320              1373.7891
 Red. masses --      2.2835                 1.6086                 4.3496
 Frc consts  --      2.3378                 1.7437                 4.8366
 IR Inten    --      3.9584                33.6111                27.2119

                     67                     68                     69
                      A                      A                      A
 Frequencies --   1382.7347              1400.3756              1413.9673
 Red. masses --      1.4971                 1.3608                 3.0521
 Frc consts  --      1.6864                 1.5722                 3.5953
 IR Inten    --     32.5873                19.5689                14.4883

                     70                     71                     72
                      A                      A                      A
 Frequencies --   1442.6048              1443.5096              1447.6855
 Red. masses --      1.3043                 1.2615                 2.1860
 Frc consts  --      1.5993                 1.5487                 2.6992
 IR Inten    --      8.9256                 3.1254                43.9453

                     73                     74                     75
                      A                      A                      A
 Frequencies --   1475.9848              1479.8131              1483.8180
 Red. masses --      1.2783                 2.5418                 1.1876
 Frc consts  --      1.6408                 3.2794                 1.5406
 IR Inten    --      9.6848                31.3106                 5.0077

                     76                     77                     78
                      A                      A                      A
 Frequencies --   1504.2509              1506.7841              1515.5878
 Red. masses --      1.2126                 1.0562                 1.0446
 Frc consts  --      1.6167                 1.4128                 1.4137
 IR Inten    --     15.2449                 7.9862                 5.0402

                     79                     80                     81
                      A                      A                      A
 Frequencies --   1516.5091              1518.6953              1519.3928
 Red. masses --      1.0560                 1.3647                 1.1947
 Frc consts  --      1.4309                 1.8545                 1.6250
 IR Inten    --     16.0245                38.8878                13.8738

                     82                     83                     84
                      A                      A                      A
 Frequencies --   1522.3975              1535.7072              1542.8748
 Red. masses --      1.0808                 1.1142                 1.8962
 Frc consts  --      1.4759                 1.5482                 2.6594
 IR Inten    --     21.0680                 6.2436                17.3849

                     85                     86                     87
                      A                      A                      A
 Frequencies --   1550.4871              1563.9742              1568.6095
 Red. masses --      1.1522                 1.1636                 5.0089
 Frc consts  --      1.6320                 1.6769                 7.2614
 IR Inten    --      5.7197                54.1397                31.5575

                     88                     89                     90
                      A                      A                      A
 Frequencies --   1639.8506              1682.3048              1742.7171
 Red. masses --      6.6956                 6.9350                 5.1070
 Frc consts  --     10.6083                11.5639                 9.1383
 IR Inten    --      4.8958                 3.1202                 8.5214

                     91                     92                     93
                      A                      A                      A
 Frequencies --   2918.1085              2936.5355              3040.6852
 Red. masses --      1.0732                 1.0630                 1.0732
 Frc consts  --      5.3842                 5.4009                 5.8463
 IR Inten    --     60.9654               117.8181                92.4357

                     94                     95                     96
                      A                      A                      A
 Frequencies --   3040.9207              3044.3838              3060.4170
 Red. masses --      1.0493                 1.0390                 1.0732
 Frc consts  --      5.7167                 5.6736                 5.9223
 IR Inten    --      7.8514                15.4010                70.7529

                     97                     98                     99
                      A                      A                      A
 Frequencies --   3068.9051              3082.2944              3090.6534
 Red. masses --      1.0604                 1.0644                 1.1010
 Frc consts  --      5.8841                 5.9580                 6.1964
 IR Inten    --     17.4023                21.6582                23.9133

                    100                    101                    102
                      A                      A                      A
 Frequencies --   3096.6581              3113.8439              3116.4806
 Red. masses --      1.0980                 1.1041                 1.0998
 Frc consts  --      6.2036                 6.3076                 6.2936
 IR Inten    --     12.8852                14.4087                30.9713

                    103                    104                    105
                      A                      A                      A
 Frequencies --   3126.2823              3138.6881              3139.4628
 Red. masses --      1.1003                 1.1013                 1.0995
 Frc consts  --      6.3358                 6.3923                 6.3851
 IR Inten    --     17.2514                17.8195                22.8862

                    106                    107                    108
                      A                      A                      A
 Frequencies --   3160.6890              3178.9936              3198.4273
 Red. masses --      1.0606                 1.0869                 1.0938
 Frc consts  --      6.2427                 6.4714                 6.5927
 IR Inten    --      8.5920                12.4940                28.0515

                    109                    110                    111
                      A                      A                      A
 Frequencies --   3202.8403              3238.9320              3470.4920
 Red. masses --      1.0913                 1.1159                 1.0749
 Frc consts  --      6.5957                 6.8973                 7.6276
 IR Inten    --      5.8767                13.6079                54.8122

 - Thermochemistry -
 -------------------
 Temperature   298.150 Kelvin.  Pressure   1.00000 Atm.
 Atom     1 has atomic number  6 and mass  12.00000

 Molecular mass:   243.17355 amu.
 Principal axes and moments of inertia in atomic units:
                           1         2         3
     Eigenvalues --  3232.251736026.368008069.00128
           X            1.00000   0.00157   0.00022
           Y           -0.00157   0.99994  -0.01104
           Z           -0.00023   0.01103   0.99994
 This molecule is an asymmetric top.
 Rotational symmetry number  1.
 Warning -- assumption of classical behavior for rotation
           may cause significant error
 Rotational temperatures (Kelvin)      0.02680     0.01437     0.01073
 Rotational constants (GHZ):           0.55835     0.29947     0.22366
 Zero-point vibrational energy     891516.2 (Joules/Mol)
                                  213.07748 (Kcal/Mol)
 Warning -- explicit consideration of  28 degrees of freedom as
           vibrations may cause significant error
 Vibrational temperatures:     36.81    60.55    65.67    72.88    77.11
          (Kelvin)            111.49   150.44   195.37   211.35   268.85
                              292.07   298.10   340.32   380.90   412.15
                              428.71   461.20   485.59   552.94   588.26
                              596.37   635.55   656.45   716.02   751.58
                              797.33   854.00   884.44   978.22   997.82
                             1066.27  1103.45  1112.94  1150.09  1164.79
                             1184.92  1200.68  1257.24  1291.81  1304.66
                             1332.40  1345.04  1386.13  1407.51  1425.11
                             1450.18  1475.55  1491.70  1535.08  1544.88
                             1548.14  1574.96  1649.79  1670.38  1688.33
                             1693.42  1710.81  1720.03  1763.66  1820.21
                             1856.61  1883.41  1894.54  1896.57  1951.60
                             1976.58  1989.45  2014.83  2034.38  2075.59
                             2076.89  2082.90  2123.61  2129.12  2134.88
                             2164.28  2167.93  2180.59  2181.92  2185.06
                             2186.07  2190.39  2209.54  2219.85  2230.81
                             2250.21  2256.88  2359.38  2420.46  2507.38
                             4198.51  4225.02  4374.87  4375.21  4380.19
                             4403.26  4415.47  4434.73  4446.76  4455.40
                             4480.13  4483.92  4498.02  4515.87  4516.99
                             4547.53  4573.86  4601.82  4608.17  4660.10
                             4993.26

 Zero-point correction=                           0.339561 (Hartree/Particle)
 Thermal correction to Energy=                    0.357848
 Thermal correction to Enthalpy=                  0.358793
 Thermal correction to Gibbs Free Energy=         0.291615
 Sum of electronic and zero-point Energies=           -748.230898
 Sum of electronic and thermal Energies=              -748.212610
 Sum of electronic and thermal Enthalpies=            -748.211666
 Sum of electronic and thermal Free Energies=         -748.278844

                     E (Thermal)             CV                S
                      KCal/Mol        Cal/Mol-Kelvin    Cal/Mol-Kelvin
 Total                  224.553             68.543            141.387
 Electronic               0.000              0.000              0.000
 Translational            0.889              2.981             42.367
 Rotational               0.889              2.981             33.419
 Vibrational            222.776             62.581             65.602
 Vibration     1          0.593              1.985              6.145
 Vibration     2          0.595              1.980              5.158
 Vibration     3          0.595              1.979              4.998
 Vibration     4          0.595              1.977              4.792
 Vibration     5          0.596              1.976              4.680
 Vibration     6          0.599              1.964              3.954
 Vibration     7          0.605              1.946              3.367
 Vibration     8          0.614              1.918              2.862
 Vibration     9          0.617              1.906              2.712
 Vibration    10          0.632              1.858              2.259
 Vibration    11          0.639              1.836              2.106
 Vibration    12          0.641              1.830              2.068
 Vibration    13          0.655              1.785              1.829
 Vibration    14          0.671              1.738              1.630
 Vibration    15          0.684              1.699              1.495
 Vibration    16          0.691              1.678              1.428
 Vibration    17          0.706              1.634              1.307
 Vibration    18          0.718              1.601              1.224
 Vibration    19          0.753              1.504              1.022
 Vibration    20          0.773              1.451              0.931
 Vibration    21          0.778              1.439              0.911
 Vibration    22          0.801              1.379              0.821
 Vibration    23          0.814              1.347              0.777
 Vibration    24          0.853              1.255              0.664
 Vibration    25          0.877              1.200              0.604
 Vibration    26          0.910              1.131              0.536
 Vibration    27          0.951              1.045              0.461
 Vibration    28          0.974              1.001              0.425

 Optimization completed.
    -- Stationary point found.
 Normal termination of Gaussian 16 at Fri Dec 11 20:10:29 2020.

 ----------------------------------------------------------------------
 # B3LYP/6-311++G(d,p) empiricaldispersion=gd3bj scf=xqc pop=npa geom=c
 heck
 ----------------------------------------------------------------------

 --------------------------------------
 CID_82333120_JID_8256_Energie_neutraal
 --------------------------------------
 Structure from the checkpoint file:  "JID_8256.chk"
 Charge =  0 Multiplicity = 1

 SCF Done:  E(RB3LYP) =  -748.768781336     A.U. after   15 cycles
 Normal termination of Gaussian 16 at Fri Dec 11 20:19:05 2020.

 ----------------------------------------------------------------------
 # B3LYP/6-311++G(d,p) empiricaldispersion=gd3bj scf=xqc pop=npa geom=c
 heck
 ----------------------------------------------------------------------

 ------------------------------------
 CID_82333120_JID_8256_Energie_kation
 ------------------------------------
 Structure from the checkpoint file:  "JID_8256.chk"
 Charge =  1 Multiplicity = 2

 SCF Done:  E(UB3LYP) =  -748.491867490     A.U. after   32 cycles
 Normal termination of Gaussian 16 at Fri Dec 11 20:44:56 2020.
 Gaussian 16:  ES64L-G16RevA.03 25-Dec-2016

 ----------------------------------------------------------------------
 # B3LYP/6-311++G(d,p) empiricaldispersion=gd3bj scf=xqc pop=npa geom=c
 heck
 ----------------------------------------------------------------------

 -----------------------------------
 CID_82333120_JID_8256_Energie_anion
 -----------------------------------
 Structure from the checkpoint file:  "JID_8256.chk"
 Charge = -1 Multiplicity = 2

                         Standard orientation:
 ---------------------------------------------------------------------
 Center     Atomic      Atomic             Coordinates (Angstroms)
 Number     Number       Type             X           Y           Z
 ---------------------------------------------------------------------
      1          6           0       -4.971454   -1.191688    0.574081
      2          6           0       -3.636129   -0.581731    0.216876
      3          6           0       -2.549883   -1.387856   -0.118366
      4          6           0       -1.329670   -0.783622   -0.441332
      5          6           0       -1.213376    0.624393   -0.431408
      6          6           0       -2.287283    1.450353   -0.097210
      7          6           0       -3.487918    0.825135    0.223364
      8          7           0        0.102717    0.883372   -0.799242
      9          6           0        0.710947   -0.347362   -0.991430
     10          7           0       -0.115556   -1.355917   -0.795397
     11          6           0        2.163471   -0.508487   -1.315136
     12          6           0        2.938852   -1.122362   -0.135234
     13          7           0        2.592756   -2.524388    0.027704
     14          6           0        3.094090   -3.085884    1.271095
     15          6           0        0.746395    2.191725   -0.787252
     16          6           0        1.611689    2.408505    0.437567
     17          6           0        2.876399    2.816848    0.310522
     18          6           0        0.956474    2.145182    1.766424
     19          1           0       -5.759228   -0.865508   -0.116536
     20          1           0       -5.288711   -0.901140    1.583402
     21          1           0       -4.930237   -2.284531    0.539352
     22          1           0       -2.637789   -2.470283   -0.129668
     23          1           0       -2.202509    2.533063   -0.080758
     24          1           0       -4.344970    1.438533    0.490160
     25          1           0        2.262514   -1.178972   -2.175461
     26          1           0        2.606823    0.453523   -1.581070
     27          1           0        4.016076   -1.043375   -0.336882
     28          1           0        2.744816   -0.514703    0.771790
     29          1           0        1.577241   -2.613488   -0.017936
     30          1           0        2.778033   -2.534386    2.178448
     31          1           0        2.757401   -4.123189    1.366975
     32          1           0        4.191585   -3.091402    1.258648
     33          1           0        1.331487    2.318609   -1.702570
     34          1           0       -0.058687    2.934319   -0.817948
     35          1           0        3.504875    3.003476    1.176833
     36          1           0        3.328596    2.984483   -0.663982
     37          1           0        0.048007    2.749379    1.887681
     38          1           0        0.645152    1.096948    1.848178
     39          1           0        1.634487    2.368280    2.594529
 ---------------------------------------------------------------------

 SCF Done:  E(UB3LYP) =  -748.757731122     A.U. after   33 cycles
 SCF Done:  E(UB3LYP) =  -748.757731122     a.u. after    1 cycles

 The electronic state is 2-A.
 Alpha  occ. eigenvalues --  -14.27477 -14.20172 -14.19819 -10.14645 -10.12758
 Alpha  occ. eigenvalues --  -10.11199 -10.10186 -10.09990 -10.09691 -10.09494
 Alpha  occ. eigenvalues --  -10.08916 -10.08805 -10.08380 -10.08347 -10.07734
 Alpha  occ. eigenvalues --  -10.07664 -10.07040 -10.06883  -0.92722  -0.81333
 Alpha  occ. eigenvalues --   -0.80264  -0.75861  -0.71781  -0.69434  -0.66992
 Alpha  occ. eigenvalues --   -0.63967  -0.62234  -0.59821  -0.59679  -0.57157
 Alpha  occ. eigenvalues --   -0.53417  -0.50528  -0.50079  -0.48118  -0.44807
 Alpha  occ. eigenvalues --   -0.42438  -0.41273  -0.39882  -0.38194  -0.38048
 Alpha  occ. eigenvalues --   -0.36575  -0.36362  -0.35641  -0.34521  -0.34302
 Alpha  occ. eigenvalues --   -0.33796  -0.33151  -0.32506  -0.31399  -0.30327
 Alpha  occ. eigenvalues --   -0.29962  -0.29068  -0.28267  -0.27694  -0.27477
 Alpha  occ. eigenvalues --   -0.27066  -0.26517  -0.26264  -0.25946  -0.23201
 Alpha  occ. eigenvalues --   -0.20674  -0.18575  -0.16818  -0.13700  -0.13100
 Alpha  occ. eigenvalues --   -0.13038   0.04119
 Alpha virt. eigenvalues --    0.06021   0.06196   0.06750   0.07060   0.07705
 Alpha virt. eigenvalues --    0.07971   0.08745   0.08803   0.09312   0.09473
 Alpha virt. eigenvalues --    0.09727   0.10432   0.10763   0.11244   0.11404

  Beta  occ. eigenvalues --  -14.27474 -14.20164 -14.19816 -10.14625 -10.12725
  Beta  occ. eigenvalues --  -10.11203 -10.10170 -10.09990 -10.09681 -10.09486
  Beta  occ. eigenvalues --  -10.08907 -10.08802 -10.08338 -10.08336 -10.07719
  Beta  occ. eigenvalues --  -10.07639 -10.07000 -10.06841  -0.92702  -0.81323
  Beta  occ. eigenvalues --   -0.80246  -0.75825  -0.71746  -0.69404  -0.66952
  Beta  occ. eigenvalues --   -0.63927  -0.62187  -0.59786  -0.59615  -0.57127
  Beta  occ. eigenvalues --   -0.53371  -0.50485  -0.50048  -0.48077  -0.44744
  Beta  occ. eigenvalues --   -0.42378  -0.41236  -0.39855  -0.38148  -0.38017
  Beta  occ. eigenvalues --   -0.36530  -0.36335  -0.35618  -0.34490  -0.34261
  Beta  occ. eigenvalues --   -0.33764  -0.33121  -0.32477  -0.31354  -0.30302
  Beta  occ. eigenvalues --   -0.29940  -0.29034  -0.28223  -0.27676  -0.27447
  Beta  occ. eigenvalues --   -0.27037  -0.26473  -0.26240  -0.25919  -0.23122
  Beta  occ. eigenvalues --   -0.20609  -0.18553  -0.16756  -0.13621  -0.13032
  Beta  occ. eigenvalues --   -0.12984
  Beta virt. eigenvalues --    0.06007   0.06318   0.06878   0.07123   0.07634
  Beta virt. eigenvalues --    0.08149   0.08268   0.08815   0.08954   0.09655
  Beta virt. eigenvalues --    0.09759   0.10056   0.10872   0.11057   0.11342

 Mulliken charges and spin densities:
               1          2
     1  C    0.438718  -1.012970
     2  C    0.425431   0.021795
     3  C   -0.754712   0.248507
     4  C   -0.352290   0.099769
     5  C    0.171534   0.156021
     6  C   -0.036992  -0.135666
     7  C    0.386902  -0.716343
     8  N    0.148603   0.113619
     9  C   -0.046644   0.106288
    10  N   -0.090544   0.042325
    11  C    0.056565  -0.302536
    12  C   -0.580819  -0.043555
    13  N   -0.146894   0.034134
    14  C   -0.090614  -0.259881
    15  C    0.965594  -1.911819
    16  C   -1.690553   2.788525
    17  C    1.392004  -1.992763
    18  C    0.354950  -1.091109
    19  H    0.079582   0.068682
    20  H    0.058090   0.090934
    21  H    0.081038   0.056346
    22  H    0.085718   0.054004
    23  H   -0.477747   0.620211
    24  H   -0.230019   0.406717
    25  H    0.133210   0.083177
    26  H    0.204318  -0.074380
    27  H   -0.175203   0.371610
    28  H    0.276120  -0.172419
    29  H    0.250745   0.005651
    30  H   -0.010829   0.123887
    31  H    0.063497   0.056053
    32  H    0.020679   0.110025
    33  H   -0.519667   0.722555
    34  H   -0.264662   0.424751
    35  H   -0.262971   0.394171
    36  H   -0.456015   0.603115
    37  H   -0.236720   0.410198
    38  H    0.084818   0.092143
    39  H   -0.254219   0.408231
 Sum of Mulliken charges =  -1.00000   1.00000

 Dipole moment (field-independent basis, Debye):
    X=             -2.8646    Y=             -5.6313    Z=             -0.2548  Tot=              6.3231
 Quadrupole moment (field-independent basis, Debye-Ang):
   XX=           -178.5008   YY=           -174.6115   ZZ=           -147.0968
   XY=             -2.2541   XZ=              1.9774   YZ=             -4.0472

 Summary of Natural Population Analysis:

                                       Natural Population
                Natural  -----------------------------------------------
    Atom  No    Charge         Core      Valence    Rydberg      Total
 -----------------------------------------------------------------------
      C    1   -0.28926      0.99964     2.28493    0.00469     3.28926
      C    2   -0.02860      0.99953     2.01960    0.00946     3.02860
      C    3   -0.09887      0.99948     2.09154    0.00785     3.09887
      C    4    0.06066      0.99946     1.92703    0.01286     2.93934
      C    5    0.06687      0.99944     1.92265    0.01103     2.93313
      C    6   -0.10562      0.99952     2.09706    0.00903     3.10562
      C    7   -0.10297      0.99953     2.09349    0.00994     3.10297
      N    8   -0.21368      0.99959     2.70324    0.01086     3.71368
      C    9    0.22671      0.99959     1.75646    0.01724     2.77329
      N   10   -0.27223      0.99966     2.76401    0.00855     3.77223
      C   11   -0.22035      0.99958     2.21114    0.00962     3.22035
      C   12   -0.07959      0.99963     2.06803    0.01193     3.07959
      N   13   -0.34838      0.99974     2.83794    0.01070     3.84838
      C   14   -0.17672      0.99967     2.17035    0.00669     3.17672
      C   15   -0.09716      0.99955     2.08424    0.01337     3.09716
      C   16   -0.01129      0.99952     1.99992    0.01185     3.01129
      C   17   -0.18558      0.99947     2.17718    0.00893     3.18558
      C   18   -0.30205      0.99961     2.29573    0.00671     3.30205
      H   19    0.10046      0.00000     0.39836    0.00117     0.39954
      H   20    0.10139      0.00000     0.39740    0.00121     0.39861
      H   21    0.09923      0.00000     0.40001    0.00077     0.40077
      H   22    0.09986      0.00000     0.39865    0.00149     0.40014
      H   23    0.10635      0.00000     0.39184    0.00181     0.39365
      H   24    0.09856      0.00000     0.40043    0.00101     0.40144
      H   25    0.11333      0.00000     0.38511    0.00156     0.38667
      H   26    0.11137      0.00000     0.38730    0.00134     0.38863
      H   27    0.09114      0.00000     0.40756    0.00131     0.40886
      H   28    0.08207      0.00000     0.41614    0.00178     0.41793
      H   29    0.18799      0.00000     0.30842    0.00359     0.31201
      H   30    0.07793      0.00000     0.42036    0.00170     0.42207
      H   31    0.09173      0.00000     0.40747    0.00080     0.40827
      H   32    0.08802      0.00000     0.41067    0.00130     0.41198
      H   33    0.10649      0.00000     0.39186    0.00165     0.39351
      H   34    0.11025      0.00000     0.38742    0.00233     0.38975
      H   35    0.09686      0.00000     0.40183    0.00131     0.40314
      H   36    0.09555      0.00000     0.40236    0.00209     0.40445
      H   37    0.10793      0.00000     0.39031    0.00176     0.39207
      H   38    0.10602      0.00000     0.39245    0.00153     0.39398
      H   39    0.10558      0.00000     0.39331    0.00111     0.39442
 =======================================================================
   * Total *    0.00000     17.99222    47.79383    0.21395    66.00000

 Normal termination of Gaussian 16 at Fri Dec 11 21:12:10 2020.
