 Gaussian 16, Revision A.03,

 -----------------------------------------------------------
 # opt freq B3LYP/6-31G(d) empiricaldispersion=gd3bj scf=xqc
 -----------------------------------------------------------

 -------------------------------
 CID_107006928_JID_4458_neutraal
 -------------------------------
 Symbolic Z-matrix:
 Charge =  0 Multiplicity = 1

 SCF Done:  E(RB3LYP) =  -601.080057204     A.U. after   13 cycles
 SCF Done:  E(RB3LYP) =  -601.087401674     A.U. after   11 cycles
 SCF Done:  E(RB3LYP) =  -601.087844899     A.U. after   11 cycles
 SCF Done:  E(RB3LYP) =  -601.088001528     A.U. after   10 cycles
 SCF Done:  E(RB3LYP) =  -601.088063635     A.U. after   10 cycles
 SCF Done:  E(RB3LYP) =  -601.088081974     A.U. after   10 cycles
 SCF Done:  E(RB3LYP) =  -601.088090114     A.U. after    9 cycles
 SCF Done:  E(RB3LYP) =  -601.088090919     A.U. after    7 cycles
 SCF Done:  E(RB3LYP) =  -601.088091388     A.U. after    8 cycles
 SCF Done:  E(RB3LYP) =  -601.088091459     A.U. after    6 cycles
 SCF Done:  E(RB3LYP) =  -601.088091479     A.U. after    6 cycles
 Optimization completed.
    -- Stationary point found.
 Normal termination of Gaussian 16 at Thu Dec 10 09:49:19 2020.

 --------------------------------------------------------------------
 #N Geom=AllCheck Guess=TCheck SCRF=Check GenChk RB3LYP/6-31G(d) Freq
 --------------------------------------------------------------------

 Structure from the checkpoint file:  "JID_4458.chk"
 -------------------------------
 CID_107006928_JID_4458_neutraal
 -------------------------------
 Charge =  0 Multiplicity = 1

 SCF Done:  E(RB3LYP) =  -601.088091479     A.U. after    1 cycles

  Exact polarizability: 165.025 -10.130 128.905   0.344   5.077 110.615
 Approx polarizability: 198.133 -14.219 181.616  -3.351   9.706 169.641

                      1                      2                      3
                      A                      A                      A
 Frequencies --     19.7954                33.8264                47.0014
 Red. masses --      4.7246                 2.9764                 3.0637
 Frc consts  --      0.0011                 0.0020                 0.0040
 IR Inten    --      0.0553                 0.2676                 0.1907

                      4                      5                      6
                      A                      A                      A
 Frequencies --     60.2686                68.2176                78.0758
 Red. masses --      2.9118                 3.1277                 3.0598
 Frc consts  --      0.0062                 0.0086                 0.0110
 IR Inten    --      0.0400                 1.1074                 1.3855

                      7                      8                      9
                      A                      A                      A
 Frequencies --     99.8780               128.9381               182.1264
 Red. masses --      3.7628                 2.7066                 2.7842
 Frc consts  --      0.0221                 0.0265                 0.0544
 IR Inten    --      1.2194                 0.3381                 0.3781

                     10                     11                     12
                      A                      A                      A
 Frequencies --    211.0998               251.6710               281.3770
 Red. masses --      3.2173                 2.4289                 2.2172
 Frc consts  --      0.0845                 0.0906                 0.1034
 IR Inten    --      0.6137                 1.1339                 4.8937

                     13                     14                     15
                      A                      A                      A
 Frequencies --    289.2826               292.4570               333.1005
 Red. masses --      2.5249                 1.0943                 2.2302
 Frc consts  --      0.1245                 0.0551                 0.1458
 IR Inten    --      2.4267                93.0148                 0.9675

                     16                     17                     18
                      A                      A                      A
 Frequencies --    359.8963               402.1403               419.6305
 Red. masses --      2.0331                 2.1985                 2.2591
 Frc consts  --      0.1552                 0.2095                 0.2344
 IR Inten    --      0.3837                 8.1811                 4.7721

                     19                     20                     21
                      A                      A                      A
 Frequencies --    440.4998               447.7228               503.5942
 Red. masses --      1.8291                 1.7082                 2.1853
 Frc consts  --      0.2091                 0.2017                 0.3265
 IR Inten    --      5.0618                 0.6562                 1.4330

                     22                     23                     24
                      A                      A                      A
 Frequencies --    576.0544               672.3211               693.6846
 Red. masses --      2.4629                 1.7336                 2.1635
 Frc consts  --      0.4815                 0.4617                 0.6134
 IR Inten    --      0.6150                 6.6126                18.6934

                     25                     26                     27
                      A                      A                      A
 Frequencies --    728.9320               761.4724               792.5597
 Red. masses --      1.4227                 1.4202                 2.0012
 Frc consts  --      0.4454                 0.4852                 0.7406
 IR Inten    --     11.5641                93.9172                 1.6201

                     28                     29                     30
                      A                      A                      A
 Frequencies --    797.7880               839.3600               844.6893
 Red. masses --      1.6480                 2.5983                 1.9323
 Frc consts  --      0.6180                 1.0785                 0.8123
 IR Inten    --     11.2663                10.1541                 1.4846

                     31                     32                     33
                      A                      A                      A
 Frequencies --    870.7880               897.2100               929.4697
 Red. masses --      1.9376                 2.0989                 2.4295
 Frc consts  --      0.8656                 0.9955                 1.2366
 IR Inten    --      0.8128                 2.8733                 5.7043

                     34                     35                     36
                      A                      A                      A
 Frequencies --    935.7800               939.6754               941.9931
 Red. masses --      1.7296                 1.3670                 1.6046
 Frc consts  --      0.8924                 0.7112                 0.8389
 IR Inten    --      3.5081                38.2600                 6.7932

                     37                     38                     39
                      A                      A                      A
 Frequencies --    976.0730               980.7662              1018.7462
 Red. masses --      1.6676                 2.1293                 1.6579
 Frc consts  --      0.9361                 1.2067                 1.0138
 IR Inten    --      3.8570                 3.0328                 3.9099

                     40                     41                     42
                      A                      A                      A
 Frequencies --   1026.6832              1037.5588              1041.8046
 Red. masses --      2.0430                 1.8628                 1.1649
 Frc consts  --      1.2688                 1.1815                 0.7449
 IR Inten    --      1.8671                 1.5804                 9.5551

                     43                     44                     45
                      A                      A                      A
 Frequencies --   1064.7052              1092.0957              1098.7156
 Red. masses --      1.4407                 1.5008                 1.9422
 Frc consts  --      0.9622                 1.0546                 1.3814
 IR Inten    --      5.1329                 3.9930                 2.5152

                     46                     47                     48
                      A                      A                      A
 Frequencies --   1113.9371              1122.5254              1146.6075
 Red. masses --      1.9932                 2.3287                 1.9461
 Frc consts  --      1.4572                 1.7288                 1.5075
 IR Inten    --      8.7181                16.5786                89.6102

                     49                     50                     51
                      A                      A                      A
 Frequencies --   1158.7701              1171.8010              1173.5256
 Red. masses --      2.1013                 3.1806                 1.1926
 Frc consts  --      1.6624                 2.5732                 0.9677
 IR Inten    --     17.6076                44.9500                19.4902

                     52                     53                     54
                      A                      A                      A
 Frequencies --   1227.1112              1230.4913              1233.0539
 Red. masses --      1.4438                 1.5156                 1.5263
 Frc consts  --      1.2809                 1.3521                 1.3673
 IR Inten    --      3.9930                 6.7046                 1.1710

                     55                     56                     57
                      A                      A                      A
 Frequencies --   1267.4581              1272.3724              1283.5450
 Red. masses --      1.2896                 1.3245                 1.4608
 Frc consts  --      1.2206                 1.2634                 1.4180
 IR Inten    --      3.9769                 2.2741                 2.4409

                     58                     59                     60
                      A                      A                      A
 Frequencies --   1288.6781              1300.2405              1326.8489
 Red. masses --      1.3772                 1.3427                 1.3813
 Frc consts  --      1.3475                 1.3374                 1.4328
 IR Inten    --      2.3872                 3.3669                 0.5057

                     61                     62                     63
                      A                      A                      A
 Frequencies --   1333.7628              1339.0735              1353.0864
 Red. masses --      1.2890                 1.2310                 1.2184
 Frc consts  --      1.3510                 1.3005                 1.3143
 IR Inten    --      0.4109                 0.5600                 9.2673

                     64                     65                     66
                      A                      A                      A
 Frequencies --   1368.4052              1379.8586              1385.2518
 Red. masses --      1.4094                 1.2635                 1.3809
 Frc consts  --      1.5549                 1.4174                 1.5612
 IR Inten    --      1.0002                11.7221                16.5190

                     67                     68                     69
                      A                      A                      A
 Frequencies --   1402.7391              1409.6177              1417.9000
 Red. masses --      1.3947                 1.4176                 1.4052
 Frc consts  --      1.6169                 1.6596                 1.6644
 IR Inten    --      7.9379                 5.4446                 2.4891

                     70                     71                     72
                      A                      A                      A
 Frequencies --   1435.5375              1448.8250              1477.0454
 Red. masses --      1.3560                 1.2294                 1.1833
 Frc consts  --      1.6465                 1.5204                 1.5210
 IR Inten    --      1.8305                74.6277                 0.8292

                     73                     74                     75
                      A                      A                      A
 Frequencies --   1490.5993              1501.9935              1505.7343
 Red. masses --      1.0880                 1.0922                 1.1025
 Frc consts  --      1.4244                 1.4517                 1.4727
 IR Inten    --      2.1636                 3.8312                 3.7194

                     76                     77                     78
                      A                      A                      A
 Frequencies --   1512.7742              1518.4829              1520.5354
 Red. masses --      1.1459                 1.1061                 1.1238
 Frc consts  --      1.5451                 1.5027                 1.5308
 IR Inten    --     18.8833                 3.6765                 9.1809

                     79                     80                     81
                      A                      A                      A
 Frequencies --   1525.9775              1541.1914              1551.8083
 Red. masses --      1.1284                 1.1040                 1.0873
 Frc consts  --      1.5482                 1.5451                 1.5426
 IR Inten    --     20.3986                 6.1372                15.1613

                     82                     83                     84
                      A                      A                      A
 Frequencies --   1734.8173              2972.0319              3016.7620
 Red. masses --      4.4772                 1.0709                 1.0711
 Frc consts  --      7.9390                 5.5734                 5.7433
 IR Inten    --      6.0488                62.1242                 8.9488

                     85                     86                     87
                      A                      A                      A
 Frequencies --   3023.5417              3028.3318              3031.4861
 Red. masses --      1.0733                 1.0635                 1.0648
 Frc consts  --      5.7812                 5.7463                 5.7654
 IR Inten    --     54.8353                13.3091                48.3520

                     88                     89                     90
                      A                      A                      A
 Frequencies --   3041.0984              3043.6389              3056.5443
 Red. masses --      1.0631                 1.0669                 1.0596
 Frc consts  --      5.7926                 5.8232                 5.8325
 IR Inten    --     21.1971                 2.7840                53.5731

                     91                     92                     93
                      A                      A                      A
 Frequencies --   3057.1889              3061.8981              3063.5350
 Red. masses --      1.0858                 1.0952                 1.0688
 Frc consts  --      5.9793                 6.0497                 5.9098
 IR Inten    --     27.8420                26.8827                34.2172

                     94                     95                     96
                      A                      A                      A
 Frequencies --   3066.9771              3075.8819              3082.6112
 Red. masses --      1.0967                 1.0966                 1.1015
 Frc consts  --      6.0780                 6.1126                 6.1671
 IR Inten    --     22.0279                59.0431                82.4794

                     97                     98                     99
                      A                      A                      A
 Frequencies --   3089.4129              3107.0517              3113.9492
 Red. masses --      1.1020                 1.0933                 1.1067
 Frc consts  --      6.1969                 6.2186                 6.3227
 IR Inten    --     51.6035                34.9276                15.9813

                    100                    101                    102
                      A                      A                      A
 Frequencies --   3118.2503              3147.1222              3156.5858
 Red. masses --      1.1025                 1.0729                 1.0764
 Frc consts  --      6.3163                 6.2610                 6.3190
 IR Inten    --     65.3734                26.1696                 4.7852

                    103                    104                    105
                      A                      A                      A
 Frequencies --   3233.9656              3494.4151              3726.3220
 Red. masses --      1.1154                 1.0731                 1.0658
 Frc consts  --      6.8734                 7.7203                 8.7193
 IR Inten    --     21.6929                 1.1521                 4.0917

 - Thermochemistry -
 -------------------
 Temperature   298.150 Kelvin.  Pressure   1.00000 Atm.
 Atom     1 has atomic number  6 and mass  12.00000

 Molecular mass:   197.17796 amu.
 Principal axes and moments of inertia in atomic units:
                           1         2         3
     Eigenvalues --  1714.911526945.083168098.06569
           X            0.99995  -0.00976  -0.00072
           Y            0.00976   0.99993   0.00668
           Z            0.00065  -0.00669   0.99998
 This molecule is an asymmetric top.
 Rotational symmetry number  1.
 Warning -- assumption of classical behavior for rotation
           may cause significant error
 Rotational temperatures (Kelvin)      0.05051     0.01247     0.01070
 Rotational constants (GHZ):           1.05238     0.25986     0.22286
 Zero-point vibrational energy     889962.5 (Joules/Mol)
                                  212.70614 (Kcal/Mol)
 Warning -- explicit consideration of  22 degrees of freedom as
           vibrations may cause significant error
 Vibrational temperatures:     28.48    48.67    67.62    86.71    98.15
          (Kelvin)            112.33   143.70   185.51   262.04   303.73
                              362.10   404.84   416.21   420.78   479.26
                              517.81   578.59   603.75   633.78   644.17
                              724.56   828.81   967.32   998.06  1048.77
                             1095.59  1140.32  1147.84  1207.65  1215.32
                             1252.87  1290.89  1337.30  1346.38  1351.98
                             1355.32  1404.35  1411.10  1465.75  1477.17
                             1492.82  1498.92  1531.87  1571.28  1580.81
                             1602.71  1615.06  1649.71  1667.21  1685.96
                             1688.44  1765.54  1770.40  1774.09  1823.59
                             1830.66  1846.73  1854.12  1870.76  1909.04
                             1918.99  1926.63  1946.79  1968.83  1985.31
                             1993.07  2018.23  2028.13  2040.04  2065.42
                             2084.54  2125.14  2144.64  2161.03  2166.42
                             2176.54  2184.76  2187.71  2195.54  2217.43
                             2232.71  2496.02  4276.09  4340.45  4350.20
                             4357.09  4361.63  4375.46  4379.12  4397.69
                             4398.61  4405.39  4407.74  4412.70  4425.51
                             4435.19  4444.98  4470.35  4480.28  4486.47
                             4528.01  4541.62  4652.96  5027.68  5361.35

 Zero-point correction=                           0.338969 (Hartree/Particle)
 Thermal correction to Energy=                    0.355093
 Thermal correction to Enthalpy=                  0.356038
 Thermal correction to Gibbs Free Energy=         0.292964
 Sum of electronic and zero-point Energies=           -600.749123
 Sum of electronic and thermal Energies=              -600.732998
 Sum of electronic and thermal Enthalpies=            -600.732054
 Sum of electronic and thermal Free Energies=         -600.795128

                     E (Thermal)             CV                S
                      KCal/Mol        Cal/Mol-Kelvin    Cal/Mol-Kelvin
 Total                  222.825             59.868            132.750
 Electronic               0.000              0.000              0.000
 Translational            0.889              2.981             41.742
 Rotational               0.889              2.981             32.933
 Vibrational            221.047             53.906             58.075
 Vibration     1          0.593              1.986              6.655
 Vibration     2          0.594              1.983              5.591
 Vibration     3          0.595              1.979              4.940
 Vibration     4          0.597              1.973              4.448
 Vibration     5          0.598              1.969              4.204
 Vibration     6          0.599              1.964              3.939
 Vibration     7          0.604              1.949              3.457
 Vibration     8          0.611              1.924              2.962
 Vibration     9          0.630              1.864              2.307
 Vibration    10          0.643              1.824              2.034
 Vibration    11          0.664              1.760              1.719
 Vibration    12          0.681              1.708              1.525
 Vibration    13          0.686              1.694              1.478
 Vibration    14          0.688              1.688              1.460
 Vibration    15          0.715              1.609              1.245
 Vibration    16          0.734              1.555              1.123
 Vibration    17          0.768              1.466              0.955
 Vibration    18          0.782              1.428              0.893
 Vibration    19          0.800              1.382              0.825
 Vibration    20          0.807              1.366              0.803
 Vibration    21          0.859              1.242              0.649
 Vibration    22          0.932              1.083              0.493

 Optimization completed.
    -- Stationary point found.
 Normal termination of Gaussian 16 at Thu Dec 10 09:58:57 2020.

 ----------------------------------------------------------------------
 # B3LYP/6-311++G(d,p) empiricaldispersion=gd3bj scf=xqc pop=npa geom=c
 heck
 ----------------------------------------------------------------------

 ---------------------------------------
 CID_107006928_JID_4458_Energie_neutraal
 ---------------------------------------
 Structure from the checkpoint file:  "JID_4458.chk"
 Charge =  0 Multiplicity = 1

 SCF Done:  E(RB3LYP) =  -601.271734373     A.U. after   13 cycles
 Normal termination of Gaussian 16 at Thu Dec 10 10:03:16 2020.

 ----------------------------------------------------------------------
 # B3LYP/6-311++G(d,p) empiricaldispersion=gd3bj scf=xqc pop=npa geom=c
 heck
 ----------------------------------------------------------------------

 -------------------------------------
 CID_107006928_JID_4458_Energie_kation
 -------------------------------------
 Structure from the checkpoint file:  "JID_4458.chk"
 Charge =  1 Multiplicity = 2

 SCF Done:  E(UB3LYP) =  -600.973073764     A.U. after   24 cycles
 Normal termination of Gaussian 16 at Thu Dec 10 10:17:14 2020.
 Gaussian 16:  ES64L-G16RevA.03 25-Dec-2016

 ----------------------------------------------------------------------
 # B3LYP/6-311++G(d,p) empiricaldispersion=gd3bj scf=xqc pop=npa geom=c
 heck
 ----------------------------------------------------------------------

 ------------------------------------
 CID_107006928_JID_4458_Energie_anion
 ------------------------------------
 Structure from the checkpoint file:  "JID_4458.chk"
 Charge = -1 Multiplicity = 2

                         Standard orientation:
 ---------------------------------------------------------------------
 Center     Atomic      Atomic             Coordinates (Angstroms)
 Number     Number       Type             X           Y           Z
 ---------------------------------------------------------------------
      1          6           0       -5.309842    1.759128   -0.060412
      2          6           0       -4.303711    0.944277   -0.378104
      3          6           0       -2.865544    1.168507   -0.001231
      4          6           0       -2.332567    0.147015    1.025374
      5          6           0       -2.438922   -1.324795    0.595287
      6          6           0       -1.736396   -1.673837   -0.727555
      7          6           0       -0.258736   -1.277070   -0.783495
      8          7           0        0.512318   -1.952900    0.257865
      9          6           0        1.954073   -1.732409    0.209492
     10          6           0        2.457954   -0.297877    0.389825
     11          6           0        2.383319    0.705920   -0.800340
     12          6           0        3.825414    1.178022   -0.473154
     13          6           0        4.001256   -0.094818    0.400272
     14          8           0        3.907898    2.404471    0.234357
     15          1           0       -5.142808    2.677694    0.499121
     16          1           0       -6.335798    1.545571   -0.347862
     17          1           0       -4.520044    0.036558   -0.942186
     18          1           0       -2.241272    1.128550   -0.904881
     19          1           0       -2.751247    2.178179    0.412094
     20          1           0       -1.284725    0.394418    1.245225
     21          1           0       -2.884038    0.277881    1.964905
     22          1           0       -2.031808   -1.955311    1.396706
     23          1           0       -3.496987   -1.603037    0.515086
     24          1           0       -1.815291   -2.754728   -0.893323
     25          1           0       -2.254338   -1.184774   -1.563109
     26          1           0        0.159107   -1.583861   -1.751214
     27          1           0       -0.173815   -0.177142   -0.748909
     28          1           0        0.164686   -1.671426    1.172528
     29          1           0        2.408608   -2.360195    0.988185
     30          1           0        2.321780   -2.117213   -0.753071
     31          1           0        1.998932    0.128139    1.293453
     32          1           0        1.612456    1.483246   -0.776690
     33          1           0        2.325476    0.186881   -1.763802
     34          1           0        4.510047    1.292657   -1.317364
     35          1           0        4.515006   -0.898144   -0.141450
     36          1           0        4.499506    0.050062    1.364601
     37          1           0        3.309358    2.348153    0.996288
 ---------------------------------------------------------------------

 SCF Done:  E(UB3LYP) =  -601.258845947     A.U. after   33 cycles
 SCF Done:  E(UB3LYP) =  -601.258845948     a.u. after    1 cycles

 The electronic state is 2-A.
 Alpha  occ. eigenvalues --  -19.02482 -14.19780 -10.12541 -10.09452 -10.09286
 Alpha  occ. eigenvalues --  -10.08284 -10.07470 -10.07309 -10.07113 -10.07080
 Alpha  occ. eigenvalues --  -10.07033 -10.06939 -10.06865 -10.06793  -0.92801
 Alpha  occ. eigenvalues --   -0.80980  -0.74037  -0.71895  -0.68313  -0.63832
 Alpha  occ. eigenvalues --   -0.60200  -0.57419  -0.57018  -0.53314  -0.51554
 Alpha  occ. eigenvalues --   -0.47608  -0.46184  -0.44571  -0.40984  -0.39415
 Alpha  occ. eigenvalues --   -0.39275  -0.38138  -0.36984  -0.35343  -0.34953
 Alpha  occ. eigenvalues --   -0.33455  -0.32340  -0.31692  -0.30712  -0.29566
 Alpha  occ. eigenvalues --   -0.29016  -0.28561  -0.28266  -0.26894  -0.26468
 Alpha  occ. eigenvalues --   -0.25089  -0.23967  -0.23377  -0.22506  -0.22165
 Alpha  occ. eigenvalues --   -0.21628  -0.20601  -0.16980  -0.16946  -0.12616
 Alpha  occ. eigenvalues --    0.04462
 Alpha virt. eigenvalues --    0.06304   0.06658   0.07454   0.07828   0.08246
 Alpha virt. eigenvalues --    0.08676   0.08856   0.09630   0.09765   0.10450
 Alpha virt. eigenvalues --    0.10480   0.10979   0.11763   0.12145   0.12231

  Beta  occ. eigenvalues --  -19.02448 -14.19764 -10.12539 -10.09439 -10.09277
  Beta  occ. eigenvalues --  -10.08273 -10.07438 -10.07293 -10.07082 -10.07065
  Beta  occ. eigenvalues --  -10.07026 -10.06928 -10.06850 -10.06766  -0.92734
  Beta  occ. eigenvalues --   -0.80952  -0.74000  -0.71861  -0.68283  -0.63794
  Beta  occ. eigenvalues --   -0.60158  -0.57374  -0.56976  -0.53260  -0.51493
  Beta  occ. eigenvalues --   -0.47553  -0.46104  -0.44514  -0.40942  -0.39384
  Beta  occ. eigenvalues --   -0.39223  -0.38102  -0.36948  -0.35310  -0.34895
  Beta  occ. eigenvalues --   -0.33396  -0.32311  -0.31669  -0.30682  -0.29537
  Beta  occ. eigenvalues --   -0.28986  -0.28524  -0.28232  -0.26859  -0.26442
  Beta  occ. eigenvalues --   -0.25063  -0.23918  -0.23345  -0.22478  -0.22129
  Beta  occ. eigenvalues --   -0.21592  -0.20565  -0.16931  -0.16881  -0.12595
  Beta virt. eigenvalues --    0.06336   0.06821   0.07475   0.07776   0.08106
  Beta virt. eigenvalues --    0.08743   0.08871   0.08913   0.09896   0.10090
  Beta virt. eigenvalues --    0.10571   0.10834   0.11208   0.11943   0.12399

 Mulliken charges and spin densities:
               1          2
     1  C    0.885190  -1.589191
     2  C   -1.186680   1.486445
     3  C    0.142670  -0.427234
     4  C    1.286976  -1.444201
     5  C   -0.704344   0.286651
     6  C    0.104776  -0.583870
     7  C   -0.562410   0.211555
     8  N   -0.048176   0.108594
     9  C    0.661822  -1.452748
    10  C   -1.225469   2.087641
    11  C    0.954406  -1.405970
    12  C   -1.161919   0.808195
    13  C    0.929713  -1.598314
    14  O   -0.181116  -0.018048
    15  H   -0.042226   0.153189
    16  H   -0.102389   0.214874
    17  H   -0.183029   0.331229
    18  H   -0.193931   0.310242
    19  H   -0.429206   0.608191
    20  H   -0.135929   0.291844
    21  H   -0.227542   0.398688
    22  H   -0.162666   0.320929
    23  H    0.103381   0.040913
    24  H    0.112452   0.052002
    25  H   -0.064327   0.204891
    26  H   -0.007660   0.170773
    27  H    0.877345  -0.788110
    28  H    0.189691   0.044620
    29  H   -0.123405   0.297116
    30  H   -0.014386   0.167343
    31  H   -0.626603   0.815570
    32  H    0.165276   0.003275
    33  H   -0.023387   0.151474
    34  H    0.129187   0.053319
    35  H    0.088781   0.010123
    36  H   -0.192884   0.386433
    37  H   -0.031979   0.291571
 Sum of Mulliken charges =  -1.00000   1.00000

 Dipole moment (field-independent basis, Debye):
    X=              0.1855    Y=             -3.7152    Z=             -4.4583  Tot=              5.8064
 Quadrupole moment (field-independent basis, Debye-Ang):
   XX=           -170.6262   YY=           -139.4175   ZZ=           -125.6518
   XY=             -1.6931   XZ=             -8.7522   YZ=             -1.5930

 Summary of Natural Population Analysis:

                                       Natural Population
                Natural  -----------------------------------------------
    Atom  No    Charge         Core      Valence    Rydberg      Total
 -----------------------------------------------------------------------
      C    1   -0.19252      0.99956     2.18631    0.00665     3.19252
      C    2   -0.07942      0.99956     2.07041    0.00945     3.07942
      C    3   -0.21203      0.99961     2.20145    0.01098     3.21203
      C    4   -0.18864      0.99962     2.17965    0.00937     3.18864
      C    5   -0.19515      0.99962     2.18698    0.00855     3.19515
      C    6   -0.19160      0.99962     2.18396    0.00802     3.19160
      C    7   -0.08936      0.99962     2.08037    0.00937     3.08936
      N    8   -0.34076      0.99974     2.82912    0.01190     3.84076
      C    9   -0.08199      0.99960     2.06965    0.01274     3.08199
      C   10   -0.12414      0.99960     2.11171    0.01282     3.12414
      C   11   -0.20321      0.99962     2.19496    0.00863     3.20321
      C   12    0.06561      0.99958     1.91914    0.01566     2.93439
      C   13   -0.20071      0.99962     2.19187    0.00923     3.20071
      O   14   -0.36865      0.99990     3.36242    0.00633     4.36865
      H   15    0.09006      0.00000     0.40859    0.00136     0.40994
      H   16    0.09086      0.00000     0.40803    0.00112     0.40914
      H   17    0.08971      0.00000     0.40903    0.00127     0.41029
      H   18    0.10024      0.00000     0.39800    0.00176     0.39976
      H   19    0.10302      0.00000     0.39559    0.00139     0.39698
      H   20    0.10016      0.00000     0.39740    0.00244     0.39984
      H   21    0.09877      0.00000     0.39988    0.00135     0.40123
      H   22    0.09850      0.00000     0.40034    0.00116     0.40150
      H   23    0.09683      0.00000     0.40199    0.00118     0.40317
      H   24    0.09864      0.00000     0.40009    0.00127     0.40136
      H   25    0.09398      0.00000     0.40482    0.00120     0.40602
      H   26    0.09010      0.00000     0.40874    0.00116     0.40990
      H   27    0.08133      0.00000     0.41575    0.00292     0.41867
      H   28    0.17271      0.00000     0.32330    0.00398     0.32729
      H   29    0.09552      0.00000     0.40344    0.00104     0.40448
      H   30    0.08583      0.00000     0.41288    0.00129     0.41417
      H   31    0.10158      0.00000     0.39348    0.00494     0.39842
      H   32    0.10544      0.00000     0.39329    0.00127     0.39456
      H   33    0.09769      0.00000     0.40118    0.00113     0.40231
      H   34    0.08112      0.00000     0.41791    0.00097     0.41888
      H   35    0.09641      0.00000     0.40253    0.00106     0.40359
      H   36    0.10354      0.00000     0.39525    0.00121     0.39646
      H   37    0.23054      0.00000     0.26513    0.00432     0.26946
 =======================================================================
   * Total *    0.00000     13.99487    40.82464    0.18049    55.00000

 Normal termination of Gaussian 16 at Thu Dec 10 10:31:41 2020.
