 Gaussian 16, Revision A.03,

 -----------------------------------------------------------
 # opt freq B3LYP/6-31G(d) empiricaldispersion=gd3bj scf=xqc
 -----------------------------------------------------------

 -----------------------------
 CID_21895925_JID_974_neutraal
 -----------------------------
 Symbolic Z-matrix:
 Charge =  0 Multiplicity = 1

 SCF Done:  E(RB3LYP) =  -464.959954489     A.U. after   13 cycles
 SCF Done:  E(RB3LYP) =  -464.962527794     A.U. after   11 cycles
 SCF Done:  E(RB3LYP) =  -464.962645657     A.U. after   10 cycles
 SCF Done:  E(RB3LYP) =  -464.962741630     A.U. after   10 cycles
 SCF Done:  E(RB3LYP) =  -464.962853671     A.U. after   10 cycles
 SCF Done:  E(RB3LYP) =  -464.962860518     A.U. after    8 cycles
 SCF Done:  E(RB3LYP) =  -464.962864104     A.U. after    7 cycles
 SCF Done:  E(RB3LYP) =  -464.962865179     A.U. after    8 cycles
 SCF Done:  E(RB3LYP) =  -464.962865416     A.U. after    7 cycles
 SCF Done:  E(RB3LYP) =  -464.962865487     A.U. after    6 cycles
 Optimization completed.
    -- Stationary point found.

 1\1\GINC-NODE361\FOpt\RB3LYP\6-31G(d)\C8H16O2\VSC10255\08-Dec-2020\0\\
 # opt freq B3LYP/6-31G(d) empiricaldispersion=gd3bj scf=xqc\\CID_21895
 925_JID_974_neutraal\\0,1\C,1.0873933774,-0.0098181979,-0.0759257231\O
 ,0.9428169168,1.3348468846,0.3511527069\C,1.3563657642,1.655182001,1.7
 055700473\C,2.7671941745,1.1430069733,2.0258735019\C,3.8343965741,1.76
 35132301,1.1140506233\C,3.7880115992,3.2962249433,1.1649042987\C,2.384
 011996,3.8166610935,0.8323172191\C,1.32966109,3.1903135139,1.751349899
 5\C,0.3099563641,1.0596142688,2.6616053235\O,-1.0032418226,1.410496888

 Normal termination of Gaussian 16 at Tue Dec  8 13:32:51 2020.

 --------------------------------------------------------------------
 #N Geom=AllCheck Guess=TCheck SCRF=Check GenChk RB3LYP/6-31G(d) Freq
 --------------------------------------------------------------------

 Structure from the checkpoint file:  "JID_974.chk"
 -----------------------------
 CID_21895925_JID_974_neutraal
 -----------------------------
 Charge =  0 Multiplicity = 1

 SCF Done:  E(RB3LYP) =  -464.962865487     A.U. after    1 cycles

  Exact polarizability:  93.532   1.947  87.350  -0.794  -0.750  82.273
 Approx polarizability: 118.342   1.070 122.008  -2.554  -3.158 123.175

                      1                      2                      3
                      A                      A                      A
 Frequencies --     99.0660               131.2528               144.5472
 Red. masses --      2.6037                 2.9642                 1.9247
 Frc consts  --      0.0151                 0.0301                 0.0237
 IR Inten    --      1.5886                 0.8513                 5.8098

                      4                      5                      6
                      A                      A                      A
 Frequencies --    167.1467               200.8786               264.1799
 Red. masses --      2.6368                 2.0000                 2.0759
 Frc consts  --      0.0434                 0.0476                 0.0854
 IR Inten    --      1.0474                 0.4627                 9.6236

                      7                      8                      9
                      A                      A                      A
 Frequencies --    302.7145               330.1037               344.3053
 Red. masses --      2.5722                 2.2545                 2.3004
 Frc consts  --      0.1389                 0.1447                 0.1607
 IR Inten    --      2.7752                 1.0526                 4.0966

                     10                     11                     12
                      A                      A                      A
 Frequencies --    370.1104               421.7525               445.4607
 Red. masses --      3.0979                 2.2516                 2.3262
 Frc consts  --      0.2500                 0.2360                 0.2720
 IR Inten    --      3.2690                 0.2313                 3.8202

                     13                     14                     15
                      A                      A                      A
 Frequencies --    502.4820               515.6228               529.4575
 Red. masses --      1.2077                 1.6891                 2.8698
 Frc consts  --      0.1797                 0.2646                 0.4740
 IR Inten    --     72.7224                26.7651                 1.9946

                     16                     17                     18
                      A                      A                      A
 Frequencies --    633.5059               718.7697               794.9023
 Red. masses --      2.7186                 3.8011                 1.5073
 Frc consts  --      0.6428                 1.1570                 0.5611
 IR Inten    --     10.8068                13.8576                 0.7468

                     19                     20                     21
                      A                      A                      A
 Frequencies --    828.5032               863.8570               886.8383
 Red. masses --      2.4667                 2.0220                 1.7712
 Frc consts  --      0.9976                 0.8890                 0.8207
 IR Inten    --      6.4053                 2.3248                 7.2433

                     22                     23                     24
                      A                      A                      A
 Frequencies --    928.4628               952.5299               973.7521
 Red. masses --      2.2943                 1.4939                 2.0337
 Frc consts  --      1.1653                 0.7986                 1.1361
 IR Inten    --      9.3458                 0.8982                 5.4280

                     25                     26                     27
                      A                      A                      A
 Frequencies --   1017.5312              1054.0601              1077.7052
 Red. masses --      1.6600                 1.9052                 2.7843
 Frc consts  --      1.0126                 1.2471                 1.9053
 IR Inten    --      1.0574                 1.6710                67.1242

                     28                     29                     30
                      A                      A                      A
 Frequencies --   1095.7727              1109.9103              1112.4380
 Red. masses --      1.9071                 4.7972                 1.7224
 Frc consts  --      1.3492                 3.4819                 1.2558
 IR Inten    --     16.3040               104.6117                30.3393

                     31                     32                     33
                      A                      A                      A
 Frequencies --   1144.5114              1180.8981              1187.1688
 Red. masses --      2.1344                 1.4522                 1.8389
 Frc consts  --      1.6473                 1.1932                 1.5270
 IR Inten    --      4.5931                14.8741                 3.8452

                     34                     35                     36
                      A                      A                      A
 Frequencies --   1195.7902              1219.0128              1234.0344
 Red. masses --      1.4722                 1.3943                 1.3461
 Frc consts  --      1.2403                 1.2207                 1.2078
 IR Inten    --     13.9823                 5.6714                18.3977

                     37                     38                     39
                      A                      A                      A
 Frequencies --   1275.8943              1304.7204              1316.0849
 Red. masses --      1.7857                 1.3444                 1.2327
 Frc consts  --      1.7127                 1.3484                 1.2580
 IR Inten    --      2.6184                 8.5923                 2.6827

                     40                     41                     42
                      A                      A                      A
 Frequencies --   1323.1182              1368.3253              1388.7419
 Red. masses --      1.3747                 1.2734                 1.5887
 Frc consts  --      1.4180                 1.4047                 1.8053
 IR Inten    --     23.0605                 3.4983                 6.8016

                     43                     44                     45
                      A                      A                      A
 Frequencies --   1390.7355              1402.3625              1407.0269
 Red. masses --      1.3837                 1.4440                 1.5169
 Frc consts  --      1.5768                 1.6732                 1.7693
 IR Inten    --      5.4708                 0.0661                 1.8385

                     46                     47                     48
                      A                      A                      A
 Frequencies --   1418.6641              1456.9511              1499.6967
 Red. masses --      1.5363                 1.2889                 1.1329
 Frc consts  --      1.8218                 1.6119                 1.5013
 IR Inten    --      0.3621                73.2028                 2.3823

                     49                     50                     51
                      A                      A                      A
 Frequencies --   1506.6989              1513.5880              1514.6788
 Red. masses --      1.0844                 1.0852                 1.0951
 Frc consts  --      1.4504                 1.4648                 1.4803
 IR Inten    --      1.7817                 1.7109                 3.4503

                     52                     53                     54
                      A                      A                      A
 Frequencies --   1520.1096              1528.3442              1535.5873
 Red. masses --      1.0756                 1.0820                 1.0867
 Frc consts  --      1.4644                 1.4891                 1.5098
 IR Inten    --      8.8067                 4.8274                 6.8387

                     55                     56                     57
                      A                      A                      A
 Frequencies --   1543.1153              1551.4826              2979.9063
 Red. masses --      1.0592                 1.0859                 1.0724
 Frc consts  --      1.4860                 1.5401                 5.6104
 IR Inten    --      1.2819                 3.8039                55.2846

                     58                     59                     60
                      A                      A                      A
 Frequencies --   3020.6185              3026.2621              3038.6565
 Red. masses --      1.0673                 1.0356                 1.0652
 Frc consts  --      5.7377                 5.5878                 5.7950
 IR Inten    --     27.3615                48.4854                17.6340

                     61                     62                     63
                      A                      A                      A
 Frequencies --   3043.9688              3046.3758              3052.0496
 Red. masses --      1.0616                 1.0678                 1.0626
 Frc consts  --      5.7954                 5.8384                 5.8319
 IR Inten    --     19.0198                26.1909                27.0481

                     64                     65                     66
                      A                      A                      A
 Frequencies --   3074.5072              3076.9404              3081.9271
 Red. masses --      1.0945                 1.0963                 1.1027
 Frc consts  --      6.0956                 6.1150                 6.1711
 IR Inten    --     81.6428                22.5946                55.1588

                     67                     68                     69
                      A                      A                      A
 Frequencies --   3086.7584              3092.6934              3096.2083
 Red. masses --      1.1040                 1.0934                 1.0990
 Frc consts  --      6.1974                 6.1619                 6.2074
 IR Inten    --     19.6260                13.1749                96.9576

                     70                     71                     72
                      A                      A                      A
 Frequencies --   3112.4408              3134.9708              3680.5331
 Red. masses --      1.0967                 1.1005                 1.0647
 Frc consts  --      6.2596                 6.3724                 8.4979
 IR Inten    --     33.3547                27.4902                31.7508

 - Thermochemistry -
 -------------------
 Temperature   298.150 Kelvin.  Pressure   1.00000 Atm.
 Atom     1 has atomic number  6 and mass  12.00000

 Molecular mass:   144.11503 amu.
 Principal axes and moments of inertia in atomic units:
                           1         2         3
     Eigenvalues --   914.643721715.905901986.91235
           X            0.99951   0.03121   0.00198
           Y           -0.03122   0.99946   0.01013
           Z           -0.00167  -0.01019   0.99995
 This molecule is an asymmetric top.
 Rotational symmetry number  1.
 Warning -- assumption of classical behavior for rotation
           may cause significant error
 Rotational temperatures (Kelvin)      0.09470     0.05048     0.04359
 Rotational constants (GHZ):           1.97316     1.05177     0.90831
 Zero-point vibrational energy     624389.5 (Joules/Mol)
                                  149.23268 (Kcal/Mol)
 Warning -- explicit consideration of  15 degrees of freedom as
           vibrations may cause significant error
 Vibrational temperatures:    142.53   188.84   207.97   240.49   289.02
          (Kelvin)            380.10   435.54   474.95   495.38   532.51
                              606.81   640.92   722.96   741.87   761.77
                              911.47  1034.15  1143.69  1192.03  1242.90
                             1275.96  1335.85  1370.48  1401.01  1464.00
                             1516.56  1550.58  1576.57  1596.91  1600.55
                             1646.70  1699.05  1708.07  1720.48  1753.89
                             1775.50  1835.73  1877.20  1893.55  1903.67
                             1968.71  1998.09  2000.96  2017.69  2024.40
                             2041.14  2096.23  2157.73  2167.80  2177.72
                             2179.29  2187.10  2198.95  2209.37  2220.20
                             2232.24  4287.42  4346.00  4354.12  4371.95
                             4379.59  4383.06  4391.22  4423.53  4427.03
                             4434.21  4441.16  4449.70  4454.75  4478.11
                             4510.52  5295.47

 Zero-point correction=                           0.237817 (Hartree/Particle)
 Thermal correction to Energy=                    0.248113
 Thermal correction to Enthalpy=                  0.249057
 Thermal correction to Gibbs Free Energy=         0.203010
 Sum of electronic and zero-point Energies=           -464.725048
 Sum of electronic and thermal Energies=              -464.714753
 Sum of electronic and thermal Enthalpies=            -464.713808
 Sum of electronic and thermal Free Energies=         -464.759855

                     E (Thermal)             CV                S
                      KCal/Mol        Cal/Mol-Kelvin    Cal/Mol-Kelvin
 Total                  155.693             40.438             96.914
 Electronic               0.000              0.000              0.000
 Translational            0.889              2.981             40.807
 Rotational               0.889              2.981             29.524
 Vibrational            153.916             34.476             26.583
 Vibration     1          0.604              1.950              3.473
 Vibration     2          0.612              1.922              2.928
 Vibration     3          0.616              1.909              2.743
 Vibration     4          0.624              1.883              2.467
 Vibration     5          0.638              1.839              2.125
 Vibration     6          0.671              1.739              1.634
 Vibration     7          0.694              1.669              1.402
 Vibration     8          0.713              1.615              1.260
 Vibration     9          0.723              1.587              1.192
 Vibration    10          0.742              1.534              1.079
 Vibration    11          0.784              1.423              0.886
 Vibration    12          0.805              1.371              0.810
 Vibration    13          0.858              1.245              0.652
 Vibration    14          0.871              1.215              0.620
 Vibration    15          0.884              1.185              0.588

 Optimization completed.
    -- Stationary point found.

 1\1\GINC-NODE361\Freq\RB3LYP\6-31G(d)\C8H16O2\VSC10255\08-Dec-2020\0\\
 #N Geom=AllCheck Guess=TCheck SCRF=Check GenChk RB3LYP/6-31G(d) Freq\\
 CID_21895925_JID_974_neutraal\\0,1\C,1.0873933774,-0.0098181979,-0.075
 9257231\O,0.9428169168,1.3348468846,0.3511527069\C,1.3563657642,1.6551
 82001,1.7055700473\C,2.7671941745,1.1430069733,2.0258735019\C,3.834396
 5741,1.7635132301,1.1140506233\C,3.7880115992,3.2962249433,1.164904298
 7\C,2.384011996,3.8166610935,0.8323172191\C,1.32966109,3.1903135139,1.
 7513498995\C,0.3099563641,1.0596142688,2.6616053235\O,-1.0032418226,1.

 Normal termination of Gaussian 16 at Tue Dec  8 13:40:19 2020.

 ----------------------------------------------------------------------
 # B3LYP/6-311++G(d,p) empiricaldispersion=gd3bj scf=xqc pop=npa geom=c
 heck
 ----------------------------------------------------------------------

 -------------------------------------
 CID_21895925_JID_974_Energie_neutraal
 -------------------------------------
 Structure from the checkpoint file:  "JID_974.chk"
 Charge =  0 Multiplicity = 1

 SCF Done:  E(RB3LYP) =  -465.105137863     A.U. after   13 cycles
 Normal termination of Gaussian 16 at Tue Dec  8 13:47:34 2020.

 ----------------------------------------------------------------------
 # B3LYP/6-311++G(d,p) empiricaldispersion=gd3bj scf=xqc pop=npa geom=c
 heck
 ----------------------------------------------------------------------

 -----------------------------------
 CID_21895925_JID_974_Energie_kation
 -----------------------------------
 Structure from the checkpoint file:  "JID_974.chk"
 Charge =  1 Multiplicity = 2

 SCF Done:  E(UB3LYP) =  -464.766365135     A.U. after   22 cycles
 Normal termination of Gaussian 16 at Tue Dec  8 13:56:55 2020.
 Gaussian 16:  ES64L-G16RevA.03 25-Dec-2016

 ----------------------------------
 CID_21895925_JID_974_Energie_anion
 ----------------------------------
 Structure from the checkpoint file:  "JID_974.chk"
 Charge = -1 Multiplicity = 2

                         Standard orientation:
 ---------------------------------------------------------------------
 Center     Atomic      Atomic             Coordinates (Angstroms)
 Number     Number       Type             X           Y           Z
 ---------------------------------------------------------------------
      1          6           0        1.205569    1.938008   -0.762590
      2          8           0        0.728498    0.614322   -0.940585
      3          6           0        0.395459   -0.143302    0.252384
      4          6           0       -0.526823    0.632353    1.202704
      5          6           0       -1.871573    0.984863    0.552509
      6          6           0       -2.575387   -0.267524    0.013886
      7          6           0       -1.664669   -1.041173   -0.947749
      8          6           0       -0.327173   -1.387778   -0.284756
      9          6           0        1.715962   -0.529253    0.938672
     10          8           0        2.623074   -1.104386    0.016427
     11          1           0        1.512963    2.283961   -1.752903
     12          1           0        2.071770    1.989398   -0.089126
     13          1           0        0.426521    2.611574   -0.383571
     14          1           0       -0.701524   -0.003580    2.081393
     15          1           0       -0.024955    1.533388    1.575348
     16          1           0       -1.702462    1.684814   -0.275780
     17          1           0       -2.509102    1.501969    1.279808
     18          1           0       -3.512062    0.010268   -0.484746
     19          1           0       -2.848695   -0.918140    0.858014
     20          1           0       -1.471952   -0.432055   -1.838624
     21          1           0       -2.159368   -1.959658   -1.286146
     22          1           0        0.338737   -1.906059   -0.981142
     23          1           0       -0.497185   -2.068212    0.560603
     24          1           0        2.155648    0.356864    1.427593
     25          1           0        1.524632   -1.268801    1.723440
     26          1           0        2.476264   -0.612379   -0.811263
 ---------------------------------------------------------------------

 SCF Done:  E(UB3LYP) =  -465.088403000     A.U. after   27 cycles

 The electronic state is 2-A.
 Alpha  occ. eigenvalues --  -19.02467 -19.01605 -10.12322 -10.10872 -10.10421
 Alpha  occ. eigenvalues --  -10.06012 -10.05928 -10.05629 -10.05505 -10.05462
 Alpha  occ. eigenvalues --   -0.94116  -0.91094  -0.72611  -0.65606  -0.64066
 Alpha  occ. eigenvalues --   -0.58185  -0.56590  -0.50916  -0.48127  -0.44560
 Alpha  occ. eigenvalues --   -0.41065  -0.38294  -0.37077  -0.36138  -0.34531
 Alpha  occ. eigenvalues --   -0.33089  -0.31872  -0.30847  -0.30500  -0.28705
 Alpha  occ. eigenvalues --   -0.27451  -0.26448  -0.24626  -0.23905  -0.22694
 Alpha  occ. eigenvalues --   -0.21211  -0.20271  -0.19528  -0.17742  -0.15751
 Alpha  occ. eigenvalues --    0.04864
 Alpha virt. eigenvalues --    0.07074   0.07879   0.08235   0.09615   0.10045
 Alpha virt. eigenvalues --    0.10280   0.10502   0.11261   0.12655   0.13018
 Alpha virt. eigenvalues --    0.13526   0.13604   0.13780   0.14438   0.16666

  Beta  occ. eigenvalues --  -19.02459 -19.01598 -10.12323 -10.10854 -10.10367
  Beta  occ. eigenvalues --  -10.05986 -10.05918 -10.05619 -10.05482 -10.05435
  Beta  occ. eigenvalues --   -0.94100  -0.91079  -0.72583  -0.65570  -0.64027
  Beta  occ. eigenvalues --   -0.58102  -0.56539  -0.50860  -0.48069  -0.44498
  Beta  occ. eigenvalues --   -0.41033  -0.38251  -0.37033  -0.36095  -0.34483
  Beta  occ. eigenvalues --   -0.33053  -0.31841  -0.30808  -0.30460  -0.28666
  Beta  occ. eigenvalues --   -0.27410  -0.26408  -0.24601  -0.23874  -0.22660
  Beta  occ. eigenvalues --   -0.21170  -0.20238  -0.19499  -0.17719  -0.15729
  Beta virt. eigenvalues --    0.07271   0.08098   0.08585   0.08966   0.10371
  Beta virt. eigenvalues --    0.10555   0.10845   0.10982   0.11641   0.13218
  Beta virt. eigenvalues --    0.13540   0.13988   0.14060   0.14289   0.14769

 Mulliken charges and spin densities:
               1          2
     1  C    1.553715  -1.780490
     2  O   -0.168841   0.072864
     3  C   -1.921634   1.628471
     4  C    0.952739  -1.376294
     5  C   -0.187445  -0.035772
     6  C    1.176479  -1.594163
     7  C   -0.610069   0.282590
     8  C    0.242984  -0.387160
     9  C    1.024244  -1.246592
    10  O   -0.229444   0.029138
    11  H   -0.287636   0.430733
    12  H   -0.364669   0.517683
    13  H   -0.730924   0.894950
    14  H   -0.286477   0.449354
    15  H   -0.208079   0.393089
    16  H    0.306179  -0.206054
    17  H   -0.772830   0.957724
    18  H   -0.591717   0.764876
    19  H    0.071418   0.038750
    20  H    0.080256   0.070149
    21  H   -0.126108   0.290231
    22  H    0.163152  -0.019231
    23  H   -0.094421   0.248349
    24  H   -0.151199   0.310963
    25  H   -0.002048   0.165384
    26  H    0.162377   0.100458
 Sum of Mulliken charges =  -1.00000   1.00000

 Dipole moment (field-independent basis, Debye):
    X=              1.4515    Y=             -4.1873    Z=             -1.7363  Tot=              4.7598
 Quadrupole moment (field-independent basis, Debye-Ang):
   XX=           -120.9768   YY=           -109.5772   ZZ=            -97.7456
   XY=              0.1321   XZ=              3.2515   YZ=             -2.1844

 Summary of Natural Population Analysis:

                                       Natural Population
                Natural  -----------------------------------------------
    Atom  No    Charge         Core      Valence    Rydberg      Total
 -----------------------------------------------------------------------
      C    1   -0.10199      0.99959     2.09237    0.01003     3.10199
      O    2   -0.32102      0.99987     3.30983    0.01132     4.32102
      C    3    0.13236      0.99949     1.85098    0.01717     2.86764
      C    4   -0.20948      0.99957     2.19851    0.01140     3.20948
      C    5   -0.19018      0.99963     2.18057    0.00998     3.19018
      C    6   -0.18725      0.99963     2.17945    0.00817     3.18725
      C    7   -0.19090      0.99962     2.18233    0.00894     3.19090
      C    8   -0.19600      0.99956     2.18714    0.00930     3.19600
      C    9   -0.01776      0.99951     2.00535    0.01291     3.01776
      O   10   -0.37276      0.99990     3.36631    0.00655     4.37276
      H   11    0.09169      0.00000     0.40697    0.00133     0.40831
      H   12    0.08117      0.00000     0.41675    0.00208     0.41883
      H   13    0.08506      0.00000     0.41293    0.00201     0.41494
      H   14    0.10322      0.00000     0.39502    0.00175     0.39678
      H   15    0.10695      0.00000     0.39094    0.00211     0.39305
      H   16    0.09603      0.00000     0.40206    0.00191     0.40397
      H   17    0.10231      0.00000     0.39560    0.00209     0.39769
      H   18    0.09905      0.00000     0.39961    0.00134     0.40095
      H   19    0.09117      0.00000     0.40737    0.00146     0.40883
      H   20    0.09985      0.00000     0.39859    0.00156     0.40015
      H   21    0.09603      0.00000     0.40308    0.00089     0.40397
      H   22    0.10563      0.00000     0.39301    0.00136     0.39437
      H   23    0.09729      0.00000     0.40154    0.00117     0.40271
      H   24    0.07946      0.00000     0.41894    0.00160     0.42054
      H   25    0.08814      0.00000     0.41060    0.00126     0.41186
      H   26    0.23192      0.00000     0.26472    0.00337     0.26808
 =======================================================================
   * Total *   -0.00000      9.99637    29.87057    0.13306    40.00000

 Normal termination of Gaussian 16 at Tue Dec  8 14:05:12 2020.
