 Gaussian 16, Revision A.03,

 -----------------------------------------------------------
 # opt freq B3LYP/6-31G(d) empiricaldispersion=gd3bj scf=xqc
 -----------------------------------------------------------

 -------------------------------
 CID_106676022_JID_6914_neutraal
 -------------------------------
 Symbolic Z-matrix:
 Charge =  0 Multiplicity = 1

 SCF Done:  E(RB3LYP) =  -787.529079239     A.U. after   15 cycles
 SCF Done:  E(RB3LYP) =  -787.532365529     A.U. after   12 cycles
 SCF Done:  E(RB3LYP) =  -787.522424915     A.U. after   13 cycles
 SCF Done:  E(RB3LYP) =  -787.530066516     A.U. after   13 cycles
 SCF Done:  E(RB3LYP) =  -787.534175178     A.U. after   10 cycles
 SCF Done:  E(RB3LYP) =  -787.535061068     A.U. after   13 cycles
 SCF Done:  E(RB3LYP) =  -787.535358420     A.U. after   12 cycles
 SCF Done:  E(RB3LYP) =  -787.534548034     A.U. after   12 cycles
 SCF Done:  E(RB3LYP) =  -787.535708321     A.U. after   12 cycles
 SCF Done:  E(RB3LYP) =  -787.535904662     A.U. after   12 cycles
 SCF Done:  E(RB3LYP) =  -787.535975002     A.U. after    8 cycles
 SCF Done:  E(RB3LYP) =  -787.535976493     A.U. after    8 cycles
 SCF Done:  E(RB3LYP) =  -787.535977661     A.U. after    9 cycles
 SCF Done:  E(RB3LYP) =  -787.535977799     A.U. after    7 cycles
 SCF Done:  E(RB3LYP) =  -787.535977831     A.U. after    7 cycles
 Optimization completed.
    -- Stationary point found.
 Normal termination of Gaussian 16 at Fri Dec 11 01:14:18 2020.

 --------------------------------------------------------------------
 #N Geom=AllCheck Guess=TCheck SCRF=Check GenChk RB3LYP/6-31G(d) Freq
 --------------------------------------------------------------------

 Structure from the checkpoint file:  "JID_6914.chk"
 -------------------------------
 CID_106676022_JID_6914_neutraal
 -------------------------------
 Charge =  0 Multiplicity = 1

 SCF Done:  E(RB3LYP) =  -787.535977831     A.U. after    1 cycles

  Exact polarizability: 138.772   6.013 128.868  -0.007   2.311 125.638
 Approx polarizability: 183.496  19.061 194.968   2.745   9.354 180.550

                      1                      2                      3
                      A                      A                      A
 Frequencies --     35.9214                56.9698                61.3574
 Red. masses --      3.4874                 2.6565                 4.2258
 Frc consts  --      0.0027                 0.0051                 0.0094
 IR Inten    --      0.0700                 1.2840                 2.4755

                      4                      5                      6
                      A                      A                      A
 Frequencies --     63.5164                74.0999                87.1404
 Red. masses --      4.5869                 6.0039                 2.1957
 Frc consts  --      0.0109                 0.0194                 0.0098
 IR Inten    --      0.5997                 1.5898                 1.7058

                      7                      8                      9
                      A                      A                      A
 Frequencies --    109.5357               148.0174               149.7898
 Red. masses --      3.6299                 2.0962                 2.4024
 Frc consts  --      0.0257                 0.0271                 0.0318
 IR Inten    --      2.7111                 0.1251                 1.0987

                     10                     11                     12
                      A                      A                      A
 Frequencies --    176.6046               183.7503               200.5897
 Red. masses --      1.6501                 2.3425                 1.6120
 Frc consts  --      0.0303                 0.0466                 0.0382
 IR Inten    --      1.1691                 0.2461                 0.7167

                     13                     14                     15
                      A                      A                      A
 Frequencies --    216.3823               235.0451               242.9109
 Red. masses --      2.4209                 1.3660                 1.8562
 Frc consts  --      0.0668                 0.0445                 0.0645
 IR Inten    --      0.2320                 0.7665                 0.9208

                     16                     17                     18
                      A                      A                      A
 Frequencies --    268.8957               276.6103               313.5476
 Red. masses --      1.2407                 1.3796                 3.3906
 Frc consts  --      0.0529                 0.0622                 0.1964
 IR Inten    --      1.7722                 1.8457                 0.6733

                     19                     20                     21
                      A                      A                      A
 Frequencies --    319.9953               372.3029               381.3204
 Red. masses --      2.2408                 3.2870                 2.3915
 Frc consts  --      0.1352                 0.2684                 0.2049
 IR Inten    --      0.5601                 6.5663                 3.6892

                     22                     23                     24
                      A                      A                      A
 Frequencies --    390.7102               416.8190               427.1128
 Red. masses --      3.1026                 2.3726                 3.6566
 Frc consts  --      0.2791                 0.2429                 0.3930
 IR Inten    --      2.8715                 1.2548                 7.2990

                     25                     26                     27
                      A                      A                      A
 Frequencies --    453.7546               486.2131               511.0367
 Red. masses --      2.8865                 3.9074                 3.0116
 Frc consts  --      0.3502                 0.5442                 0.4634
 IR Inten    --      5.7012                 1.1058                 8.6096

                     28                     29                     30
                      A                      A                      A
 Frequencies --    536.2710               600.4310               620.3310
 Red. masses --      2.4855                 3.2907                 2.5593
 Frc consts  --      0.4211                 0.6990                 0.5803
 IR Inten    --     19.9192                 1.8418                45.5068

                     31                     32                     33
                      A                      A                      A
 Frequencies --    632.8088               680.4706               713.4046
 Red. masses --      3.1592                 2.0351                 3.3361
 Frc consts  --      0.7454                 0.5552                 1.0004
 IR Inten    --     25.0494                58.0638                31.7767

                     34                     35                     36
                      A                      A                      A
 Frequencies --    723.1632               786.1906               812.6188
 Red. masses --      3.5453                 1.3770                 2.0459
 Frc consts  --      1.0924                 0.5015                 0.7960
 IR Inten    --      5.3982                10.8245                 4.4160

                     37                     38                     39
                      A                      A                      A
 Frequencies --    830.5147               903.3743               916.4420
 Red. masses --      3.5220                 2.1355                 2.5861
 Frc consts  --      1.4313                 1.0268                 1.2797
 IR Inten    --     14.6506                 5.4996                 3.1031

                     40                     41                     42
                      A                      A                      A
 Frequencies --    931.4299               953.3315              1000.6719
 Red. masses --      1.6468                 2.4748                 1.7608
 Frc consts  --      0.8418                 1.3252                 1.0388
 IR Inten    --      1.1849                14.1701                 6.3175

                     43                     44                     45
                      A                      A                      A
 Frequencies --   1019.2700              1029.3563              1054.4531
 Red. masses --      1.7698                 1.4743                 2.1362
 Frc consts  --      1.0833                 0.9204                 1.3994
 IR Inten    --      7.9483                 5.8193                17.7749

                     46                     47                     48
                      A                      A                      A
 Frequencies --   1069.0768              1102.4210              1121.3136
 Red. masses --      1.7169                 2.5227                 1.9659
 Frc consts  --      1.1561                 1.8064                 1.4564
 IR Inten    --      3.0038                23.3496                24.8439

                     49                     50                     51
                      A                      A                      A
 Frequencies --   1127.6495              1159.1683              1183.9027
 Red. masses --      5.7816                 2.2248                 2.1954
 Frc consts  --      4.3316                 1.7613                 1.8130
 IR Inten    --     63.1494                19.4195               141.1341

                     52                     53                     54
                      A                      A                      A
 Frequencies --   1190.1820              1196.8228              1202.9044
 Red. masses --      1.3966                 2.2666                 1.7405
 Frc consts  --      1.1656                 1.9129                 1.4839
 IR Inten    --     20.7247                46.8608                60.9050

                     55                     56                     57
                      A                      A                      A
 Frequencies --   1232.9081              1256.7571              1282.3590
 Red. masses --      1.7945                 2.6804                 2.2795
 Frc consts  --      1.6071                 2.4943                 2.2085
 IR Inten    --     49.6142                40.0144                23.7614

                     58                     59                     60
                      A                      A                      A
 Frequencies --   1313.2498              1326.1584              1348.0559
 Red. masses --      1.6705                 1.4604                 1.3239
 Frc consts  --      1.6974                 1.5132                 1.4174
 IR Inten    --    115.1921                17.6231                12.1949

                     61                     62                     63
                      A                      A                      A
 Frequencies --   1374.3895              1400.6005              1406.7538
 Red. masses --      1.6569                 2.0008                 1.3165
 Frc consts  --      1.8440                 2.3125                 1.5350
 IR Inten    --     17.1798                45.9268                 7.9456

                     64                     65                     66
                      A                      A                      A
 Frequencies --   1422.0620              1425.9574              1433.5765
 Red. masses --      1.2536                 1.2586                 1.3897
 Frc consts  --      1.4936                 1.5078                 1.6827
 IR Inten    --      7.6731                24.1561                13.1728

                     67                     68                     69
                      A                      A                      A
 Frequencies --   1437.6380              1451.3791              1475.7306
 Red. masses --      1.2757                 1.2473                 1.5475
 Frc consts  --      1.5534                 1.5481                 1.9856
 IR Inten    --     19.4029                 8.5051                86.1957

                     70                     71                     72
                      A                      A                      A
 Frequencies --   1490.8456              1499.5530              1501.9626
 Red. masses --      1.0854                 1.1283                 1.0876
 Frc consts  --      1.4214                 1.4949                 1.4456
 IR Inten    --      3.7346                 0.5050                 1.1990

                     73                     74                     75
                      A                      A                      A
 Frequencies --   1507.3434              1515.5763              1516.9790
 Red. masses --      1.0617                 1.0543                 1.0971
 Frc consts  --      1.4213                 1.4268                 1.4875
 IR Inten    --      1.0425                 5.2074                 4.1875

                     76                     77                     78
                      A                      A                      A
 Frequencies --   1521.8208              1526.0575              1527.8271
 Red. masses --      1.0809                 1.0627                 1.1857
 Frc consts  --      1.4749                 1.4582                 1.6308
 IR Inten    --     18.4239                 3.9657                22.9533

                     79                     80                     81
                      A                      A                      A
 Frequencies --   1534.2091              1534.8260              1541.2897
 Red. masses --      1.0787                 1.0572                 1.0566
 Frc consts  --      1.4959                 1.4673                 1.4788
 IR Inten    --      9.8289                 6.3264                 7.1358

                     82                     83                     84
                      A                      A                      A
 Frequencies --   1546.7173              1754.1979              1837.9107
 Red. masses --      1.0690                 9.8321                 9.9727
 Frc consts  --      1.5068                17.8259                19.8478
 IR Inten    --     11.5819               279.5626               221.5494

                     85                     86                     87
                      A                      A                      A
 Frequencies --   2997.6509              3018.5247              3049.7166
 Red. masses --      1.0806                 1.0349                 1.0373
 Frc consts  --      5.7211                 5.5559                 5.6842
 IR Inten    --     12.4684                48.1695                26.0485

                     88                     89                     90
                      A                      A                      A
 Frequencies --   3055.2866              3060.5900              3066.6989
 Red. masses --      1.0420                 1.0629                 1.0707
 Frc consts  --      5.7311                 5.8663                 5.9327
 IR Inten    --      4.2208                 4.1712                21.8999

                     91                     92                     93
                      A                      A                      A
 Frequencies --   3070.2625              3076.7727              3085.6841
 Red. masses --      1.0854                 1.0521                 1.0439
 Frc consts  --      6.0282                 5.8682                 5.8560
 IR Inten    --     85.8835                20.9466                 8.0673

                     94                     95                     96
                      A                      A                      A
 Frequencies --   3109.5114              3110.2279              3125.5992
 Red. masses --      1.0998                 1.1017                 1.1015
 Frc consts  --      6.2653                 6.2793                 6.3403
 IR Inten    --      6.3799                35.6118                14.9455

                     97                     98                     99
                      A                      A                      A
 Frequencies --   3133.3765              3137.4695              3140.9128
 Red. masses --      1.1030                 1.0990                 1.0997
 Frc consts  --      6.3805                 6.3737                 6.3921
 IR Inten    --     22.4038                39.7686                20.8049

                    100                    101                    102
                      A                      A                      A
 Frequencies --   3141.8702              3155.4759              3159.3596
 Red. masses --      1.0987                 1.0965                 1.0973
 Frc consts  --      6.3902                 6.4326                 6.4532
 IR Inten    --     19.3417                 9.3850                11.4455

                    103                    104                    105
                      A                      A                      A
 Frequencies --   3178.0737              3212.3180              3685.5874
 Red. masses --      1.0982                 1.0967                 1.0641
 Frc consts  --      6.5354                 6.6679                 8.5159
 IR Inten    --     25.9878                13.8288                60.3453

 - Thermochemistry -
 -------------------
 Temperature   298.150 Kelvin.  Pressure   1.00000 Atm.
 Atom     1 has atomic number  6 and mass  12.00000

 Molecular mass:   231.14706 amu.
 Principal axes and moments of inertia in atomic units:
                           1         2         3
     Eigenvalues --  2738.547514057.355924788.22484
           X            0.99979  -0.00719  -0.01915
           Y            0.00695   0.99990  -0.01270
           Z            0.01924   0.01256   0.99974
 This molecule is an asymmetric top.
 Rotational symmetry number  1.
 Warning -- assumption of classical behavior for rotation
           may cause significant error
 Rotational temperatures (Kelvin)      0.03163     0.02135     0.01809
 Rotational constants (GHZ):           0.65901     0.44481     0.37691
 Zero-point vibrational energy     846200.0 (Joules/Mol)
                                  202.24664 (Kcal/Mol)
 Warning -- explicit consideration of  30 degrees of freedom as
           vibrations may cause significant error
 Vibrational temperatures:     51.68    81.97    88.28    91.39   106.61
          (Kelvin)            125.38   157.60   212.96   215.51   254.09
                              264.38   288.60   311.33   338.18   349.49
                              386.88   397.98   451.13   460.40   535.66
                              548.63   562.14   599.71   614.52   652.85
                              699.55   735.27   771.57   863.89   892.52
                              910.47   979.05  1026.43  1040.47  1131.15
                             1169.18  1194.93  1299.75  1318.56  1340.12
                             1371.63  1439.74  1466.50  1481.01  1517.12
                             1538.16  1586.14  1613.32  1622.44  1667.78
                             1703.37  1712.41  1721.96  1730.71  1773.88
                             1808.19  1845.03  1889.47  1908.05  1939.55
                             1977.44  2015.15  2024.00  2046.03  2051.63
                             2062.60  2068.44  2088.21  2123.25  2144.99
                             2157.52  2160.99  2168.73  2180.58  2182.59
                             2189.56  2195.66  2198.20  2207.38  2208.27
                             2217.57  2225.38  2523.90  2644.34  4312.95
                             4342.98  4387.86  4395.88  4403.51  4412.30
                             4417.42  4426.79  4439.61  4473.89  4474.92
                             4497.04  4508.23  4514.12  4519.07  4520.45
                             4540.03  4545.61  4572.54  4621.81  5302.74

 Zero-point correction=                           0.322301 (Hartree/Particle)
 Thermal correction to Energy=                    0.341173
 Thermal correction to Enthalpy=                  0.342117
 Thermal correction to Gibbs Free Energy=         0.275573
 Sum of electronic and zero-point Energies=           -787.213677
 Sum of electronic and thermal Energies=              -787.194805
 Sum of electronic and thermal Enthalpies=            -787.193860
 Sum of electronic and thermal Free Energies=         -787.260405

                     E (Thermal)             CV                S
                      KCal/Mol        Cal/Mol-Kelvin    Cal/Mol-Kelvin
 Total                  214.089             69.158            140.054
 Electronic               0.000              0.000              0.000
 Translational            0.889              2.981             42.216
 Rotational               0.889              2.981             32.342
 Vibrational            212.312             63.196             65.496
 Vibration     1          0.594              1.982              5.472
 Vibration     2          0.596              1.975              4.559
 Vibration     3          0.597              1.973              4.413
 Vibration     4          0.597              1.972              4.345
 Vibration     5          0.599              1.966              4.041
 Vibration     6          0.601              1.958              3.723
 Vibration     7          0.606              1.942              3.277
 Vibration     8          0.617              1.905              2.698
 Vibration     9          0.618              1.903              2.675
 Vibration    10          0.628              1.871              2.364
 Vibration    11          0.631              1.862              2.290
 Vibration    12          0.638              1.839              2.128
 Vibration    13          0.645              1.816              1.989
 Vibration    14          0.655              1.787              1.840
 Vibration    15          0.659              1.774              1.781
 Vibration    16          0.673              1.730              1.603
 Vibration    17          0.678              1.717              1.555
 Vibration    18          0.701              1.648              1.344
 Vibration    19          0.706              1.635              1.310
 Vibration    20          0.744              1.529              1.070
 Vibration    21          0.751              1.510              1.034
 Vibration    22          0.758              1.490              0.997
 Vibration    23          0.780              1.434              0.903
 Vibration    24          0.789              1.411              0.868
 Vibration    25          0.812              1.353              0.784
 Vibration    26          0.842              1.281              0.694
 Vibration    27          0.866              1.226              0.631
 Vibration    28          0.891              1.170              0.573
 Vibration    29          0.959              1.031              0.449
 Vibration    30          0.980              0.989              0.416

 Optimization completed.
    -- Stationary point found.
 Normal termination of Gaussian 16 at Fri Dec 11 01:28:37 2020.

 ----------------------------------------------------------------------
 # B3LYP/6-311++G(d,p) empiricaldispersion=gd3bj scf=xqc pop=npa geom=c
 heck
 ----------------------------------------------------------------------

 ---------------------------------------
 CID_106676022_JID_6914_Energie_neutraal
 ---------------------------------------
 Structure from the checkpoint file:  "JID_6914.chk"
 Charge =  0 Multiplicity = 1

 SCF Done:  E(RB3LYP) =  -787.775607316     A.U. after   15 cycles
 Normal termination of Gaussian 16 at Fri Dec 11 01:34:57 2020.

 ----------------------------------------------------------------------
 # B3LYP/6-311++G(d,p) empiricaldispersion=gd3bj scf=xqc pop=npa geom=c
 heck
 ----------------------------------------------------------------------

 -------------------------------------
 CID_106676022_JID_6914_Energie_kation
 -------------------------------------
 Structure from the checkpoint file:  "JID_6914.chk"
 Charge =  1 Multiplicity = 2

 SCF Done:  E(UB3LYP) =  -787.470780468     A.U. after   25 cycles
 Normal termination of Gaussian 16 at Fri Dec 11 01:49:17 2020.
 Gaussian 16:  ES64L-G16RevA.03 25-Dec-2016

 ----------------------------------------------------------------------
 # B3LYP/6-311++G(d,p) empiricaldispersion=gd3bj scf=xqc pop=npa geom=c
 heck
 ----------------------------------------------------------------------

 ------------------------------------
 CID_106676022_JID_6914_Energie_anion
 ------------------------------------
 Structure from the checkpoint file:  "JID_6914.chk"
 Charge = -1 Multiplicity = 2

                         Standard orientation:
 ---------------------------------------------------------------------
 Center     Atomic      Atomic             Coordinates (Angstroms)
 Number     Number       Type             X           Y           Z
 ---------------------------------------------------------------------
      1          6           0       -3.428558   -0.723548    1.433310
      2          6           0       -1.962394   -1.145743    1.349442
      3          7           0       -1.243993   -0.420490    0.295265
      4          6           0       -0.549881    0.786055    0.722829
      5          6           0        0.859864    0.583832    1.329299
      6          6           0        2.042922    0.013845    0.515132
      7          6           0        2.626753    1.011053   -0.496475
      8          6           0        3.140464   -0.373333    1.524346
      9          8           0        1.516943   -1.164331   -0.113826
     10          6           0        2.371481   -1.900430   -0.965052
     11          6           0       -0.684674    1.983255   -0.210630
     12          8           0        0.149669    2.848359   -0.361268
     13          8           0       -1.914781    2.052789   -0.768974
     14          6           0       -1.221557   -1.007049   -0.950608
     15          8           0       -1.799400   -2.072010   -1.148200
     16          6           0       -0.549138   -0.300657   -2.111818
     17          1           0       -3.523907    0.355032    1.606415
     18          1           0       -3.937741   -1.248087    2.250039
     19          1           0       -3.934445   -0.965857    0.494687
     20          1           0       -1.447959   -0.963966    2.299745
     21          1           0       -1.886639   -2.209838    1.125166
     22          1           0       -1.144683    1.145408    1.577475
     23          1           0        1.171170    1.544682    1.751591
     24          1           0        0.706979   -0.097151    2.174335
     25          1           0        2.896972    1.940501    0.011861
     26          1           0        3.532564    0.606319   -0.959377
     27          1           0        1.920876    1.269429   -1.285420
     28          1           0        2.779832   -1.163976    2.190178
     29          1           0        4.042794   -0.730905    1.018691
     30          1           0        3.426384    0.492026    2.131844
     31          1           0        2.674771   -1.326878   -1.851590
     32          1           0        3.274641   -2.257237   -0.450990
     33          1           0        1.790369   -2.766063   -1.292021
     34          1           0       -1.926807    2.882672   -1.282108
     35          1           0       -1.322211    0.191052   -2.710962
     36          1           0        0.204056    0.433499   -1.838394
     37          1           0       -0.080212   -1.069367   -2.728545
 ---------------------------------------------------------------------

 SCF Done:  E(UB3LYP) =  -787.766041789     A.U. after   33 cycles
 SCF Done:  E(UB3LYP) =  -787.766041789     a.u. after    1 cycles

 The electronic state is 2-A.
 Alpha  occ. eigenvalues --  -19.07184 -19.02656 -19.01759 -18.97912 -14.23727
 Alpha  occ. eigenvalues --  -10.20789 -10.16826 -10.13926 -10.13305 -10.11786
 Alpha  occ. eigenvalues --  -10.09878 -10.07704 -10.06846 -10.06497 -10.06144
 Alpha  occ. eigenvalues --  -10.06071  -1.01486  -0.94114  -0.93293  -0.92461
 Alpha  occ. eigenvalues --   -0.83605  -0.71564  -0.67577  -0.65666  -0.62167
 Alpha  occ. eigenvalues --   -0.60408  -0.59664  -0.57817  -0.53498  -0.51337
 Alpha  occ. eigenvalues --   -0.46761  -0.44519  -0.41023  -0.40642  -0.39966
 Alpha  occ. eigenvalues --   -0.39145  -0.37284  -0.37153  -0.36073  -0.34500
 Alpha  occ. eigenvalues --   -0.33969  -0.33623  -0.32934  -0.32572  -0.31682
 Alpha  occ. eigenvalues --   -0.30870  -0.30263  -0.29563  -0.29390  -0.28716
 Alpha  occ. eigenvalues --   -0.28473  -0.27251  -0.26691  -0.25603  -0.25349
 Alpha  occ. eigenvalues --   -0.24759  -0.24437  -0.22904  -0.21237  -0.18729
 Alpha  occ. eigenvalues --   -0.16764  -0.15216  -0.13901   0.04158
 Alpha virt. eigenvalues --    0.05992   0.06625   0.07774   0.08091   0.08604
 Alpha virt. eigenvalues --    0.08990   0.09648   0.10049   0.10460   0.11287
 Alpha virt. eigenvalues --    0.11553   0.11895   0.12006   0.12527   0.13007

  Beta  occ. eigenvalues --  -19.07140 -19.02652 -19.01713 -18.97910 -14.23723
  Beta  occ. eigenvalues --  -10.20711 -10.16827 -10.13925 -10.13289 -10.11767
  Beta  occ. eigenvalues --  -10.09861 -10.07681 -10.06827 -10.06468 -10.06125
  Beta  occ. eigenvalues --  -10.06050  -1.01377  -0.94108  -0.93289  -0.92371
  Beta  occ. eigenvalues --   -0.83588  -0.71535  -0.67520  -0.65628  -0.62130
  Beta  occ. eigenvalues --   -0.60364  -0.59617  -0.57719  -0.53456  -0.51242
  Beta  occ. eigenvalues --   -0.46712  -0.44438  -0.40919  -0.40591  -0.39923
  Beta  occ. eigenvalues --   -0.39082  -0.37225  -0.37122  -0.36007  -0.34455
  Beta  occ. eigenvalues --   -0.33930  -0.33577  -0.32856  -0.32526  -0.31661
  Beta  occ. eigenvalues --   -0.30828  -0.30227  -0.29531  -0.29346  -0.28682
  Beta  occ. eigenvalues --   -0.28443  -0.27209  -0.26659  -0.25576  -0.25316
  Beta  occ. eigenvalues --   -0.24726  -0.24413  -0.22748  -0.21215  -0.18673
  Beta  occ. eigenvalues --   -0.16751  -0.15209  -0.13881
  Beta virt. eigenvalues --    0.06328   0.07060   0.07498   0.08130   0.08605
  Beta virt. eigenvalues --    0.08984   0.09351   0.10014   0.10483   0.10689
  Beta virt. eigenvalues --    0.11454   0.11753   0.12112   0.12213   0.12681

 Mulliken charges and spin densities:
               1          2
     1  C    0.339916  -0.749331
     2  C   -0.261760   0.205995
     3  N    0.535768  -0.089940
     4  C   -0.795331   0.562026
     5  C    1.220437  -2.023195
     6  C   -2.336429   2.475349
     7  C    0.136958  -0.774748
     8  C    1.346064  -1.719051
     9  O    0.032039   0.004397
    10  C    0.261927  -0.488943
    11  C    0.654161  -0.924344
    12  O   -0.253874   0.039118
    13  O   -0.164830   0.054043
    14  C   -0.262183   0.013860
    15  O   -0.292379  -0.003575
    16  C   -0.107153  -0.311040
    17  H   -0.082985   0.234010
    18  H   -0.066813   0.198869
    19  H    0.120199   0.044179
    20  H   -0.188532   0.322416
    21  H    0.133640   0.051276
    22  H   -0.779252   1.026256
    23  H   -0.060479   0.280160
    24  H    0.239236  -0.052155
    25  H    0.007635   0.176407
    26  H   -0.159098   0.302672
    27  H    0.184431  -0.053325
    28  H   -0.100453   0.268472
    29  H   -0.185096   0.335231
    30  H   -0.157908   0.315901
    31  H   -0.025130   0.164234
    32  H   -0.104935   0.231517
    33  H    0.155187   0.011352
    34  H   -0.274984   0.572562
    35  H    0.128793   0.055278
    36  H    0.045375   0.165766
    37  H    0.117837   0.078301
 Sum of Mulliken charges =  -1.00000   1.00000

 Dipole moment (field-independent basis, Debye):
    X=              0.9704    Y=             -2.3326    Z=             -2.1939  Tot=              3.3460
 Quadrupole moment (field-independent basis, Debye-Ang):
   XX=           -157.5775   YY=           -148.8352   ZZ=           -137.7131
   XY=              1.1840   XZ=             -4.0337   YZ=             -4.4160

 Summary of Natural Population Analysis:

                                       Natural Population
                Natural  -----------------------------------------------
    Atom  No    Charge         Core      Valence    Rydberg      Total
 -----------------------------------------------------------------------
      C    1   -0.28962      0.99966     2.28512    0.00484     3.28962
      C    2   -0.08442      0.99961     2.07415    0.01065     3.08442
      N    3   -0.25743      0.99962     2.74472    0.01309     3.75743
      C    4   -0.05036      0.99950     2.03344    0.01742     3.05036
      C    5   -0.19690      0.99954     2.18432    0.01305     3.19690
      C    6    0.13938      0.99952     1.84516    0.01594     2.86062
      C    7   -0.29975      0.99960     2.29392    0.00623     3.29975
      C    8   -0.29743      0.99961     2.29130    0.00651     3.29743
      O    9   -0.31313      0.99987     3.30102    0.01224     4.31313
      C   10   -0.10055      0.99959     2.09150    0.00946     3.10055
      C   11    0.41475      0.99967     1.56015    0.02542     2.58525
      O   12   -0.30409      0.99987     3.29820    0.00602     4.30409
      O   13   -0.34219      0.99987     3.33518    0.00714     4.34219
      C   14    0.36092      0.99965     1.61784    0.02159     2.63908
      O   15   -0.33437      0.99988     3.32933    0.00516     4.33437
      C   16   -0.32654      0.99961     2.32085    0.00609     3.32654
      H   17    0.10014      0.00000     0.39874    0.00112     0.39986
      H   18    0.09551      0.00000     0.40373    0.00076     0.40449
      H   19    0.10373      0.00000     0.39544    0.00083     0.39627
      H   20    0.09249      0.00000     0.40611    0.00139     0.40751
      H   21    0.10956      0.00000     0.38921    0.00123     0.39044
      H   22    0.12500      0.00000     0.37069    0.00430     0.37500
      H   23    0.11213      0.00000     0.38646    0.00140     0.38787
      H   24    0.10369      0.00000     0.39455    0.00176     0.39631
      H   25    0.10952      0.00000     0.38963    0.00085     0.39048
      H   26    0.09716      0.00000     0.40186    0.00098     0.40284
      H   27    0.10461      0.00000     0.39421    0.00118     0.39539
      H   28    0.10329      0.00000     0.39569    0.00101     0.39671
      H   29    0.09978      0.00000     0.39909    0.00113     0.40022
      H   30    0.10464      0.00000     0.39427    0.00109     0.39536
      H   31    0.07919      0.00000     0.41982    0.00099     0.42081
      H   32    0.08033      0.00000     0.41858    0.00108     0.41967
      H   33    0.09311      0.00000     0.40611    0.00078     0.40689
      H   34    0.24312      0.00000     0.24851    0.00838     0.25688
      H   35    0.11178      0.00000     0.38721    0.00101     0.38822
      H   36    0.10230      0.00000     0.39609    0.00161     0.39770
      H   37    0.11065      0.00000     0.38842    0.00093     0.38935
 =======================================================================
   * Total *    0.00000     15.99466    46.79066    0.21468    63.00000

 Normal termination of Gaussian 16 at Fri Dec 11 02:07:01 2020.
