 Gaussian 16, Revision A.03,

 -----------------------------------------------------------
 # opt freq B3LYP/6-31G(d) empiricaldispersion=gd3bj scf=xqc
 -----------------------------------------------------------

 ------------------------------
 CID_58369901_JID_1294_neutraal
 ------------------------------
 Symbolic Z-matrix:
 Charge =  0 Multiplicity = 1

 SCF Done:  E(RB3LYP) =  -485.620717029     A.U. after   13 cycles
 SCF Done:  E(RB3LYP) =  -485.623944728     A.U. after   11 cycles
 SCF Done:  E(RB3LYP) =  -485.624386013     A.U. after   10 cycles
 SCF Done:  E(RB3LYP) =  -485.624465571     A.U. after   10 cycles
 SCF Done:  E(RB3LYP) =  -485.624490735     A.U. after    9 cycles
 SCF Done:  E(RB3LYP) =  -485.624504006     A.U. after    8 cycles
 SCF Done:  E(RB3LYP) =  -485.624507499     A.U. after    8 cycles
 SCF Done:  E(RB3LYP) =  -485.624507927     A.U. after    7 cycles
 SCF Done:  E(RB3LYP) =  -485.624508266     A.U. after    7 cycles
 SCF Done:  E(RB3LYP) =  -485.624508320     A.U. after    6 cycles
 SCF Done:  E(RB3LYP) =  -485.624508347     A.U. after    6 cycles
 Optimization completed.
    -- Stationary point found.
 Normal termination of Gaussian 16 at Tue Dec  8 19:38:31 2020.

 --------------------------------------------------------------------
 #N Geom=AllCheck Guess=TCheck SCRF=Check GenChk RB3LYP/6-31G(d) Freq
 --------------------------------------------------------------------

 Structure from the checkpoint file:  "JID_1294.chk"
 ------------------------------
 CID_58369901_JID_1294_neutraal
 ------------------------------
 Charge =  0 Multiplicity = 1

 SCF Done:  E(RB3LYP) =  -485.624508347     A.U. after    1 cycles

  Exact polarizability: 119.293  -0.360 104.770   0.720  -0.537  96.349
 Approx polarizability: 147.786   0.041 139.730   1.445   0.048 141.156

                      1                      2                      3
                      A                      A                      A
 Frequencies --     26.1657                38.8124                49.7215
 Red. masses --      2.9922                 3.0657                 3.1232
 Frc consts  --      0.0012                 0.0027                 0.0045
 IR Inten    --      0.2406                 0.0820                 0.0929

                      4                      5                      6
                      A                      A                      A
 Frequencies --     78.4149                98.5203               148.5010
 Red. masses --      2.4547                 2.1987                 2.5457
 Frc consts  --      0.0089                 0.0126                 0.0331
 IR Inten    --      0.1902                 0.5128                 0.4255

                      7                      8                      9
                      A                      A                      A
 Frequencies --    168.1250               219.6820               232.2769
 Red. masses --      2.1390                 1.5715                 1.4295
 Frc consts  --      0.0356                 0.0447                 0.0454
 IR Inten    --      1.0098                 1.0270                 1.0501

                     10                     11                     12
                      A                      A                      A
 Frequencies --    237.0753               289.5368               292.9386
 Red. masses --      3.1438                 1.8830                 1.6107
 Frc consts  --      0.1041                 0.0930                 0.0814
 IR Inten    --      1.5139                 1.5763                 1.5000

                     13                     14                     15
                      A                      A                      A
 Frequencies --    328.3174               360.4857               394.2328
 Red. masses --      2.4979                 2.3002                 1.5955
 Frc consts  --      0.1586                 0.1761                 0.1461
 IR Inten    --      1.6741                 2.0075                25.9503

                     16                     17                     18
                      A                      A                      A
 Frequencies --    419.9907               453.9152               493.3427
 Red. masses --      1.3885                 2.2879                 2.3555
 Frc consts  --      0.1443                 0.2777                 0.3378
 IR Inten    --     66.4556                 2.4918                26.8929

                     19                     20                     21
                      A                      A                      A
 Frequencies --    535.6705               640.0394               733.1614
 Red. masses --      2.3759                 2.0580                 1.2937
 Frc consts  --      0.4017                 0.4967                 0.4097
 IR Inten    --      1.2230                21.7563                17.7650

                     22                     23                     24
                      A                      A                      A
 Frequencies --    766.4348               784.0827               811.0229
 Red. masses --      1.8628                 1.7676                 1.5164
 Frc consts  --      0.6447                 0.6403                 0.5876
 IR Inten    --     10.3902                 3.1536                35.1372

                     25                     26                     27
                      A                      A                      A
 Frequencies --    843.0823               861.7783               891.0421
 Red. masses --      1.7762                 1.5329                 1.6089
 Frc consts  --      0.7438                 0.6707                 0.7526
 IR Inten    --     28.8276                19.9715                 8.3606

                     28                     29                     30
                      A                      A                      A
 Frequencies --    906.0795               940.6410               956.3972
 Red. masses --      1.9119                 1.6453                 1.9216
 Frc consts  --      0.9248                 0.8577                 1.0356
 IR Inten    --      2.8924                 0.7044                11.3976

                     31                     32                     33
                      A                      A                      A
 Frequencies --   1018.5038              1028.6471              1038.9065
 Red. masses --      1.9133                 1.6430                 1.6179
 Frc consts  --      1.1694                 1.0243                 1.0289
 IR Inten    --      9.3009                13.7651                29.3241

                     34                     35                     36
                      A                      A                      A
 Frequencies --   1061.8378              1078.1356              1098.0217
 Red. masses --      1.5040                 1.7791                 2.2686
 Frc consts  --      0.9991                 1.2184                 1.6115
 IR Inten    --     27.8823                 5.4259                 8.6659

                     37                     38                     39
                      A                      A                      A
 Frequencies --   1115.2264              1146.8367              1157.5282
 Red. masses --      1.9683                 2.1954                 2.6176
 Frc consts  --      1.4423                 1.7012                 2.0664
 IR Inten    --      1.5097                 0.4375                37.2750

                     40                     41                     42
                      A                      A                      A
 Frequencies --   1175.5484              1188.4915              1240.5932
 Red. masses --      2.4559                 2.1089                 1.2383
 Frc consts  --      1.9996                 1.7550                 1.1229
 IR Inten    --     61.1131                 3.2877                 4.4020

                     43                     44                     45
                      A                      A                      A
 Frequencies --   1252.0368              1272.8533              1292.1331
 Red. masses --      1.2421                 1.2710                 1.3085
 Frc consts  --      1.1472                 1.2132                 1.2872
 IR Inten    --     30.2603                 0.5851                22.4771

                     46                     47                     48
                      A                      A                      A
 Frequencies --   1315.5434              1335.9302              1341.4373
 Red. masses --      1.2358                 1.1516                 1.1643
 Frc consts  --      1.2602                 1.2110                 1.2344
 IR Inten    --      9.3128                34.4045                17.8095

                     49                     50                     51
                      A                      A                      A
 Frequencies --   1377.2788              1388.2685              1398.1632
 Red. masses --      1.2780                 1.3526                 1.3791
 Frc consts  --      1.4284                 1.5359                 1.5884
 IR Inten    --     22.7764                10.4622                 3.6833

                     52                     53                     54
                      A                      A                      A
 Frequencies --   1402.5606              1411.7708              1417.7496
 Red. masses --      1.4000                 1.4567                 1.4083
 Frc consts  --      1.6227                 1.7106                 1.6678
 IR Inten    --      2.0504                 1.0620                 2.1161

                     55                     56                     57
                      A                      A                      A
 Frequencies --   1431.4183              1443.4809              1445.6806
 Red. masses --      1.4115                 1.2706                 1.2843
 Frc consts  --      1.7039                 1.5599                 1.5815
 IR Inten    --      4.2118                 4.9120                 2.6573

                     58                     59                     60
                      A                      A                      A
 Frequencies --   1454.8838              1503.7954              1506.8315
 Red. masses --      1.3731                 1.1171                 1.0953
 Frc consts  --      1.7124                 1.4884                 1.4652
 IR Inten    --      9.7052                12.9101                 6.9351

                     61                     62                     63
                      A                      A                      A
 Frequencies --   1514.2603              1519.2836              1522.8754
 Red. masses --      1.1619                 1.0772                 1.0548
 Frc consts  --      1.5697                 1.4649                 1.4412
 IR Inten    --     56.8316                 4.4746                 0.7707

                     64                     65                     66
                      A                      A                      A
 Frequencies --   1526.4913              1529.7735              1538.7280
 Red. masses --      1.0553                 1.0722                 1.0994
 Frc consts  --      1.4488                 1.4783                 1.5337
 IR Inten    --      4.1721                21.2122                12.1223

                     67                     68                     69
                      A                      A                      A
 Frequencies --   1539.4677              1541.4940              1549.4614
 Red. masses --      1.0589                 1.0784                 1.0851
 Frc consts  --      1.4785                 1.5097                 1.5350
 IR Inten    --      0.8030                 9.7773                 6.7564

                     70                     71                     72
                      A                      A                      A
 Frequencies --   2962.9930              2969.5433              3025.4138
 Red. masses --      1.0730                 1.0832                 1.0646
 Frc consts  --      5.5502                 5.6276                 5.7413
 IR Inten    --     57.5884                59.5607                40.3913

                     73                     74                     75
                      A                      A                      A
 Frequencies --   3030.4048              3035.2007              3042.9977
 Red. masses --      1.0610                 1.0652                 1.0674
 Frc consts  --      5.7407                 5.7814                 5.8236
 IR Inten    --     21.2032                21.9338                21.1460

                     76                     77                     78
                      A                      A                      A
 Frequencies --   3044.4564              3048.1370              3050.5079
 Red. masses --      1.0460                 1.0569                 1.0431
 Frc consts  --      5.7122                 5.7855                 5.7191
 IR Inten    --     12.0347                13.7817                34.1190

                     79                     80                     81
                      A                      A                      A
 Frequencies --   3060.7512              3061.9294              3064.0958
 Red. masses --      1.0952                 1.0878                 1.0890
 Frc consts  --      6.0450                 6.0086                 6.0240
 IR Inten    --     12.0137                58.0459                71.4558

                     82                     83                     84
                      A                      A                      A
 Frequencies --   3071.8424              3083.6740              3089.9296
 Red. masses --      1.0960                 1.1019                 1.1037
 Frc consts  --      6.0932                 6.1736                 6.2087
 IR Inten    --     64.8382                36.4656                62.5285

                     85                     86                     87
                      A                      A                      A
 Frequencies --   3109.6319              3110.4805              3117.8537
 Red. masses --      1.1022                 1.1016                 1.1019
 Frc consts  --      6.2797                 6.2794                 6.3113
 IR Inten    --     54.9685                39.1384                45.9440

                     88                     89                     90
                      A                      A                      A
 Frequencies --   3151.8823              3498.9521              3713.1112
 Red. masses --      1.0985                 1.0726                 1.0648
 Frc consts  --      6.4298                 7.7371                 8.6492
 IR Inten    --     23.5068                 0.3503                13.7279

 - Thermochemistry -
 -------------------
 Temperature   298.150 Kelvin.  Pressure   1.00000 Atm.
 Atom     1 has atomic number  6 and mass  12.00000

 Molecular mass:   159.16231 amu.
 Principal axes and moments of inertia in atomic units:
                           1         2         3
     Eigenvalues --  1226.550433283.379843857.88099
           X            0.99994  -0.01099   0.00163
           Y            0.01101   0.99986  -0.01281
           Z           -0.00149   0.01282   0.99992
 This molecule is an asymmetric top.
 Rotational symmetry number  1.
 Warning -- assumption of classical behavior for rotation
           may cause significant error
 Rotational temperatures (Kelvin)      0.07062     0.02638     0.02245
 Rotational constants (GHZ):           1.47140     0.54966     0.46781
 Zero-point vibrational energy     786336.5 (Joules/Mol)
                                  187.93894 (Kcal/Mol)
 Warning -- explicit consideration of  19 degrees of freedom as
           vibrations may cause significant error
 Vibrational temperatures:     37.65    55.84    71.54   112.82   141.75
          (Kelvin)            213.66   241.89   316.07   334.19   341.10
                              416.58   421.47   472.38   518.66   567.21
                              604.27   653.08   709.81   770.71   920.87
                             1054.86  1102.73  1128.12  1166.88  1213.01
                             1239.91  1282.01  1303.65  1353.37  1376.04
                             1465.40  1479.99  1494.75  1527.75  1551.20
                             1579.81  1604.56  1650.04  1665.42  1691.35
                             1709.97  1784.94  1801.40  1831.35  1859.09
                             1892.77  1922.11  1930.03  1981.60  1997.41
                             2011.65  2017.97  2031.22  2039.83  2059.49
                             2076.85  2080.01  2093.25  2163.63  2167.99
                             2178.68  2185.91  2191.08  2196.28  2201.00
                             2213.89  2214.95  2217.87  2229.33  4263.09
                             4272.51  4352.90  4360.08  4366.98  4378.20
                             4380.29  4385.59  4389.00  4403.74  4405.43
                             4408.55  4419.70  4436.72  4445.72  4474.07
                             4475.29  4485.90  4534.86  5034.21  5342.34

 Zero-point correction=                           0.299500 (Hartree/Particle)
 Thermal correction to Energy=                    0.313418
 Thermal correction to Enthalpy=                  0.314362
 Thermal correction to Gibbs Free Energy=         0.257700
 Sum of electronic and zero-point Energies=           -485.325009
 Sum of electronic and thermal Energies=              -485.311090
 Sum of electronic and thermal Enthalpies=            -485.310146
 Sum of electronic and thermal Free Energies=         -485.366808

                     E (Thermal)             CV                S
                      KCal/Mol        Cal/Mol-Kelvin    Cal/Mol-Kelvin
 Total                  196.673             50.928            119.256
 Electronic               0.000              0.000              0.000
 Translational            0.889              2.981             41.103
 Rotational               0.889              2.981             31.119
 Vibrational            194.895             44.966             47.033
 Vibration     1          0.593              1.985              6.101
 Vibration     2          0.594              1.981              5.319
 Vibration     3          0.595              1.978              4.828
 Vibration     4          0.600              1.964              3.930
 Vibration     5          0.604              1.950              3.483
 Vibration     6          0.618              1.904              2.691
 Vibration     7          0.625              1.882              2.456
 Vibration     8          0.647              1.811              1.962
 Vibration     9          0.653              1.792              1.861
 Vibration    10          0.656              1.784              1.825
 Vibration    11          0.686              1.693              1.477
 Vibration    12          0.688              1.687              1.457
 Vibration    13          0.712              1.619              1.268
 Vibration    14          0.735              1.554              1.120
 Vibration    15          0.761              1.482              0.984
 Vibration    16          0.783              1.427              0.892
 Vibration    17          0.812              1.352              0.784
 Vibration    18          0.849              1.265              0.675
 Vibration    19          0.891              1.171              0.575

                           ! Non-Optimized Parameters !
 Normal termination of Gaussian 16 at Tue Dec  8 19:45:40 2020.

 ----------------------------------------------------------------------
 # B3LYP/6-311++G(d,p) empiricaldispersion=gd3bj scf=xqc pop=npa geom=c
 heck
 ----------------------------------------------------------------------

 --------------------------------------
 CID_58369901_JID_1294_Energie_neutraal
 --------------------------------------
 Structure from the checkpoint file:  "JID_1294.chk"
 Charge =  0 Multiplicity = 1

 SCF Done:  E(RB3LYP) =  -485.777078364     A.U. after   12 cycles
 Normal termination of Gaussian 16 at Tue Dec  8 19:48:55 2020.

 ----------------------------------------------------------------------
 # B3LYP/6-311++G(d,p) empiricaldispersion=gd3bj scf=xqc pop=npa geom=c
 heck
 ----------------------------------------------------------------------

 ------------------------------------
 CID_58369901_JID_1294_Energie_kation
 ------------------------------------
 Structure from the checkpoint file:  "JID_1294.chk"
 Charge =  1 Multiplicity = 2

 SCF Done:  E(UB3LYP) =  -485.459470720     A.U. after   17 cycles
 Normal termination of Gaussian 16 at Tue Dec  8 19:55:13 2020.
 Gaussian 16:  ES64L-G16RevA.03 25-Dec-2016

 ----------------------------------------------------------------------
 # B3LYP/6-311++G(d,p) empiricaldispersion=gd3bj scf=xqc pop=npa geom=c
 heck
 ----------------------------------------------------------------------

 -----------------------------------
 CID_58369901_JID_1294_Energie_anion
 -----------------------------------
 Structure from the checkpoint file:  "JID_1294.chk"
 Charge = -1 Multiplicity = 2

                         Standard orientation:
 ---------------------------------------------------------------------
 Center     Atomic      Atomic             Coordinates (Angstroms)
 Number     Number       Type             X           Y           Z
 ---------------------------------------------------------------------
      1          6           0        3.571309    1.236248    0.654564
      2          6           0        2.529914    1.100907   -0.460063
      3          6           0        2.430590   -0.313410   -1.052766
      4          6           0        2.048362   -1.420153   -0.055888
      5          6           0        0.728707   -1.185696    0.683673
      6          7           0       -0.397416   -1.107061   -0.245985
      7          6           0       -1.714335   -1.054121    0.373997
      8          6           0       -2.061855    0.231179    1.142411
      9          6           0       -1.818743    1.556632    0.405548
     10          6           0       -2.749982    1.822680   -0.781505
     11          8           0       -2.688578   -1.239065   -0.640112
     12          1           0        3.310708    0.629561    1.528797
     13          1           0        3.659038    2.275682    0.989386
     14          1           0        4.560505    0.910980    0.309192
     15          1           0        1.549520    1.417983   -0.078943
     16          1           0        2.775068    1.799610   -1.270393
     17          1           0        1.707397   -0.307091   -1.879513
     18          1           0        3.396221   -0.575524   -1.506307
     19          1           0        1.977714   -2.371662   -0.596416
     20          1           0        2.844262   -1.536917    0.690390
     21          1           0        0.539907   -2.031890    1.356251
     22          1           0        0.816334   -0.293213    1.328428
     23          1           0       -0.292242   -0.296962   -0.854431
     24          1           0       -1.744140   -1.892886    1.090882
     25          1           0       -3.113467    0.161838    1.447913
     26          1           0       -1.468039    0.227035    2.065889
     27          1           0       -1.924792    2.370003    1.135077
     28          1           0       -0.772039    1.602526    0.071370
     29          1           0       -3.798429    1.803452   -0.461651
     30          1           0       -2.548928    2.806604   -1.221305
     31          1           0       -2.638896    1.060305   -1.555703
     32          1           0       -2.328972   -1.943085   -1.205945
 ---------------------------------------------------------------------

 SCF Done:  E(UB3LYP) =  -485.761549302     A.U. after   26 cycles

 The electronic state is 2-A.
 Alpha  occ. eigenvalues --  -19.02366 -14.20172 -10.14485 -10.09117 -10.06671
 Alpha  occ. eigenvalues --  -10.06430 -10.06344 -10.06283 -10.06237 -10.05462
 Alpha  occ. eigenvalues --  -10.05325  -0.93605  -0.80296  -0.70059  -0.68568
 Alpha  occ. eigenvalues --   -0.63973  -0.60834  -0.57459  -0.53259  -0.51316
 Alpha  occ. eigenvalues --   -0.46922  -0.45611  -0.43216  -0.39171  -0.37413
 Alpha  occ. eigenvalues --   -0.36149  -0.34717  -0.34052  -0.32247  -0.31630
 Alpha  occ. eigenvalues --   -0.30691  -0.29856  -0.29159  -0.28115  -0.26849
 Alpha  occ. eigenvalues --   -0.26560  -0.25223  -0.23934  -0.23664  -0.22830
 Alpha  occ. eigenvalues --   -0.22183  -0.22046  -0.21788  -0.18324  -0.13745
 Alpha  occ. eigenvalues --    0.04546
 Alpha virt. eigenvalues --    0.06825   0.07040   0.07408   0.08882   0.09222
 Alpha virt. eigenvalues --    0.09231   0.09696   0.10173   0.11054   0.11559
 Alpha virt. eigenvalues --    0.12062   0.12335   0.12736   0.13140   0.13440

  Beta  occ. eigenvalues --  -19.02356 -14.20158 -10.14473 -10.09094 -10.06651
  Beta  occ. eigenvalues --  -10.06416 -10.06330 -10.06267 -10.06217 -10.05448
  Beta  occ. eigenvalues --  -10.05287  -0.93584  -0.80273  -0.70023  -0.68534
  Beta  occ. eigenvalues --   -0.63930  -0.60793  -0.57401  -0.53212  -0.51241
  Beta  occ. eigenvalues --   -0.46872  -0.45550  -0.43178  -0.39133  -0.37370
  Beta  occ. eigenvalues --   -0.36121  -0.34683  -0.34009  -0.32211  -0.31598
  Beta  occ. eigenvalues --   -0.30646  -0.29828  -0.29129  -0.28077  -0.26808
  Beta  occ. eigenvalues --   -0.26525  -0.25192  -0.23898  -0.23632  -0.22802
  Beta  occ. eigenvalues --   -0.22154  -0.22003  -0.21750  -0.18299  -0.13708
  Beta virt. eigenvalues --    0.06660   0.07519   0.07769   0.07987   0.09271
  Beta virt. eigenvalues --    0.09582   0.09611   0.10247   0.10677   0.11459
  Beta virt. eigenvalues --    0.11964   0.12274   0.12729   0.13100   0.13429

 Mulliken charges and spin densities:
               1          2
     1  C    1.393459  -2.014194
     2  C   -0.540112   0.439690
     3  C   -0.350871   0.194265
     4  C    0.920563  -1.345575
     5  C   -0.383163  -0.144373
     6  N   -0.142330   0.124200
     7  C    0.019616  -0.350595
     8  C    0.262869  -0.473347
     9  C   -0.106024   0.072396
    10  C    0.355424  -0.999080
    11  O   -0.252400   0.015736
    12  H   -0.319021   0.460163
    13  H   -0.339321   0.480271
    14  H   -0.201888   0.336622
    15  H    0.356161  -0.257103
    16  H   -0.494198   0.657267
    17  H   -0.150849   0.294689
    18  H   -0.187978   0.350308
    19  H   -0.064571   0.228862
    20  H   -0.099061   0.251283
    21  H   -0.249028   0.389873
    22  H    0.223786  -0.073563
    23  H    0.529203  -0.296654
    24  H   -0.172886   0.343714
    25  H   -0.107290   0.300120
    26  H   -0.220787   0.373634
    27  H   -0.424419   0.589111
    28  H   -0.390902   0.507895
    29  H    0.056236   0.062236
    30  H   -0.060985   0.189908
    31  H    0.031099   0.137479
    32  H    0.109668   0.154761
 Sum of Mulliken charges =  -1.00000   1.00000

 Dipole moment (field-independent basis, Debye):
    X=             -3.0291    Y=             -2.2789    Z=             -1.8252  Tot=              4.2072
 Quadrupole moment (field-independent basis, Debye-Ang):
   XX=           -143.7906   YY=           -119.7265   ZZ=           -109.3956
   XY=             -4.6892   XZ=              1.2877   YZ=             -0.1219

 Summary of Natural Population Analysis:

                                       Natural Population
                Natural  -----------------------------------------------
    Atom  No    Charge         Core      Valence    Rydberg      Total
 -----------------------------------------------------------------------
      C    1   -0.28662      0.99967     2.28177    0.00519     3.28662
      C    2   -0.19403      0.99964     2.18589    0.00850     3.19403
      C    3   -0.19042      0.99963     2.18257    0.00822     3.19042
      C    4   -0.19229      0.99962     2.18364    0.00902     3.19229
      C    5   -0.09072      0.99962     2.08009    0.01102     3.09072
      N    6   -0.35427      0.99973     2.84271    0.01184     3.85427
      C    7    0.15858      0.99959     1.82605    0.01578     2.84142
      C    8   -0.20403      0.99960     2.19494    0.00949     3.20403
      C    9   -0.19586      0.99963     2.18723    0.00900     3.19586
      C   10   -0.28531      0.99966     2.28130    0.00435     3.28531
      O   11   -0.37586      0.99989     3.36933    0.00664     4.37586
      H   12    0.09634      0.00000     0.40238    0.00128     0.40366
      H   13    0.10053      0.00000     0.39826    0.00121     0.39947
      H   14    0.09544      0.00000     0.40325    0.00132     0.40456
      H   15    0.09189      0.00000     0.40587    0.00224     0.40811
      H   16    0.09665      0.00000     0.40204    0.00131     0.40335
      H   17    0.09408      0.00000     0.40460    0.00133     0.40592
      H   18    0.09721      0.00000     0.40160    0.00119     0.40279
      H   19    0.09862      0.00000     0.39998    0.00140     0.40138
      H   20    0.09819      0.00000     0.40062    0.00119     0.40181
      H   21    0.09514      0.00000     0.40328    0.00158     0.40486
      H   22    0.08236      0.00000     0.41575    0.00190     0.41764
      H   23    0.17472      0.00000     0.32092    0.00436     0.32528
      H   24    0.07262      0.00000     0.42516    0.00221     0.42738
      H   25    0.10117      0.00000     0.39769    0.00113     0.39883
      H   26    0.10272      0.00000     0.39590    0.00138     0.39728
      H   27    0.09823      0.00000     0.40042    0.00134     0.40177
      H   28    0.09144      0.00000     0.40632    0.00224     0.40856
      H   29    0.09442      0.00000     0.40460    0.00098     0.40558
      H   30    0.09452      0.00000     0.40453    0.00094     0.40548
      H   31    0.10348      0.00000     0.39531    0.00120     0.39652
      H   32    0.23105      0.00000     0.26582    0.00313     0.26895
 =======================================================================
   * Total *    0.00000     10.99627    33.86983    0.13390    45.00000

 Normal termination of Gaussian 16 at Tue Dec  8 20:04:26 2020.
