 Gaussian 16, Revision A.03,

 -----------------------------------------------------------
 # opt freq B3LYP/6-31G(d) empiricaldispersion=gd3bj scf=xqc
 -----------------------------------------------------------

 -------------------------------
 CID_146923654_JID_2272_neutraal
 -------------------------------
 Symbolic Z-matrix:
 Charge =  0 Multiplicity = 1

 SCF Done:  E(RB3LYP) =  -468.155992581     A.U. after   13 cycles
 SCF Done:  E(RB3LYP) =  -468.160752247     A.U. after   10 cycles
 SCF Done:  E(RB3LYP) =  -468.161206076     A.U. after   10 cycles
 SCF Done:  E(RB3LYP) =  -468.161326815     A.U. after   10 cycles
 SCF Done:  E(RB3LYP) =  -468.161343544     A.U. after    8 cycles
 SCF Done:  E(RB3LYP) =  -468.161354971     A.U. after    8 cycles
 SCF Done:  E(RB3LYP) =  -468.161356026     A.U. after    7 cycles
 SCF Done:  E(RB3LYP) =  -468.161356393     A.U. after    7 cycles
 Optimization completed.
    -- Stationary point found.
 Normal termination of Gaussian 16 at Wed Dec  9 16:55:55 2020.

 --------------------------------------------------------------------
 #N Geom=AllCheck Guess=TCheck SCRF=Check GenChk RB3LYP/6-31G(d) Freq
 --------------------------------------------------------------------

 Structure from the checkpoint file:  "JID_2272.chk"
 -------------------------------
 CID_146923654_JID_2272_neutraal
 -------------------------------
 Charge =  0 Multiplicity = 1

 SCF Done:  E(RB3LYP) =  -468.161356393     A.U. after    1 cycles

  Exact polarizability: 124.312  -0.699 108.038   0.298  -0.342 103.993
 Approx polarizability: 162.176  -2.646 157.830   1.247  -0.318 161.687

                      1                      2                      3
                      A                      A                      A
 Frequencies --    137.4185               171.1069               208.7486
 Red. masses --      2.0583                 2.2152                 1.1593
 Frc consts  --      0.0229                 0.0382                 0.0298
 IR Inten    --      0.0274                 0.0465                 0.0459

                      4                      5                      6
                      A                      A                      A
 Frequencies --    210.3570               224.9661               233.2365
 Red. masses --      1.3727                 2.5224                 1.6959
 Frc consts  --      0.0358                 0.0752                 0.0544
 IR Inten    --      0.0249                 0.0615                 0.1182

                      7                      8                      9
                      A                      A                      A
 Frequencies --    241.2662               329.2172               391.3898
 Red. masses --      2.1781                 2.2223                 2.0826
 Frc consts  --      0.0747                 0.1419                 0.1880
 IR Inten    --      0.0385                 0.0929                 0.0791

                     10                     11                     12
                      A                      A                      A
 Frequencies --    428.2818               450.6942               535.2214
 Red. masses --      3.6796                 3.2281                 3.1642
 Frc consts  --      0.3977                 0.3863                 0.5341
 IR Inten    --      0.1650                 0.6857                 0.3816

                     13                     14                     15
                      A                      A                      A
 Frequencies --    570.3738               615.1250               657.0573
 Red. masses --      4.0132                 4.7773                 2.8074
 Frc consts  --      0.7692                 1.0650                 0.7141
 IR Inten    --      0.1912                 0.3928                 0.5046

                     16                     17                     18
                      A                      A                      A
 Frequencies --    671.6043               694.4313               779.6728
 Red. masses --      3.2132                 2.4973                 3.3272
 Frc consts  --      0.8539                 0.7095                 1.1916
 IR Inten    --      1.8161                 0.1567                 2.0279

                     19                     20                     21
                      A                      A                      A
 Frequencies --    809.8767               821.2929               833.1218
 Red. masses --      1.8155                 2.4608                 2.6071
 Frc consts  --      0.7016                 0.9779                 1.0662
 IR Inten    --      0.7428                 2.4988                 0.9644

                     22                     23                     24
                      A                      A                      A
 Frequencies --    877.5814               910.0605               916.2279
 Red. masses --      2.0260                 2.5303                 1.8305
 Frc consts  --      0.9193                 1.2347                 0.9054
 IR Inten    --      0.0954                 0.0913                 2.2257

                     25                     26                     27
                      A                      A                      A
 Frequencies --    952.8596               958.3310               965.5852
 Red. masses --      2.4024                 1.9279                 1.8211
 Frc consts  --      1.2852                 1.0432                 1.0004
 IR Inten    --      0.3272                 2.2736                 0.4633

                     28                     29                     30
                      A                      A                      A
 Frequencies --    984.0644               997.6889              1029.4741
 Red. masses --      1.5297                 1.7838                 1.8529
 Frc consts  --      0.8728                 1.0461                 1.1570
 IR Inten    --      2.9708                 0.9000                 0.8036

                     31                     32                     33
                      A                      A                      A
 Frequencies --   1032.9568              1056.0182              1076.4107
 Red. masses --      1.8249                 1.7996                 1.3854
 Frc consts  --      1.1473                 1.1824                 0.9457
 IR Inten    --      0.4378                 1.3728                 0.2865

                     34                     35                     36
                      A                      A                      A
 Frequencies --   1090.4759              1103.3721              1111.8878
 Red. masses --      1.7549                 1.8567                 1.7871
 Frc consts  --      1.2295                 1.3318                 1.3018
 IR Inten    --      0.7470                 1.5280                 1.8169

                     37                     38                     39
                      A                      A                      A
 Frequencies --   1128.5960              1151.9672              1166.1372
 Red. masses --      1.6985                 1.2336                 2.1798
 Frc consts  --      1.2746                 0.9645                 1.7465
 IR Inten    --      1.0055                 0.4720                 0.7848

                     40                     41                     42
                      A                      A                      A
 Frequencies --   1182.8158              1194.4109              1215.2255
 Red. masses --      1.9288                 1.3241                 1.3937
 Frc consts  --      1.5899                 1.1130                 1.2126
 IR Inten    --      0.5560                 0.6888                 0.2976

                     43                     44                     45
                      A                      A                      A
 Frequencies --   1239.6189              1262.4388              1270.4924
 Red. masses --      1.8210                 1.2844                 1.3556
 Frc consts  --      1.6487                 1.2061                 1.2893
 IR Inten    --      0.2787                 0.3901                 0.2899

                     46                     47                     48
                      A                      A                      A
 Frequencies --   1295.5410              1313.5391              1319.3471
 Red. masses --      1.9495                 1.4125                 1.6175
 Frc consts  --      1.9279                 1.4359                 1.6589
 IR Inten    --      0.3886                 0.0780                 0.1708

                     49                     50                     51
                      A                      A                      A
 Frequencies --   1332.8966              1345.2091              1350.5331
 Red. masses --      1.4013                 1.4769                 1.5756
 Frc consts  --      1.4668                 1.5747                 1.6932
 IR Inten    --      0.1843                 0.3721                 0.6765

                     52                     53                     54
                      A                      A                      A
 Frequencies --   1364.0198              1375.5305              1389.5947
 Red. masses --      1.6847                 1.4906                 1.5154
 Frc consts  --      1.8468                 1.6617                 1.7241
 IR Inten    --      1.1019                 2.5365                 0.7063

                     55                     56                     57
                      A                      A                      A
 Frequencies --   1396.0692              1397.5472              1437.7677
 Red. masses --      1.7787                 1.5576                 1.2579
 Frc consts  --      2.0425                 1.7925                 1.5320
 IR Inten    --      3.6499                 3.6079                 5.6965

                     58                     59                     60
                      A                      A                      A
 Frequencies --   1445.3712              1479.2131              1517.0900
 Red. masses --      1.2555                 2.7894                 1.0747
 Frc consts  --      1.5454                 3.5960                 1.4573
 IR Inten    --      0.4941                 0.5607                 1.6908

                     61                     62                     63
                      A                      A                      A
 Frequencies --   1518.4314              1525.0934              1528.9804
 Red. masses --      1.0536                 1.0633                 1.0688
 Frc consts  --      1.4312                 1.4572                 1.4722
 IR Inten    --      3.5027                 2.1883                 2.7231

                     64                     65                     66
                      A                      A                      A
 Frequencies --   1533.9296              1535.5696              1543.3859
 Red. masses --      1.0641                 1.0819                 1.0857
 Frc consts  --      1.4752                 1.5031                 1.5237
 IR Inten    --      4.5751                 0.9947                 4.5061

                     67                     68                     69
                      A                      A                      A
 Frequencies --   2995.0738              3030.3987              3032.9707
 Red. masses --      1.0832                 1.0370                 1.0593
 Frc consts  --      5.7249                 5.6110                 5.7413
 IR Inten    --     36.2670                53.8030                35.7251

                     70                     71                     72
                      A                      A                      A
 Frequencies --   3045.1913              3049.4736              3053.9158
 Red. masses --      1.0648                 1.0382                 1.0815
 Frc consts  --      5.8179                 5.6883                 5.9429
 IR Inten    --     18.6921                28.0982                12.2015

                     73                     74                     75
                      A                      A                      A
 Frequencies --   3059.5984              3063.6126              3068.1047
 Red. masses --      1.0983                 1.0728                 1.0845
 Frc consts  --      6.0577                 5.9327                 6.0149
 IR Inten    --     48.1300                27.0292                79.2794

                     76                     77                     78
                      A                      A                      A
 Frequencies --   3080.9129              3086.4857              3088.1861
 Red. masses --      1.0878                 1.1014                 1.0987
 Frc consts  --      6.0837                 6.1817                 6.1737
 IR Inten    --     56.5968                35.9751                26.2607

                     79                     80                     81
                      A                      A                      A
 Frequencies --   3103.6234              3106.5147              3107.3322
 Red. masses --      1.1011                 1.1055                 1.1017
 Frc consts  --      6.2488                 6.2855                 6.2675
 IR Inten    --     27.6654                60.3551                37.1053

                     82                     83                     84
                      A                      A                      A
 Frequencies --   3129.0046              3143.6777              3165.6264
 Red. masses --      1.0998                 1.0882                 1.0910
 Frc consts  --      6.3443                 6.3363                 6.4416
 IR Inten    --     34.9088                23.8633                34.9705

 - Thermochemistry -
 -------------------
 Temperature   298.150 Kelvin.  Pressure   1.00000 Atm.
 Atom     1 has atomic number  6 and mass  12.00000

 Molecular mass:   162.14085 amu.
 Principal axes and moments of inertia in atomic units:
                           1         2         3
     Eigenvalues --  1100.109151951.915662211.83006
           X            0.99999  -0.00409   0.00064
           Y            0.00409   0.99999   0.00031
           Z           -0.00065  -0.00031   1.00000
 This molecule is an asymmetric top.
 Rotational symmetry number  1.
 Warning -- assumption of classical behavior for rotation
           may cause significant error
 Rotational temperatures (Kelvin)      0.07873     0.04437     0.03916
 Rotational constants (GHZ):           1.64051     0.92460     0.81595
 Zero-point vibrational energy     725197.3 (Joules/Mol)
                                  173.32631 (Kcal/Mol)
 Warning -- explicit consideration of  14 degrees of freedom as
           vibrations may cause significant error
 Vibrational temperatures:    197.71   246.18   300.34   302.66   323.68
          (Kelvin)            335.58   347.13   473.67   563.12   616.20
                              648.45   770.06   820.64   885.03   945.36
                              966.29   999.13  1121.78  1165.23  1181.66
                             1198.68  1262.64  1309.37  1318.25  1370.95
                             1378.82  1389.26  1415.85  1435.45  1481.18
                             1486.19  1519.37  1548.71  1568.95  1587.51
                             1599.76  1623.80  1657.42  1677.81  1701.81
                             1718.49  1748.44  1783.54  1816.37  1827.96
                             1863.99  1889.89  1898.25  1917.74  1935.46
                             1943.12  1962.52  1979.08  1999.32  2008.63
                             2010.76  2068.63  2079.57  2128.26  2182.75
                             2184.68  2194.27  2199.86  2206.98  2209.34
                             2220.59  4309.24  4360.07  4363.77  4381.35
                             4387.51  4393.90  4402.08  4407.86  4414.32
                             4432.75  4440.76  4443.21  4465.42  4469.58
                             4470.76  4501.94  4523.05  4554.63

 Zero-point correction=                           0.276213 (Hartree/Particle)
 Thermal correction to Energy=                    0.286257
 Thermal correction to Enthalpy=                  0.287201
 Thermal correction to Gibbs Free Energy=         0.241859
 Sum of electronic and zero-point Energies=           -467.885143
 Sum of electronic and thermal Energies=              -467.875099
 Sum of electronic and thermal Enthalpies=            -467.874155
 Sum of electronic and thermal Free Energies=         -467.919497

                     E (Thermal)             CV                S
                      KCal/Mol        Cal/Mol-Kelvin    Cal/Mol-Kelvin
 Total                  179.629             42.748             95.430
 Electronic               0.000              0.000              0.000
 Translational            0.889              2.981             41.159
 Rotational               0.889              2.981             29.942
 Vibrational            177.852             36.786             24.330
 Vibration     1          0.614              1.916              2.840
 Vibration     2          0.626              1.878              2.423
 Vibration     3          0.642              1.827              2.055
 Vibration     4          0.643              1.825              2.041
 Vibration     5          0.650              1.803              1.919
 Vibration     6          0.654              1.790              1.854
 Vibration     7          0.658              1.777              1.794
 Vibration     8          0.712              1.617              1.264
 Vibration     9          0.759              1.489              0.995
 Vibration    10          0.790              1.409              0.864
 Vibration    11          0.809              1.359              0.794
 Vibration    12          0.890              1.172              0.576
 Vibration    13          0.926              1.095              0.504
 Vibration    14          0.975              1.000              0.424

                           ! Non-Optimized Parameters !
 Normal termination of Gaussian 16 at Wed Dec  9 17:05:39 2020.

 ----------------------------------------------------------------------
 # B3LYP/6-311++G(d,p) empiricaldispersion=gd3bj scf=xqc pop=npa geom=c
 heck
 ----------------------------------------------------------------------

 ---------------------------------------
 CID_146923654_JID_2272_Energie_neutraal
 ---------------------------------------
 Structure from the checkpoint file:  "JID_2272.chk"
 Charge =  0 Multiplicity = 1

 SCF Done:  E(RB3LYP) =  -468.279026645     A.U. after   14 cycles
 Normal termination of Gaussian 16 at Wed Dec  9 17:09:56 2020.

 ----------------------------------------------------------------------
 # B3LYP/6-311++G(d,p) empiricaldispersion=gd3bj scf=xqc pop=npa geom=c
 heck
 ----------------------------------------------------------------------

 -------------------------------------
 CID_146923654_JID_2272_Energie_kation
 -------------------------------------
 Structure from the checkpoint file:  "JID_2272.chk"
 Charge =  1 Multiplicity = 2

 SCF Done:  E(UB3LYP) =  -467.958572624     A.U. after   27 cycles
 Normal termination of Gaussian 16 at Wed Dec  9 17:21:39 2020.
 Gaussian 16:  ES64L-G16RevA.03 25-Dec-2016

 ----------------------------------------------------------------------
 # B3LYP/6-311++G(d,p) empiricaldispersion=gd3bj scf=xqc pop=npa geom=c
 heck
 ----------------------------------------------------------------------

 ------------------------------------
 CID_146923654_JID_2272_Energie_anion
 ------------------------------------
 Structure from the checkpoint file:  "JID_2272.chk"
 Charge = -1 Multiplicity = 2

                         Standard orientation:
 ---------------------------------------------------------------------
 Center     Atomic      Atomic             Coordinates (Angstroms)
 Number     Number       Type             X           Y           Z
 ---------------------------------------------------------------------
      1          6           0       -1.688142    2.013983   -0.245749
      2          6           0       -1.068097    0.725121   -0.791003
      3          6           0        0.468032    0.707699   -0.864900
      4          6           0        1.200522    1.027893    0.462736
      5          6           0        2.591875    0.420050    0.203082
      6          6           0        2.309753   -0.915279   -0.536397
      7          6           0        0.852150   -0.786424   -1.044504
      8          6           0       -0.189573   -1.469359   -0.162755
      9          6           0       -1.380786   -0.545567    0.004148
     10          6           0       -0.443908   -0.785925    1.167608
     11          6           0        0.479851    0.326663    1.644189
     12          6           0       -2.803878   -1.043945    0.049469
     13          1           0       -1.372364    2.213301    0.782882
     14          1           0       -2.782592    1.956213   -0.250300
     15          1           0       -1.400481    2.876603   -0.858459
     16          1           0       -1.453170    0.571972   -1.811602
     17          1           0        0.854869    1.345864   -1.667707
     18          1           0        1.266700    2.104763    0.650642
     19          1           0        3.171037    0.288832    1.123690
     20          1           0        3.166313    1.092311   -0.446425
     21          1           0        2.408949   -1.775452    0.134542
     22          1           0        3.014956   -1.070862   -1.359542
     23          1           0        0.739352   -1.125682   -2.080875
     24          1           0       -0.320151   -2.546869   -0.232642
     25          1           0       -0.842188   -1.422456    1.956061
     26          1           0       -0.104034    1.054214    2.221886
     27          1           0        1.223796   -0.083503    2.339569
     28          1           0       -3.463255   -0.334501    0.565521
     29          1           0       -3.203113   -1.193451   -0.962475
     30          1           0       -2.871421   -2.000758    0.579678
 ---------------------------------------------------------------------

 SCF Done:  E(UB3LYP) =  -468.261956067     A.U. after   29 cycles

 The electronic state is 2-A.
 Alpha  occ. eigenvalues --  -10.06510 -10.06103 -10.06043 -10.05958 -10.05864
 Alpha  occ. eigenvalues --  -10.05728 -10.05635 -10.05473 -10.05377 -10.05355
 Alpha  occ. eigenvalues --  -10.05312 -10.04753  -0.79461  -0.71093  -0.66084
 Alpha  occ. eigenvalues --   -0.64280  -0.61483  -0.58208  -0.55075  -0.51443
 Alpha  occ. eigenvalues --   -0.48254  -0.45065  -0.42349  -0.39970  -0.38434
 Alpha  occ. eigenvalues --   -0.36303  -0.34333  -0.33246  -0.31483  -0.30508
 Alpha  occ. eigenvalues --   -0.29625  -0.29029  -0.28838  -0.28181  -0.27562
 Alpha  occ. eigenvalues --   -0.25445  -0.24414  -0.22793  -0.22045  -0.21436
 Alpha  occ. eigenvalues --   -0.20012  -0.19557  -0.18802  -0.15077  -0.14668
 Alpha  occ. eigenvalues --    0.04731
 Alpha virt. eigenvalues --    0.07143   0.07502   0.07664   0.09303   0.09437
 Alpha virt. eigenvalues --    0.09658   0.09904   0.10026   0.11958   0.12071
 Alpha virt. eigenvalues --    0.12368   0.12750   0.12915   0.13585   0.14257

  Beta  occ. eigenvalues --  -10.06511 -10.06092 -10.06030 -10.05949 -10.05856
  Beta  occ. eigenvalues --  -10.05720 -10.05618 -10.05459 -10.05361 -10.05327
  Beta  occ. eigenvalues --  -10.05300 -10.04724  -0.79439  -0.71066  -0.66052
  Beta  occ. eigenvalues --   -0.64249  -0.61444  -0.58159  -0.55033  -0.51389
  Beta  occ. eigenvalues --   -0.48213  -0.45022  -0.42311  -0.39913  -0.38389
  Beta  occ. eigenvalues --   -0.36253  -0.34304  -0.33217  -0.31445  -0.30474
  Beta  occ. eigenvalues --   -0.29595  -0.28993  -0.28808  -0.28149  -0.27530
  Beta  occ. eigenvalues --   -0.25405  -0.24381  -0.22766  -0.22015  -0.21405
  Beta  occ. eigenvalues --   -0.19980  -0.19529  -0.18763  -0.15053  -0.14646
  Beta virt. eigenvalues --    0.06916   0.07930   0.08198   0.08423   0.09772
  Beta virt. eigenvalues --    0.09936   0.10161   0.10438   0.10593   0.12418
  Beta virt. eigenvalues --    0.12568   0.12735   0.13180   0.13394   0.13989

 Mulliken charges and spin densities:
               1          2
     1  C    0.888901  -1.625122
     2  C   -1.769091   1.608870
     3  C    0.306619  -0.591972
     4  C   -0.499265   0.933605
     5  C    0.105758  -0.763464
     6  C    0.220443  -0.754323
     7  C   -0.326404   0.466222
     8  C    0.522219  -0.956077
     9  C   -0.916772   1.193856
    10  C   -1.339034   1.285179
    11  C    1.633291  -2.476340
    12  C    3.054045  -3.169984
    13  H   -0.175697   0.323622
    14  H   -0.220013   0.357147
    15  H   -0.181978   0.314340
    16  H   -0.241600   0.423061
    17  H   -0.412423   0.659025
    18  H   -0.094441   0.321043
    19  H    0.000960   0.131216
    20  H   -0.304421   0.447230
    21  H    0.012462   0.125001
    22  H   -0.105130   0.246044
    23  H   -0.184386   0.410015
    24  H   -0.254209   0.452162
    25  H   -0.305209   0.521308
    26  H    0.104816   0.030029
    27  H   -0.129384   0.271487
    28  H   -0.013541   0.165868
    29  H   -0.184229   0.333563
    30  H   -0.192286   0.317390
 Sum of Mulliken charges =  -1.00000   1.00000

 Dipole moment (field-independent basis, Debye):
    X=              0.8770    Y=             -1.0163    Z=              1.5061  Tot=              2.0176
 Quadrupole moment (field-independent basis, Debye-Ang):
   XX=           -127.9384   YY=           -119.1529   ZZ=           -116.4452
   XY=             -3.0759   XZ=              2.8923   YZ=              2.4683

 Summary of Natural Population Analysis:

                                       Natural Population
                Natural  -----------------------------------------------
    Atom  No    Charge         Core      Valence    Rydberg      Total
 -----------------------------------------------------------------------
      C    1   -0.28392      0.99964     2.27841    0.00586     3.28392
      C    2   -0.10442      0.99955     2.09288    0.01200     3.10442
      C    3   -0.10102      0.99958     2.08880    0.01264     3.10102
      C    4   -0.10945      0.99959     2.09810    0.01176     3.10945
      C    5   -0.18635      0.99962     2.17839    0.00834     3.18635
      C    6   -0.19165      0.99963     2.18401    0.00801     3.19165
      C    7   -0.10880      0.99959     2.09760    0.01161     3.10880
      C    8   -0.10114      0.99952     2.08922    0.01240     3.10114
      C    9   -0.03341      0.99950     2.02075    0.01316     3.03341
      C   10   -0.10751      0.99954     2.09654    0.01143     3.10751
      C   11   -0.19130      0.99961     2.18231    0.00939     3.19130
      C   12   -0.27924      0.99961     2.27345    0.00618     3.27924
      H   13    0.09781      0.00000     0.40089    0.00130     0.40219
      H   14    0.09899      0.00000     0.40002    0.00099     0.40101
      H   15    0.09945      0.00000     0.39956    0.00098     0.40055
      H   16    0.09807      0.00000     0.40013    0.00181     0.40193
      H   17    0.10549      0.00000     0.39270    0.00180     0.39451
      H   18    0.10281      0.00000     0.39592    0.00127     0.39719
      H   19    0.09554      0.00000     0.40345    0.00101     0.40446
      H   20    0.09757      0.00000     0.40096    0.00147     0.40243
      H   21    0.09608      0.00000     0.40271    0.00121     0.40392
      H   22    0.09873      0.00000     0.40014    0.00113     0.40127
      H   23    0.10308      0.00000     0.39538    0.00153     0.39692
      H   24    0.10427      0.00000     0.39463    0.00110     0.39573
      H   25    0.10456      0.00000     0.39425    0.00119     0.39544
      H   26    0.09994      0.00000     0.39869    0.00137     0.40006
      H   27    0.09725      0.00000     0.40154    0.00121     0.40275
      H   28    0.09959      0.00000     0.39925    0.00115     0.40041
      H   29    0.09875      0.00000     0.40004    0.00120     0.40125
      H   30    0.10020      0.00000     0.39865    0.00115     0.39980
 =======================================================================
   * Total *   -0.00000     11.99497    32.85939    0.14565    45.00000

 Normal termination of Gaussian 16 at Wed Dec  9 17:34:23 2020.
