 Gaussian 16, Revision A.03,

 -----------------------------------------------------------
 # opt freq B3LYP/6-31G(d) empiricaldispersion=gd3bj scf=xqc
 -----------------------------------------------------------

 -----------------------------
 CID_3241046_JID_3485_neutraal
 -----------------------------
 Symbolic Z-matrix:
 Charge =  0 Multiplicity = 1

 SCF Done:  E(RB3LYP) =  -1329.16299747     A.U. after   15 cycles
 SCF Done:  E(RB3LYP) =  -1329.16918269     A.U. after   13 cycles
 SCF Done:  E(RB3LYP) =  -1329.16998436     A.U. after   12 cycles
 SCF Done:  E(RB3LYP) =  -1329.16952723     A.U. after   13 cycles
 SCF Done:  E(RB3LYP) =  -1329.17032160     A.U. after   11 cycles
 SCF Done:  E(RB3LYP) =  -1329.17038555     A.U. after   11 cycles
 SCF Done:  E(RB3LYP) =  -1329.17043179     A.U. after   11 cycles
 SCF Done:  E(RB3LYP) =  -1329.17044747     A.U. after   10 cycles
 SCF Done:  E(RB3LYP) =  -1329.17045487     A.U. after   10 cycles
 SCF Done:  E(RB3LYP) =  -1329.17045719     A.U. after    8 cycles
 SCF Done:  E(RB3LYP) =  -1329.17046163     A.U. after    9 cycles
 SCF Done:  E(RB3LYP) =  -1329.17046450     A.U. after    9 cycles
 SCF Done:  E(RB3LYP) =  -1329.17046650     A.U. after    9 cycles
 SCF Done:  E(RB3LYP) =  -1329.17046687     A.U. after    8 cycles
 Optimization completed.
    -- Stationary point found.
 Normal termination of Gaussian 16 at Wed Dec  9 23:23:50 2020.

 --------------------------------------------------------------------
 #N Geom=AllCheck Guess=TCheck SCRF=Check GenChk RB3LYP/6-31G(d) Freq
 --------------------------------------------------------------------

 Structure from the checkpoint file:  "JID_3485.chk"
 -----------------------------
 CID_3241046_JID_3485_neutraal
 -----------------------------
 Charge =  0 Multiplicity = 1

 SCF Done:  E(RB3LYP) =  -1329.17046687     A.U. after    1 cycles

  Exact polarizability: 205.528  -7.922 135.946   3.821   0.446  69.337
 Approx polarizability: 317.386 -23.906 228.936  10.080   2.389 105.155

                      1                      2                      3
                      A                      A                      A
 Frequencies --     46.3830                56.8460                86.1564
 Red. masses --      4.6014                 3.2015                 1.7463
 Frc consts  --      0.0058                 0.0061                 0.0076
 IR Inten    --      0.8758                 1.3881                 2.0272

                      4                      5                      6
                      A                      A                      A
 Frequencies --    105.7012               112.8230               122.7618
 Red. masses --      2.6667                 5.2712                 3.0268
 Frc consts  --      0.0176                 0.0395                 0.0269
 IR Inten    --      4.8479                 0.1535                 0.8028

                      7                      8                      9
                      A                      A                      A
 Frequencies --    146.6702               226.6226               241.2596
 Red. masses --      3.4648                 1.3394                 5.3227
 Frc consts  --      0.0439                 0.0405                 0.1825
 IR Inten    --      0.1892                 2.6853                 4.6074

                     10                     11                     12
                      A                      A                      A
 Frequencies --    266.2307               270.5046               299.0104
 Red. masses --      5.8419                 4.6688                 6.7303
 Frc consts  --      0.2440                 0.2013                 0.3545
 IR Inten    --      1.8473                 2.0756                 3.5126

                     13                     14                     15
                      A                      A                      A
 Frequencies --    329.8244               349.8239               385.8623
 Red. masses --      2.6147                 2.8688                 7.8186
 Frc consts  --      0.1676                 0.2068                 0.6859
 IR Inten    --     18.8359                 5.9424                 0.4998

                     16                     17                     18
                      A                      A                      A
 Frequencies --    418.4960               443.2433               478.2152
 Red. masses --      1.2103                 3.7976                 7.9478
 Frc consts  --      0.1249                 0.4396                 1.0709
 IR Inten    --    127.6704                21.8822                38.9941

                     19                     20                     21
                      A                      A                      A
 Frequencies --    510.4472               544.2742               572.9356
 Red. masses --      5.6931                10.5522                 9.6626
 Frc consts  --      0.8740                 1.8417                 1.8688
 IR Inten    --     24.9681                 1.7008                 4.4768

                     22                     23                     24
                      A                      A                      A
 Frequencies --    653.0446               688.2764               733.2118
 Red. masses --      3.6496                 4.4457                 2.4314
 Frc consts  --      0.9170                 1.2408                 0.7701
 IR Inten    --     21.4054                 9.0905                75.7298

                     25                     26                     27
                      A                      A                      A
 Frequencies --    772.9072               774.8928               839.7543
 Red. masses --      3.0711                 1.9701                 1.7453
 Frc consts  --      1.0809                 0.6970                 0.7251
 IR Inten    --    117.9118                27.0901                 1.6495

                     28                     29                     30
                      A                      A                      A
 Frequencies --    880.6563               942.7481              1005.9613
 Red. masses --      3.0694                 3.9685                 3.5767
 Frc consts  --      1.4025                 2.0781                 2.1325
 IR Inten    --      0.3565                18.2705                 5.6803

                     31                     32                     33
                      A                      A                      A
 Frequencies --   1043.3997              1107.2244              1131.5369
 Red. masses --      3.5134                 5.2775                 1.9962
 Frc consts  --      2.2536                 3.8120                 1.5059
 IR Inten    --     21.7069               136.8095                93.3704

                     34                     35                     36
                      A                      A                      A
 Frequencies --   1147.9922              1160.6081              1186.4973
 Red. masses --      2.5951                 1.3272                 1.9885
 Frc consts  --      2.0150                 1.0533                 1.6493
 IR Inten    --    135.2147                 3.2615               123.0851

                     37                     38                     39
                      A                      A                      A
 Frequencies --   1212.2809              1259.1328              1331.3808
 Red. masses --      1.7981                 4.5633                 3.7883
 Frc consts  --      1.5569                 4.2625                 3.9564
 IR Inten    --     41.5518               509.4464               212.9912

                     40                     41                     42
                      A                      A                      A
 Frequencies --   1343.9878              1381.2154              1428.4799
 Red. masses --      1.1521                 2.6228                 1.5032
 Frc consts  --      1.2262                 2.9481                 1.8072
 IR Inten    --     17.8679               329.4762               110.8797

                     43                     44                     45
                      A                      A                      A
 Frequencies --   1447.5890              1451.0014              1505.4801
 Red. masses --      1.5342                 1.4781                 2.1279
 Frc consts  --      1.8942                 1.8335                 2.8415
 IR Inten    --     21.6359                66.7593                33.4031

                     46                     47                     48
                      A                      A                      A
 Frequencies --   1515.5077              1518.6228              1519.9761
 Red. masses --      1.0596                 1.0650                 1.0998
 Frc consts  --      1.4339                 1.4471                 1.4971
 IR Inten    --     34.2574                33.6985                13.3341

                     49                     50                     51
                      A                      A                      A
 Frequencies --   1537.5229              1538.4771              1598.8314
 Red. masses --      1.1094                 1.1125                 2.0616
 Frc consts  --      1.5452                 1.5515                 3.1049
 IR Inten    --     27.2515                75.8187               241.2355

                     52                     53                     54
                      A                      A                      A
 Frequencies --   1699.9806              1737.0823              3061.3272
 Red. masses --      2.2818                 5.4849                 1.0382
 Frc consts  --      3.8852                 9.7512                 5.7326
 IR Inten    --    335.9679               211.7845                32.0496

                     55                     56                     57
                      A                      A                      A
 Frequencies --   3062.6526              3097.9876              3130.3546
 Red. masses --      1.0361                 1.0592                 1.1010
 Frc consts  --      5.7260                 5.9894                 6.3565
 IR Inten    --     17.5431                27.5521                29.4769

                     58                     59                     60
                      A                      A                      A
 Frequencies --   3136.2352              3141.4118              3161.9198
 Red. masses --      1.1006                 1.1044                 1.1082
 Frc consts  --      6.3782                 6.4215                 6.5280
 IR Inten    --     11.4268                 5.8860                26.8198

                     61                     62                     63
                      A                      A                      A
 Frequencies --   3182.0364              3472.7167              3632.8958
 Red. masses --      1.1030                 1.0555                 1.0922
 Frc consts  --      6.5802                 7.5001                 8.4927
 IR Inten    --      1.5036                87.0826                46.3467

 - Thermochemistry -
 -------------------
 Temperature   298.150 Kelvin.  Pressure   1.00000 Atm.
 Atom     1 has atomic number  6 and mass  12.00000

 Molecular mass:   218.01837 amu.
 Principal axes and moments of inertia in atomic units:
                           1         2         3
     Eigenvalues --  1413.095025076.458776305.71560
           X            0.99950   0.03115  -0.00501
           Y           -0.03117   0.99951  -0.00313
           Z            0.00491   0.00328   0.99998
 This molecule is an asymmetric top.
 Rotational symmetry number  1.
 Warning -- assumption of classical behavior for rotation
           may cause significant error
 Rotational temperatures (Kelvin)      0.06129     0.01706     0.01374
 Rotational constants (GHZ):           1.27715     0.35551     0.28621
 Zero-point vibrational energy     461692.1 (Joules/Mol)
                                  110.34706 (Kcal/Mol)
 Warning -- explicit consideration of  21 degrees of freedom as
           vibrations may cause significant error
 Vibrational temperatures:     66.73    81.79   123.96   152.08   162.33
          (Kelvin)            176.63   211.03   326.06   347.12   383.05
                              389.20   430.21   474.54   503.32   555.17
                              602.12   637.73   688.04   734.42   783.09
                              824.33   939.59   990.28  1054.93  1112.04
                             1114.90  1208.22  1267.07  1356.40  1447.35
                             1501.22  1593.05  1628.03  1651.70  1669.86
                             1707.10  1744.20  1811.61  1915.56  1933.70
                             1987.26  2055.26  2082.76  2087.67  2166.05
                             2180.48  2184.96  2186.91  2212.15  2213.53
                             2300.36  2445.89  2499.27  4404.57  4406.47
                             4457.31  4503.88  4512.34  4519.79  4549.30
                             4578.24  4996.46  5226.93

 Zero-point correction=                           0.175849 (Hartree/Particle)
 Thermal correction to Energy=                    0.189676
 Thermal correction to Enthalpy=                  0.190620
 Thermal correction to Gibbs Free Energy=         0.134420
 Sum of electronic and zero-point Energies=          -1328.994618
 Sum of electronic and thermal Energies=             -1328.980791
 Sum of electronic and thermal Enthalpies=           -1328.979847
 Sum of electronic and thermal Free Energies=        -1329.036047

                     E (Thermal)             CV                S
                      KCal/Mol        Cal/Mol-Kelvin    Cal/Mol-Kelvin
 Total                  119.024             49.534            118.284
 Electronic               0.000              0.000              0.000
 Translational            0.889              2.981             42.041
 Rotational               0.889              2.981             32.181
 Vibrational            117.246             43.573             44.062
 Vibration     1          0.595              1.979              4.966
 Vibration     2          0.596              1.975              4.564
 Vibration     3          0.601              1.959              3.746
 Vibration     4          0.605              1.945              3.346
 Vibration     5          0.607              1.939              3.220
 Vibration     6          0.610              1.930              3.056
 Vibration     7          0.617              1.906              2.715
 Vibration     8          0.650              1.800              1.906
 Vibration     9          0.658              1.777              1.794
 Vibration    10          0.672              1.735              1.621
 Vibration    11          0.674              1.728              1.593
 Vibration    12          0.692              1.676              1.422
 Vibration    13          0.713              1.616              1.261
 Vibration    14          0.727              1.576              1.167
 Vibration    15          0.755              1.500              1.016
 Vibration    16          0.781              1.430              0.897
 Vibration    17          0.803              1.376              0.816
 Vibration    18          0.835              1.298              0.715
 Vibration    19          0.866              1.227              0.633
 Vibration    20          0.899              1.152              0.556
 Vibration    21          0.929              1.090              0.499

                           ! Non-Optimized Parameters !
 Normal termination of Gaussian 16 at Wed Dec  9 23:28:35 2020.

 ----------------------------------------------------------------------
 # B3LYP/6-311++G(d,p) empiricaldispersion=gd3bj scf=xqc pop=npa geom=c
 heck
 ----------------------------------------------------------------------

 -------------------------------------
 CID_3241046_JID_3485_Energie_neutraal
 -------------------------------------
 Structure from the checkpoint file:  "JID_3485.chk"
 Charge =  0 Multiplicity = 1

 SCF Done:  E(RB3LYP) =  -1329.37895142     A.U. after   17 cycles
 Normal termination of Gaussian 16 at Wed Dec  9 23:30:41 2020.

 ----------------------------------------------------------------------
 # B3LYP/6-311++G(d,p) empiricaldispersion=gd3bj scf=xqc pop=npa geom=c
 heck
 ----------------------------------------------------------------------

 -----------------------------------
 CID_3241046_JID_3485_Energie_kation
 -----------------------------------
 Structure from the checkpoint file:  "JID_3485.chk"
 Charge =  1 Multiplicity = 2

 SCF Done:  E(UB3LYP) =  -1329.10271046     A.U. after   25 cycles
 Normal termination of Gaussian 16 at Wed Dec  9 23:34:46 2020.
 Gaussian 16:  ES64L-G16RevA.03 25-Dec-2016

 ----------------------------------------------------------------------
 # B3LYP/6-311++G(d,p) empiricaldispersion=gd3bj scf=xqc pop=npa geom=c
 heck
 ----------------------------------------------------------------------

 ----------------------------------
 CID_3241046_JID_3485_Energie_anion
 ----------------------------------
 Structure from the checkpoint file:  "JID_3485.chk"
 Charge = -1 Multiplicity = 2

                         Standard orientation:
 ---------------------------------------------------------------------
 Center     Atomic      Atomic             Coordinates (Angstroms)
 Number     Number       Type             X           Y           Z
 ---------------------------------------------------------------------
      1          6           0       -4.522269   -0.566576    0.910553
      2          6           0       -3.867080   -0.725788   -0.451571
      3          8           0       -2.427951   -0.812979   -0.331060
      4          6           0       -1.758232    0.353943   -0.226851
      5          8           0       -2.300188    1.459365   -0.257470
      6          6           0       -0.337259    0.156398   -0.084971
      7          6           0        0.573043    1.186477   -0.007802
      8          7           0        1.883861    0.752693    0.059704
      9          6           0        2.064233   -0.625318    0.017832
     10         16           0        3.514590   -1.428916    0.056429
     11         16           0        0.491708   -1.399516   -0.067496
     12          6           0        2.999109    1.682101    0.192633
     13          7           0        0.276904    2.518026    0.067172
     14          1           0       -4.229691   -1.383103    1.578216
     15          1           0       -5.612710   -0.581126    0.803005
     16          1           0       -4.232961    0.384929    1.364472
     17          1           0       -4.151087   -1.665530   -0.929898
     18          1           0       -4.113874    0.108382   -1.112308
     19          1           0        3.245494    2.135939   -0.773978
     20          1           0        2.732059    2.457369    0.914976
     21          1           0        3.862555    1.117950    0.544415
     22          1           0        0.906204    3.160198   -0.397091
     23          1           0       -0.716279    2.686364   -0.093560
 ---------------------------------------------------------------------

 SCF Done:  E(UB3LYP) =  -1329.38575251     A.U. after   33 cycles
 SCF Done:  E(UB3LYP) =  -1329.38575251     a.u. after    1 cycles

 The electronic state is 2-A.
 Alpha  occ. eigenvalues --  -88.72769 -88.64789 -19.03437 -18.96124 -14.25133
 Alpha  occ. eigenvalues --  -14.21116 -10.15024 -10.12381 -10.12054 -10.10574
 Alpha  occ. eigenvalues --  -10.09949 -10.06604 -10.05138  -7.81388  -7.73541
 Alpha  occ. eigenvalues --   -5.77739  -5.77362  -5.76877  -5.69923  -5.69390
 Alpha  occ. eigenvalues --   -5.69133  -0.97150  -0.88578  -0.87627  -0.79554
 Alpha  occ. eigenvalues --   -0.70259  -0.66599  -0.63501  -0.59958  -0.55976
 Alpha  occ. eigenvalues --   -0.53746  -0.49612  -0.45875  -0.42023  -0.41705
 Alpha  occ. eigenvalues --   -0.38599  -0.37116  -0.36285  -0.35451  -0.34280
 Alpha  occ. eigenvalues --   -0.32849  -0.30912  -0.30158  -0.29379  -0.28533
 Alpha  occ. eigenvalues --   -0.26914  -0.26072  -0.23572  -0.22772  -0.21994
 Alpha  occ. eigenvalues --   -0.21252  -0.18134  -0.15298  -0.15078  -0.12759
 Alpha  occ. eigenvalues --   -0.07631  -0.06230   0.04504
 Alpha virt. eigenvalues --    0.06895   0.06932   0.09522   0.09878   0.10328
 Alpha virt. eigenvalues --    0.10987   0.11272   0.11891   0.13052   0.13373
 Alpha virt. eigenvalues --    0.13727   0.14642   0.14998   0.15332   0.15982

  Beta  occ. eigenvalues --  -88.72736 -88.64740 -19.03393 -18.95896 -14.25258
  Beta  occ. eigenvalues --  -14.21061 -10.14784 -10.12135 -10.12055 -10.09949
  Beta  occ. eigenvalues --  -10.09940 -10.06586 -10.05127  -7.81358  -7.73498
  Beta  occ. eigenvalues --   -5.77732  -5.77355  -5.76752  -5.69918  -5.69216
  Beta  occ. eigenvalues --   -5.69103  -0.96931  -0.88352  -0.87311  -0.79386
  Beta  occ. eigenvalues --   -0.70108  -0.66500  -0.62876  -0.59817  -0.55726
  Beta  occ. eigenvalues --   -0.53587  -0.49315  -0.45694  -0.41833  -0.41608
  Beta  occ. eigenvalues --   -0.38325  -0.37041  -0.36031  -0.35225  -0.33985
  Beta  occ. eigenvalues --   -0.32666  -0.30749  -0.29939  -0.29144  -0.28161
  Beta  occ. eigenvalues --   -0.26671  -0.25448  -0.23342  -0.22348  -0.21411
  Beta  occ. eigenvalues --   -0.20430  -0.17403  -0.14977  -0.14855  -0.11660
  Beta  occ. eigenvalues --   -0.07517  -0.05232
  Beta virt. eigenvalues --    0.06911   0.07151   0.09387   0.09871   0.10279
  Beta virt. eigenvalues --    0.10438   0.10974   0.11410   0.13015   0.13275
  Beta virt. eigenvalues --    0.13566   0.13763   0.14735   0.15010   0.15253

 Mulliken charges and spin densities:
               1          2
     1  C   -0.041413  -0.282092
     2  C   -0.283755   0.095987
     3  O   -0.049820   0.008139
     4  C   -0.936856   0.316073
     5  O   -0.376435   0.071328
     6  C    1.806200  -0.331243
     7  C   -0.886864   0.218515
     8  N    0.282954  -0.049914
     9  C    0.252735   0.246264
    10  S   -0.901851   0.142891
    11  S   -0.171966   0.081142
    12  C   -0.367219  -0.122080
    13  N   -0.431737   0.032254
    14  H    0.084022   0.050112
    15  H   -0.028977   0.140841
    16  H    0.094892   0.076860
    17  H    0.100752   0.042890
    18  H    0.154380   0.009677
    19  H    0.100654   0.084456
    20  H    0.149552  -0.001506
    21  H    0.084950   0.006227
    22  H    0.064680   0.166479
    23  H    0.301122  -0.003299
 Sum of Mulliken charges =  -1.00000   1.00000

 Dipole moment (field-independent basis, Debye):
    X=             -3.7945    Y=              3.6523    Z=             -0.4267  Tot=              5.2839
 Quadrupole moment (field-independent basis, Debye-Ang):
   XX=           -144.4870   YY=           -113.5071   ZZ=           -102.4915
   XY=             20.4902   XZ=              1.6228   YZ=              0.3428

 Summary of Natural Population Analysis:

                                       Natural Population
                Natural  -----------------------------------------------
    Atom  No    Charge         Core      Valence    Rydberg      Total
 -----------------------------------------------------------------------
      C    1   -0.29911      0.99966     2.29513    0.00431     3.29911
      C    2   -0.01600      0.99959     2.00521    0.01120     3.01600
      O    3   -0.28120      0.99986     3.27339    0.00795     4.28120
      C    4    0.41099      0.99956     1.56565    0.02380     2.58901
      O    5   -0.33496      0.99987     3.33002    0.00506     4.33496
      C    6   -0.20600      0.99937     2.19526    0.01138     3.20600
      C    7    0.24728      0.99946     1.74123    0.01203     2.75272
      N    8   -0.25247      0.99956     2.74263    0.01028     3.75247
      C    9    0.04442      0.99969     1.93907    0.01681     2.95558
      S   10   -0.11647      4.99952     3.10061    0.01634     8.11647
      S   11    0.20736      4.99941     2.77148    0.02176     7.79264
      C   12   -0.18406      0.99965     2.17728    0.00713     3.18406
      N   13   -0.39972      0.99969     2.89114    0.00889     3.89972
      H   14    0.09815      0.00000     0.40042    0.00143     0.40185
      H   15    0.09401      0.00000     0.40449    0.00149     0.40599
      H   16    0.10798      0.00000     0.39059    0.00143     0.39202
      H   17    0.08407      0.00000     0.41447    0.00145     0.41593
      H   18    0.09291      0.00000     0.40537    0.00172     0.40709
      H   19    0.09062      0.00000     0.40753    0.00185     0.40938
      H   20    0.09608      0.00000     0.40257    0.00135     0.40392
      H   21    0.11940      0.00000     0.37865    0.00195     0.38060
      H   22    0.18509      0.00000     0.31261    0.00230     0.31491
      H   23    0.21162      0.00000     0.28634    0.00204     0.28838
 =======================================================================
   * Total *    0.00000     20.99489    35.83114    0.17396    57.00000

 Normal termination of Gaussian 16 at Wed Dec  9 23:40:10 2020.
