 Gaussian 16, Revision A.03,

 -----------------------------------------------------------
 # opt freq B3LYP/6-31G(d) empiricaldispersion=gd3bj scf=xqc
 -----------------------------------------------------------

 ------------------------------
 CID_79757995_JID_4606_neutraal
 ------------------------------
 Symbolic Z-matrix:
 Charge =  0 Multiplicity = 1

 SCF Done:  E(RB3LYP) =  -672.974301751     A.U. after   14 cycles
 SCF Done:  E(RB3LYP) =  -672.977573684     A.U. after   12 cycles
 SCF Done:  E(RB3LYP) =  -672.977570251     A.U. after   12 cycles
 SCF Done:  E(RB3LYP) =  -672.978156499     A.U. after   11 cycles
 SCF Done:  E(RB3LYP) =  -672.978325669     A.U. after   11 cycles
 SCF Done:  E(RB3LYP) =  -672.978391338     A.U. after   10 cycles
 SCF Done:  E(RB3LYP) =  -672.978428226     A.U. after   10 cycles
 SCF Done:  E(RB3LYP) =  -672.978473411     A.U. after   10 cycles
 SCF Done:  E(RB3LYP) =  -672.978543570     A.U. after   11 cycles
 SCF Done:  E(RB3LYP) =  -672.978557933     A.U. after   10 cycles
 SCF Done:  E(RB3LYP) =  -672.978577357     A.U. after    9 cycles
 SCF Done:  E(RB3LYP) =  -672.978579697     A.U. after    9 cycles
 SCF Done:  E(RB3LYP) =  -672.978582522     A.U. after    9 cycles
 SCF Done:  E(RB3LYP) =  -672.978584249     A.U. after   10 cycles
 SCF Done:  E(RB3LYP) =  -672.978584828     A.U. after    8 cycles
 SCF Done:  E(RB3LYP) =  -672.978584883     A.U. after    7 cycles
 Optimization completed.
    -- Stationary point found.
 Normal termination of Gaussian 16 at Thu Dec 10 10:21:25 2020.

 --------------------------------------------------------------------
 #N Geom=AllCheck Guess=TCheck SCRF=Check GenChk RB3LYP/6-31G(d) Freq
 --------------------------------------------------------------------

 Structure from the checkpoint file:  "JID_4606.chk"
 ------------------------------
 CID_79757995_JID_4606_neutraal
 ------------------------------
 Charge =  0 Multiplicity = 1

 SCF Done:  E(RB3LYP) =  -672.978584883     A.U. after    1 cycles

  Exact polarizability: 140.530   7.478 111.131   2.144  -0.919 104.213
 Approx polarizability: 176.931  10.344 162.014  -0.424 -10.173 155.770

                      1                      2                      3
                      A                      A                      A
 Frequencies --     24.8813                45.7019                56.0628
 Red. masses --      4.1185                 3.5649                 5.8445
 Frc consts  --      0.0015                 0.0044                 0.0108
 IR Inten    --      1.8577                 0.8107                 0.4800

                      4                      5                      6
                      A                      A                      A
 Frequencies --     67.0167                76.3706                92.2478
 Red. masses --      3.1094                 3.1907                 3.5362
 Frc consts  --      0.0082                 0.0110                 0.0177
 IR Inten    --      1.3464                 0.9287                 2.2154

                      7                      8                      9
                      A                      A                      A
 Frequencies --    136.5720               161.8414               188.4060
 Red. masses --      2.4143                 4.0899                 1.7112
 Frc consts  --      0.0265                 0.0631                 0.0358
 IR Inten    --      0.6062                 1.4332                 3.3156

                     10                     11                     12
                      A                      A                      A
 Frequencies --    227.0647               245.2085               265.0294
 Red. masses --      2.3287                 1.0681                 2.7977
 Frc consts  --      0.0707                 0.0378                 0.1158
 IR Inten    --      1.0816                 0.3043                 0.4792

                     13                     14                     15
                      A                      A                      A
 Frequencies --    283.5006               293.1223               343.5720
 Red. masses --      1.7704                 2.7911                 1.1775
 Frc consts  --      0.0838                 0.1413                 0.0819
 IR Inten    --     14.1409                 6.4615                98.3893

                     16                     17                     18
                      A                      A                      A
 Frequencies --    359.2948               389.1584               403.6611
 Red. masses --      4.0203                 2.7845                 2.8036
 Frc consts  --      0.3058                 0.2485                 0.2691
 IR Inten    --     10.8403                 8.2219                23.4150

                     19                     20                     21
                      A                      A                      A
 Frequencies --    424.7120               497.6214               588.3457
 Red. masses --      3.6013                 4.3158                 3.0301
 Frc consts  --      0.3827                 0.6297                 0.6180
 IR Inten    --      0.8989                 2.5523                18.6685

                     22                     23                     24
                      A                      A                      A
 Frequencies --    617.6216               650.0608               683.3157
 Red. masses --      2.6517                 1.7446                 2.8502
 Frc consts  --      0.5960                 0.4344                 0.7841
 IR Inten    --     13.4702                23.6738                19.3954

                     25                     26                     27
                      A                      A                      A
 Frequencies --    700.8908               742.2915               792.8075
 Red. masses --      1.8394                 2.8907                 1.6746
 Frc consts  --      0.5324                 0.9384                 0.6201
 IR Inten    --     59.1247                20.7595                 4.4057

                     28                     29                     30
                      A                      A                      A
 Frequencies --    812.5513               857.9116               870.8985
 Red. masses --      3.4520                 1.8751                 2.2953
 Frc consts  --      1.3428                 0.8131                 1.0257
 IR Inten    --      3.3404                 3.6371                13.5449

                     31                     32                     33
                      A                      A                      A
 Frequencies --    884.5005               922.0223               947.3997
 Red. masses --      1.9119                 2.1529                 2.0776
 Frc consts  --      0.8813                 1.0783                 1.0987
 IR Inten    --     20.3316                 5.8867                 6.0890

                     34                     35                     36
                      A                      A                      A
 Frequencies --    964.3584               993.1927              1023.7549
 Red. masses --      1.6631                 2.1141                 2.0231
 Frc consts  --      0.9112                 1.2287                 1.2493
 IR Inten    --     12.3594                 0.0696                10.5648

                     37                     38                     39
                      A                      A                      A
 Frequencies --   1038.5977              1046.4287              1072.6105
 Red. masses --      2.3800                 1.3757                 2.5424
 Frc consts  --      1.5126                 0.8876                 1.7234
 IR Inten    --     14.3197                 0.7737                52.1458

                     40                     41                     42
                      A                      A                      A
 Frequencies --   1075.4655              1109.2007              1124.1115
 Red. masses --      2.4783                 1.4683                 3.3256
 Frc consts  --      1.6889                 1.0643                 2.4759
 IR Inten    --     15.6280                79.5929                90.2262

                     43                     44                     45
                      A                      A                      A
 Frequencies --   1138.8458              1152.6870              1165.2417
 Red. masses --      2.1154                 2.6631                 2.5700
 Frc consts  --      1.6165                 2.0848                 2.0560
 IR Inten    --      5.0171                18.1185                26.2789

                     46                     47                     48
                      A                      A                      A
 Frequencies --   1178.6882              1207.3102              1244.4803
 Red. masses --      3.1272                 1.2997                 1.3073
 Frc consts  --      2.5598                 1.1162                 1.1929
 IR Inten    --     10.8045                 2.9461                20.2924

                     49                     50                     51
                      A                      A                      A
 Frequencies --   1247.2394              1285.0606              1290.6555
 Red. masses --      1.3338                 1.4485                 1.2944
 Frc consts  --      1.2225                 1.4094                 1.2704
 IR Inten    --     15.1698                45.4780                 1.8735

                     52                     53                     54
                      A                      A                      A
 Frequencies --   1314.5845              1320.2584              1332.9307
 Red. masses --      1.3267                 1.3364                 1.4906
 Frc consts  --      1.3508                 1.3725                 1.5604
 IR Inten    --      1.0689                 5.1815                75.2574

                     55                     56                     57
                      A                      A                      A
 Frequencies --   1359.6419              1366.2479              1398.1740
 Red. masses --      1.4162                 1.3400                 1.3745
 Frc consts  --      1.5425                 1.4737                 1.5831
 IR Inten    --     36.3221                 7.8343                 7.7492

                     58                     59                     60
                      A                      A                      A
 Frequencies --   1401.1010              1405.1299              1410.5557
 Red. masses --      1.3057                 1.3271                 1.3577
 Frc consts  --      1.5102                 1.5438                 1.5916
 IR Inten    --     11.6941                 2.2638                 5.0510

                     61                     62                     63
                      A                      A                      A
 Frequencies --   1431.6859              1436.2275              1444.6625
 Red. masses --      1.3154                 1.5162                 1.4237
 Frc consts  --      1.5886                 1.8427                 1.7506
 IR Inten    --     69.4766                28.3677                33.5363

                     64                     65                     66
                      A                      A                      A
 Frequencies --   1446.3068              1502.0146              1516.3758
 Red. masses --      1.2564                 1.8734                 1.0551
 Frc consts  --      1.5485                 2.4901                 1.4294
 IR Inten    --      5.3296               104.8732                 1.9725

                     67                     68                     69
                      A                      A                      A
 Frequencies --   1520.0542              1521.0929              1525.5292
 Red. masses --      1.0561                 1.0676                 1.0593
 Frc consts  --      1.4378                 1.4554                 1.4524
 IR Inten    --      1.9141                 2.1786                 2.8462

                     70                     71                     72
                      A                      A                      A
 Frequencies --   1531.2661              1536.1255              1540.4356
 Red. masses --      1.0822                 1.0743                 1.0661
 Frc consts  --      1.4951                 1.4935                 1.4906
 IR Inten    --      8.7612                 7.5824                 7.0992

                     73                     74                     75
                      A                      A                      A
 Frequencies --   1560.1076              1772.3480              3000.2757
 Red. masses --      1.0960                 8.3443                 1.0723
 Frc consts  --      1.5716                15.4432                 5.6869
 IR Inten    --      2.1377               357.7852                92.4177

                     76                     77                     78
                      A                      A                      A
 Frequencies --   3025.7679              3040.2743              3041.7098
 Red. masses --      1.0853                 1.0641                 1.0702
 Frc consts  --      5.8544                 5.7952                 5.8338
 IR Inten    --     51.6081                32.8567                 7.1359

                     79                     80                     81
                      A                      A                      A
 Frequencies --   3049.7909              3061.6175              3065.4978
 Red. masses --      1.0415                 1.0425                 1.0778
 Frc consts  --      5.7075                 5.7575                 5.9677
 IR Inten    --     53.3757                13.3436                25.4588

                     82                     83                     84
                      A                      A                      A
 Frequencies --   3086.9599              3087.0887              3096.4066
 Red. masses --      1.0826                 1.0859                 1.0681
 Frc consts  --      6.0785                 6.0971                 6.0333
 IR Inten    --     43.5348                28.1084                30.1574

                     85                     86                     87
                      A                      A                      A
 Frequencies --   3099.0090              3117.2422              3123.1058
 Red. masses --      1.0951                 1.1001                 1.0988
 Frc consts  --      6.1968                 6.2982                 6.3146
 IR Inten    --      0.3701                51.0645                50.5380

                     88                     89                     90
                      A                      A                      A
 Frequencies --   3126.3795              3130.3761              3144.6259
 Red. masses --      1.0998                 1.1007                 1.1049
 Frc consts  --      6.3338                 6.3548                 6.4375
 IR Inten    --     20.9386                20.0479                23.1879

                     91                     92                     93
                      A                      A                      A
 Frequencies --   3149.9513              3574.4267              3752.8256
 Red. masses --      1.1033                 1.0750                 1.0662
 Frc consts  --      6.4500                 8.0923                 8.8473
 IR Inten    --     15.0025                40.7022                15.3802

 - Thermochemistry -
 -------------------
 Temperature   298.150 Kelvin.  Pressure   1.00000 Atm.
 Atom     1 has atomic number  6 and mass  12.00000

 Molecular mass:   201.13649 amu.
 Principal axes and moments of inertia in atomic units:
                           1         2         3
     Eigenvalues --  1653.821824568.259595239.13241
           X            0.99970   0.02446  -0.00072
           Y           -0.02441   0.99895   0.03889
           Z            0.00167  -0.03886   0.99924
 This molecule is an asymmetric top.
 Rotational symmetry number  1.
 Warning -- assumption of classical behavior for rotation
           may cause significant error
 Rotational temperatures (Kelvin)      0.05237     0.01896     0.01653
 Rotational constants (GHZ):           1.09125     0.39506     0.34447
 Zero-point vibrational energy     767857.7 (Joules/Mol)
                                  183.52239 (Kcal/Mol)
 Warning -- explicit consideration of  22 degrees of freedom as
           vibrations may cause significant error
 Vibrational temperatures:     35.80    65.75    80.66    96.42   109.88
          (Kelvin)            132.72   196.50   232.85   271.07   326.70
                              352.80   381.32   407.89   421.74   494.32
                              516.95   559.91   580.78   611.07   715.97
                              846.50   888.62   935.29   983.14  1008.43
                             1067.99  1140.67  1169.08  1234.34  1253.03
                             1272.60  1326.58  1363.10  1387.50  1428.98
                             1472.95  1494.31  1505.58  1543.25  1547.35
                             1595.89  1617.35  1638.55  1658.46  1676.52
                             1695.87  1737.05  1790.53  1794.50  1848.92
                             1856.97  1891.39  1899.56  1917.79  1956.22
                             1965.73  2011.66  2015.87  2021.67  2029.48
                             2059.88  2066.41  2078.55  2080.91  2161.06
                             2181.73  2187.02  2188.51  2194.90  2203.15
                             2210.14  2216.34  2244.65  2550.01  4316.73
                             4353.41  4374.28  4376.34  4387.97  4404.98
                             4410.57  4441.45  4441.63  4455.04  4458.78
                             4485.02  4493.45  4498.16  4503.91  4524.42
                             4532.08  5142.80  5399.48

 Zero-point correction=                           0.292462 (Hartree/Particle)
 Thermal correction to Energy=                    0.308033
 Thermal correction to Enthalpy=                  0.308978
 Thermal correction to Gibbs Free Energy=         0.248229
 Sum of electronic and zero-point Energies=           -672.686123
 Sum of electronic and thermal Energies=              -672.670552
 Sum of electronic and thermal Enthalpies=            -672.669607
 Sum of electronic and thermal Free Energies=         -672.730356

                     E (Thermal)             CV                S
                      KCal/Mol        Cal/Mol-Kelvin    Cal/Mol-Kelvin
 Total                  193.294             57.002            127.857
 Electronic               0.000              0.000              0.000
 Translational            0.889              2.981             41.801
 Rotational               0.889              2.981             32.048
 Vibrational            191.516             51.040             54.007
 Vibration     1          0.593              1.985              6.201
 Vibration     2          0.595              1.979              4.995
 Vibration     3          0.596              1.975              4.591
 Vibration     4          0.598              1.970              4.239
 Vibration     5          0.599              1.965              3.982
 Vibration     6          0.602              1.955              3.612
 Vibration     7          0.614              1.917              2.851
 Vibration     8          0.622              1.889              2.528
 Vibration     9          0.633              1.856              2.243
 Vibration    10          0.651              1.800              1.902
 Vibration    11          0.660              1.771              1.765
 Vibration    12          0.671              1.737              1.628
 Vibration    13          0.682              1.704              1.512
 Vibration    14          0.688              1.687              1.456
 Vibration    15          0.722              1.588              1.196
 Vibration    16          0.734              1.556              1.125
 Vibration    17          0.757              1.493              1.003
 Vibration    18          0.769              1.462              0.949
 Vibration    19          0.787              1.416              0.876
 Vibration    20          0.853              1.255              0.664
 Vibration    21          0.946              1.057              0.470
 Vibration    22          0.977              0.995              0.420

                           ! Non-Optimized Parameters !
 Normal termination of Gaussian 16 at Thu Dec 10 10:32:25 2020.

 ----------------------------------------------------------------------
 # B3LYP/6-311++G(d,p) empiricaldispersion=gd3bj scf=xqc pop=npa geom=c
 heck
 ----------------------------------------------------------------------

 --------------------------------------
 CID_79757995_JID_4606_Energie_neutraal
 --------------------------------------
 Structure from the checkpoint file:  "JID_4606.chk"
 Charge =  0 Multiplicity = 1

 SCF Done:  E(RB3LYP) =  -673.186800710     A.U. after   16 cycles
 Normal termination of Gaussian 16 at Thu Dec 10 10:38:36 2020.

 ----------------------------------------------------------------------
 # B3LYP/6-311++G(d,p) empiricaldispersion=gd3bj scf=xqc pop=npa geom=c
 heck
 ----------------------------------------------------------------------

 ------------------------------------
 CID_79757995_JID_4606_Energie_kation
 ------------------------------------
 Structure from the checkpoint file:  "JID_4606.chk"
 Charge =  1 Multiplicity = 2

 SCF Done:  E(UB3LYP) =  -672.867796565     A.U. after   28 cycles
 Normal termination of Gaussian 16 at Thu Dec 10 10:53:40 2020.
 Gaussian 16:  ES64L-G16RevA.03 25-Dec-2016

 ----------------------------------------------------------------------
 # B3LYP/6-311++G(d,p) empiricaldispersion=gd3bj scf=xqc pop=npa geom=c
 heck
 ----------------------------------------------------------------------

 -----------------------------------
 CID_79757995_JID_4606_Energie_anion
 -----------------------------------
 Structure from the checkpoint file:  "JID_4606.chk"
 Charge = -1 Multiplicity = 2

                         Standard orientation:
 ---------------------------------------------------------------------
 Center     Atomic      Atomic             Coordinates (Angstroms)
 Number     Number       Type             X           Y           Z
 ---------------------------------------------------------------------
      1          6           0        2.709360    2.394952   -0.191965
      2          6           0        2.024591    1.217696    0.507841
      3          6           0        1.717601    0.023058   -0.417412
      4          6           0        2.983547   -0.625545   -0.998043
      5          8           0        3.783865   -1.225206    0.016981
      6          7           0        0.975531   -1.014741    0.285209
      7          6           0       -0.370585   -1.243664    0.370601
      8          8           0       -0.812064   -2.118681    1.108714
      9          6           0       -1.291416   -0.372659   -0.476085
     10          6           0       -2.652076   -1.023005   -0.744702
     11          6           0       -3.503637    0.190531   -1.108696
     12          8           0       -3.001337    1.277469   -0.327125
     13          6           0       -1.704825    0.966884    0.202006
     14          6           0       -1.785270    0.911849    1.724873
     15          1           0        3.711048    2.138894   -0.555513
     16          1           0        2.816915    3.243317    0.491550
     17          1           0        2.123074    2.735836   -1.053935
     18          1           0        2.634185    0.863105    1.350368
     19          1           0        1.080644    1.553104    0.948450
     20          1           0        1.116174    0.381126   -1.259579
     21          1           0        2.692194   -1.440757   -1.665462
     22          1           0        3.557300    0.105841   -1.583109
     23          1           0        4.235118   -0.516410    0.500139
     24          1           0        1.536755   -1.621015    0.874333
     25          1           0       -0.817130   -0.137810   -1.435230
     26          1           0       -2.611576   -1.773567   -1.539380
     27          1           0       -3.004524   -1.512248    0.166356
     28          1           0       -4.566443    0.061704   -0.877694
     29          1           0       -3.414438    0.431651   -2.179677
     30          1           0       -1.021947    1.772912   -0.099278
     31          1           0       -0.789825    0.820257    2.173355
     32          1           0       -2.251310    1.830462    2.093505
     33          1           0       -2.382385    0.057557    2.055285
 ---------------------------------------------------------------------

 SCF Done:  E(UB3LYP) =  -673.180401719     A.U. after   30 cycles

 The electronic state is 2-A.
 Alpha  occ. eigenvalues --  -19.02985 -19.02977 -18.99139 -14.23767 -10.17925
 Alpha  occ. eigenvalues --  -10.13550 -10.12713 -10.12106 -10.11864 -10.09493
 Alpha  occ. eigenvalues --  -10.08156 -10.07328 -10.06786 -10.05783  -0.94896
 Alpha  occ. eigenvalues --   -0.94219  -0.93128  -0.82864  -0.71151  -0.69146
 Alpha  occ. eigenvalues --   -0.67857  -0.62610  -0.59908  -0.55633  -0.53870
 Alpha  occ. eigenvalues --   -0.49834  -0.49491  -0.46786  -0.43046  -0.42107
 Alpha  occ. eigenvalues --   -0.40827  -0.37898  -0.37530  -0.36728  -0.36001
 Alpha  occ. eigenvalues --   -0.35225  -0.33107  -0.31901  -0.31676  -0.31346
 Alpha  occ. eigenvalues --   -0.30238  -0.29357  -0.29154  -0.27897  -0.27139
 Alpha  occ. eigenvalues --   -0.25634  -0.25282  -0.24720  -0.24059  -0.23832
 Alpha  occ. eigenvalues --   -0.22696  -0.19340  -0.16772  -0.16188  -0.15573
 Alpha  occ. eigenvalues --    0.04069
 Alpha virt. eigenvalues --    0.06121   0.07384   0.07841   0.08605   0.08859
 Alpha virt. eigenvalues --    0.09371   0.10122   0.10690   0.10831   0.11246
 Alpha virt. eigenvalues --    0.11703   0.12034   0.12620   0.13440   0.13863

  Beta  occ. eigenvalues --  -19.02975 -19.02937 -18.99134 -14.23766 -10.17920
  Beta  occ. eigenvalues --  -10.13537 -10.12700 -10.12073 -10.11852 -10.09480
  Beta  occ. eigenvalues --  -10.08150 -10.07304 -10.06781 -10.05714  -0.94887
  Beta  occ. eigenvalues --   -0.94207  -0.93026  -0.82849  -0.71127  -0.69096
  Beta  occ. eigenvalues --   -0.67837  -0.62524  -0.59885  -0.55531  -0.53839
  Beta  occ. eigenvalues --   -0.49796  -0.49391  -0.46752  -0.42979  -0.42071
  Beta  occ. eigenvalues --   -0.40792  -0.37845  -0.37472  -0.36692  -0.35968
  Beta  occ. eigenvalues --   -0.35186  -0.33086  -0.31868  -0.31630  -0.31329
  Beta  occ. eigenvalues --   -0.30202  -0.29334  -0.29119  -0.27856  -0.27091
  Beta  occ. eigenvalues --   -0.25573  -0.25257  -0.24678  -0.24006  -0.23785
  Beta  occ. eigenvalues --   -0.22679  -0.19287  -0.16756  -0.16174  -0.15556
  Beta virt. eigenvalues --    0.06429   0.07265   0.07768   0.08540   0.08775
  Beta virt. eigenvalues --    0.09346   0.09677   0.10285   0.10988   0.11267
  Beta virt. eigenvalues --    0.11509   0.11956   0.12399   0.12756   0.13601

 Mulliken charges and spin densities:
               1          2
     1  C    2.203441  -2.827889
     2  C   -1.920910   2.093584
     3  C   -0.671881   0.090282
     4  C    1.920768  -2.394705
     5  O   -0.251186   0.021097
     6  N   -0.062220   0.094020
     7  C   -0.471271   0.157760
     8  O   -0.301506  -0.006044
     9  C    0.311079   0.322833
    10  C   -0.469606   0.061447
    11  C    0.249032  -0.432362
    12  O   -0.111428   0.036292
    13  C    0.030086  -0.696326
    14  C   -0.318992  -0.076246
    15  H   -0.436234   0.584761
    16  H   -0.463131   0.613064
    17  H   -0.574410   0.726214
    18  H   -0.240955   0.402778
    19  H    0.241463  -0.129381
    20  H    0.138508   0.003114
    21  H   -0.046961   0.237013
    22  H   -0.328596   0.504347
    23  H   -0.135957   0.403842
    24  H    0.300369   0.018705
    25  H   -0.209470   0.421793
    26  H    0.028759   0.131983
    27  H    0.177688   0.004375
    28  H    0.126269   0.035787
    29  H   -0.167676   0.302411
    30  H    0.136914   0.127872
    31  H    0.029130   0.123984
    32  H    0.115743   0.048899
    33  H    0.173141  -0.005306
 Sum of Mulliken charges =  -1.00000   1.00000

 Dipole moment (field-independent basis, Debye):
    X=             -7.1869    Y=             -2.8745    Z=              1.2891  Tot=              7.8470
 Quadrupole moment (field-independent basis, Debye-Ang):
   XX=           -164.5005   YY=           -137.1301   ZZ=           -119.8551
   XY=             -7.7612   XZ=              0.5008   YZ=              7.0535

 Summary of Natural Population Analysis:

                                       Natural Population
                Natural  -----------------------------------------------
    Atom  No    Charge         Core      Valence    Rydberg      Total
 -----------------------------------------------------------------------
      C    1   -0.28899      0.99966     2.28368    0.00564     3.28899
      C    2   -0.19635      0.99961     2.18715    0.00959     3.19635
      C    3   -0.02592      0.99957     2.01365    0.01269     3.02592
      C    4   -0.01035      0.99957     1.99752    0.01326     3.01035
      O    5   -0.37407      0.99990     3.36740    0.00676     4.37407
      N    6   -0.31656      0.99965     2.80702    0.00989     3.81656
      C    7    0.34741      0.99964     1.62888    0.02407     2.65259
      O    8   -0.32977      0.99988     3.32472    0.00516     4.32977
      C    9   -0.16193      0.99953     2.15143    0.01096     3.16193
      C   10   -0.20359      0.99963     2.19424    0.00973     3.20359
      C   11   -0.00843      0.99959     1.99669    0.01214     3.00843
      O   12   -0.30600      0.99989     3.29746    0.00866     4.30600
      C   13    0.07066      0.99957     1.91463    0.01514     2.92934
      C   14   -0.29880      0.99964     2.29387    0.00530     3.29880
      H   15    0.10120      0.00000     0.39544    0.00336     0.39880
      H   16    0.10349      0.00000     0.39506    0.00145     0.39651
      H   17    0.09923      0.00000     0.39885    0.00192     0.40077
      H   18    0.09587      0.00000     0.40243    0.00170     0.40413
      H   19    0.09876      0.00000     0.39944    0.00180     0.40124
      H   20    0.10204      0.00000     0.39535    0.00261     0.39796
      H   21    0.08849      0.00000     0.41021    0.00130     0.41151
      H   22    0.08821      0.00000     0.41002    0.00177     0.41179
      H   23    0.23518      0.00000     0.25932    0.00550     0.26482
      H   24    0.20095      0.00000     0.29673    0.00232     0.29905
      H   25    0.11014      0.00000     0.38788    0.00198     0.38986
      H   26    0.10527      0.00000     0.39389    0.00085     0.39473
      H   27    0.10911      0.00000     0.38972    0.00117     0.39089
      H   28    0.08544      0.00000     0.41360    0.00096     0.41456
      H   29    0.07986      0.00000     0.41877    0.00137     0.42014
      H   30    0.09092      0.00000     0.40712    0.00197     0.40908
      H   31    0.10214      0.00000     0.39697    0.00088     0.39786
      H   32    0.10311      0.00000     0.39596    0.00093     0.39689
      H   33    0.10329      0.00000     0.39579    0.00093     0.39671
 =======================================================================
   * Total *   -0.00000     13.99533    40.82089    0.18378    55.00000

 Normal termination of Gaussian 16 at Thu Dec 10 11:09:38 2020.
