 Gaussian 16, Revision A.03,

 -----------------------------------------------------------
 # opt freq B3LYP/6-31G(d) empiricaldispersion=gd3bj scf=xqc
 -----------------------------------------------------------

 ------------------------------
 CID_81503504_JID_7269_neutraal
 ------------------------------
 Symbolic Z-matrix:
 Charge =  0 Multiplicity = 1

 SCF Done:  E(RB3LYP) =  -769.812776559     A.U. after   14 cycles
 SCF Done:  E(RB3LYP) =  -769.815116841     A.U. after   13 cycles
 SCF Done:  E(RB3LYP) =  -769.810871589     A.U. after   12 cycles
 SCF Done:  E(RB3LYP) =  -769.818809126     A.U. after   12 cycles
 SCF Done:  E(RB3LYP) =  -769.819500649     A.U. after   12 cycles
 SCF Done:  E(RB3LYP) =  -769.820830089     A.U. after   12 cycles
 SCF Done:  E(RB3LYP) =  -769.821044804     A.U. after   12 cycles
 SCF Done:  E(RB3LYP) =  -769.821925624     A.U. after   11 cycles
 SCF Done:  E(RB3LYP) =  -769.821956112     A.U. after   11 cycles
 SCF Done:  E(RB3LYP) =  -769.822174259     A.U. after   11 cycles
 SCF Done:  E(RB3LYP) =  -769.822816354     A.U. after    8 cycles
 SCF Done:  E(RB3LYP) =  -769.822817561     A.U. after    8 cycles
 SCF Done:  E(RB3LYP) =  -769.822817637     A.U. after    8 cycles
 SCF Done:  E(RB3LYP) =  -769.822817740     A.U. after    7 cycles
 SCF Done:  E(RB3LYP) =  -769.822817771     A.U. after    6 cycles
 Optimization completed.
    -- Stationary point found.
 Normal termination of Gaussian 16 at Fri Dec 11 12:54:33 2020.

 --------------------------------------------------------------------
 #N Geom=AllCheck Guess=TCheck SCRF=Check GenChk RB3LYP/6-31G(d) Freq
 --------------------------------------------------------------------

 Structure from the checkpoint file:  "JID_7269.chk"
 ------------------------------
 CID_81503504_JID_7269_neutraal
 ------------------------------
 Charge =  0 Multiplicity = 1

 SCF Done:  E(RB3LYP) =  -769.822817771     A.U. after    1 cycles

  Exact polarizability: 169.691   0.913 140.442  -3.297   0.804 139.733
 Approx polarizability: 222.876   3.329 201.001  -8.117  -1.008 214.260

                      1                      2                      3
                      A                      A                      A
 Frequencies --     24.2618                42.0616                49.9413
 Red. masses --      4.2849                 3.7906                 3.8608
 Frc consts  --      0.0015                 0.0040                 0.0057
 IR Inten    --      0.2217                 0.1224                 0.4392

                      4                      5                      6
                      A                      A                      A
 Frequencies --     65.1488               107.8006               125.2726
 Red. masses --      5.5839                 3.8110                 3.0901
 Frc consts  --      0.0140                 0.0261                 0.0286
 IR Inten    --      1.5621                 1.9378                 0.4672

                      7                      8                      9
                      A                      A                      A
 Frequencies --    135.5971               178.6970               217.8785
 Red. masses --      3.8692                 3.5943                 4.0993
 Frc consts  --      0.0419                 0.0676                 0.1147
 IR Inten    --      0.8268                 1.8883                 1.7873

                     10                     11                     12
                      A                      A                      A
 Frequencies --    230.7101               236.7587               250.3857
 Red. masses --      2.3111                 2.5591                 1.2634
 Frc consts  --      0.0725                 0.0845                 0.0467
 IR Inten    --      0.3188                 4.9580                 2.2961

                     13                     14                     15
                      A                      A                      A
 Frequencies --    263.3510               266.8544               304.9314
 Red. masses --      1.8427                 1.3693                 2.4406
 Frc consts  --      0.0753                 0.0575                 0.1337
 IR Inten    --     29.5808                80.3503                 4.3781

                     16                     17                     18
                      A                      A                      A
 Frequencies --    323.9660               333.0450               346.8113
 Red. masses --      2.0186                 1.9379                 1.6511
 Frc consts  --      0.1248                 0.1266                 0.1170
 IR Inten    --     10.2809                 6.6799                15.1804

                     19                     20                     21
                      A                      A                      A
 Frequencies --    353.4359               381.0075               385.5855
 Red. masses --      2.1863                 2.5394                 2.2035
 Frc consts  --      0.1609                 0.2172                 0.1930
 IR Inten    --      8.2223                11.3939                 2.0902

                     22                     23                     24
                      A                      A                      A
 Frequencies --    403.0689               435.7947               459.6867
 Red. masses --      2.9534                 2.3464                 3.4200
 Frc consts  --      0.2827                 0.2626                 0.4258
 IR Inten    --      1.6561                 8.0189                 7.1567

                     25                     26                     27
                      A                      A                      A
 Frequencies --    493.6286               526.4565               567.1728
 Red. masses --      2.5147                 3.2133                 3.1934
 Frc consts  --      0.3610                 0.5247                 0.6052
 IR Inten    --      4.5389                 6.9096                13.6111

                     28                     29                     30
                      A                      A                      A
 Frequencies --    588.3808               626.5622               697.5968
 Red. masses --      3.6341                 2.2296                 1.4301
 Frc consts  --      0.7412                 0.5157                 0.4100
 IR Inten    --     11.8838                15.5939                60.8840

                     31                     32                     33
                      A                      A                      A
 Frequencies --    700.2412               736.8475               777.2543
 Red. masses --      3.6011                 3.0974                 2.6933
 Frc consts  --      1.0404                 0.9908                 0.9587
 IR Inten    --     10.5539                 2.0625                18.5312

                     34                     35                     36
                      A                      A                      A
 Frequencies --    786.4438               794.3831               853.4981
 Red. masses --      2.4981                 1.1929                 2.1119
 Frc consts  --      0.9103                 0.4435                 0.9064
 IR Inten    --     16.1639                12.4970                 2.5973

                     37                     38                     39
                      A                      A                      A
 Frequencies --    862.5305               878.0054               891.8464
 Red. masses --      2.2072                 1.6620                 2.0698
 Frc consts  --      0.9675                 0.7549                 0.9700
 IR Inten    --      1.7450                 2.0696                 5.2739

                     40                     41                     42
                      A                      A                      A
 Frequencies --    908.8504               922.2368               950.4608
 Red. masses --      1.9441                 1.5473                 1.5403
 Frc consts  --      0.9461                 0.7754                 0.8198
 IR Inten    --     76.6612                 4.1767                25.1334

                     43                     44                     45
                      A                      A                      A
 Frequencies --    970.8760               982.0521               984.3120
 Red. masses --      1.6988                 1.6608                 2.0138
 Frc consts  --      0.9434                 0.9437                 1.1495
 IR Inten    --     37.0698                79.5482                 5.9076

                     46                     47                     48
                      A                      A                      A
 Frequencies --    991.4383              1021.3883              1034.5917
 Red. masses --      2.2374                 1.7668                 1.7800
 Frc consts  --      1.2958                 1.0860                 1.1225
 IR Inten    --     15.2223                 5.2084                 3.8795

                     49                     50                     51
                      A                      A                      A
 Frequencies --   1040.7865              1055.6509              1071.0957
 Red. masses --      1.5749                 1.6537                 1.8119
 Frc consts  --      1.0051                 1.0858                 1.2247
 IR Inten    --     32.8373                20.5375                 2.1043

                     52                     53                     54
                      A                      A                      A
 Frequencies --   1077.9688              1078.5467              1089.5484
 Red. masses --      1.5773                 5.0408                 1.4618
 Frc consts  --      1.0799                 3.4548                 1.0224
 IR Inten    --      1.8568                74.9151                 5.1812

                     55                     56                     57
                      A                      A                      A
 Frequencies --   1093.0446              1134.0915              1145.3274
 Red. masses --      1.9503                 1.3217                 2.7169
 Frc consts  --      1.3729                 1.0016                 2.0998
 IR Inten    --      2.7273                 6.5189                 9.8155

                     58                     59                     60
                      A                      A                      A
 Frequencies --   1154.7322              1170.4092              1196.4417
 Red. masses --      3.1051                 1.1017                 1.3832
 Frc consts  --      2.4394                 0.8891                 1.1666
 IR Inten    --      8.9485                 0.1476                 7.3861

                     61                     62                     63
                      A                      A                      A
 Frequencies --   1200.0580              1234.9496              1242.9220
 Red. masses --      2.1807                 1.5344                 1.2806
 Frc consts  --      1.8504                 1.3787                 1.1656
 IR Inten    --     18.4079                 5.1398                68.4441

                     64                     65                     66
                      A                      A                      A
 Frequencies --   1254.7623              1287.8594              1303.0715
 Red. masses --      1.2034                 1.4612                 1.2253
 Frc consts  --      1.1163                 1.4279                 1.2258
 IR Inten    --      7.1802                54.3064                 0.3102

                     67                     68                     69
                      A                      A                      A
 Frequencies --   1305.5850              1317.6137              1345.8117
 Red. masses --      1.5327                 1.3152                 1.7639
 Frc consts  --      1.5393                 1.3453                 1.8823
 IR Inten    --     46.4420                 1.3116                10.6147

                     70                     71                     72
                      A                      A                      A
 Frequencies --   1361.7860              1369.7858              1382.8928
 Red. masses --      1.3921                 1.8020                 2.1525
 Frc consts  --      1.5211                 1.9921                 2.4254
 IR Inten    --      5.3926                 8.8037                13.1714

                     73                     74                     75
                      A                      A                      A
 Frequencies --   1387.3740              1390.1885              1403.7255
 Red. masses --      1.7741                 1.5283                 1.5298
 Frc consts  --      2.0120                 1.7402                 1.7761
 IR Inten    --     50.4451                18.4933                11.8278

                     76                     77                     78
                      A                      A                      A
 Frequencies --   1409.9470              1416.3436              1423.5499
 Red. masses --      1.4216                 1.5265                 1.6543
 Frc consts  --      1.6651                 1.8042                 1.9752
 IR Inten    --      0.9595                 0.4098                48.6733

                     79                     80                     81
                      A                      A                      A
 Frequencies --   1445.0147              1480.3416              1488.7231
 Red. masses --      1.2556                 1.5395                 1.1503
 Frc consts  --      1.5447                 1.9877                 1.5020
 IR Inten    --      5.4464                15.1255                13.0843

                     82                     83                     84
                      A                      A                      A
 Frequencies --   1509.9148              1511.2746              1512.5139
 Red. masses --      1.3335                 1.1473                 1.1416
 Frc consts  --      1.7913                 1.5439                 1.5387
 IR Inten    --      8.0447                17.9318                 8.0178

                     85                     86                     87
                      A                      A                      A
 Frequencies --   1525.0325              1532.5323              1533.1744
 Red. masses --      1.1011                 1.0784                 1.1398
 Frc consts  --      1.5088                 1.4923                 1.5786
 IR Inten    --      3.2535                12.7835                 1.7466

                     88                     89                     90
                      A                      A                      A
 Frequencies --   1538.4196              1540.2038              1550.0094
 Red. masses --      1.1005                 1.2222                 1.1219
 Frc consts  --      1.5346                 1.7082                 1.5880
 IR Inten    --      2.1907                 0.5128                 3.2495

                     91                     92                     93
                      A                      A                      A
 Frequencies --   1552.4300              1695.3120              1728.5268
 Red. masses --      1.1032                 1.0922                 6.1224
 Frc consts  --      1.5664                 1.8495                10.7776
 IR Inten    --     24.6353                32.4185               262.2561

                     94                     95                     96
                      A                      A                      A
 Frequencies --   2979.5698              3015.5700              3019.3897
 Red. masses --      1.0590                 1.1039                 1.0766
 Frc consts  --      5.5392                 5.9146                 5.7828
 IR Inten    --     56.9840                65.3719                13.0065

                     97                     98                     99
                      A                      A                      A
 Frequencies --   3033.0012              3050.3624              3052.9491
 Red. masses --      1.0690                 1.0635                 1.0721
 Frc consts  --      5.7940                 5.8301                 5.8872
 IR Inten    --     55.4400                 9.1657                12.8924

                    100                    101                    102
                      A                      A                      A
 Frequencies --   3054.4895              3054.8736              3064.4708
 Red. masses --      1.0648                 1.0479                 1.0659
 Frc consts  --      5.8531                 5.7618                 5.8975
 IR Inten    --     49.6731                22.5126                27.2579

                    103                    104                    105
                      A                      A                      A
 Frequencies --   3069.3372              3083.5243              3098.6858
 Red. masses --      1.0980                 1.0977                 1.0990
 Frc consts  --      6.0947                 6.1492                 6.2171
 IR Inten    --     45.0577                50.4197                55.7076

                    106                    107                    108
                      A                      A                      A
 Frequencies --   3120.3515              3123.5125              3139.7244
 Red. masses --      1.0981                 1.0979                 1.0996
 Frc consts  --      6.2991                 6.3111                 6.3865
 IR Inten    --     25.9504                20.6074                38.6157

                    109                    110                    111
                      A                      A                      A
 Frequencies --   3151.0388              3154.4800              3218.4351
 Red. masses --      1.0528                 1.0587                 1.0852
 Frc consts  --      6.1592                 6.2067                 6.6231
 IR Inten    --     15.3108                 8.7007                 6.9769

                    112                    113                    114
                      A                      A                      A
 Frequencies --   3225.0515              3242.4750              3440.2225
 Red. masses --      1.1177                 1.1143                 1.0503
 Frc consts  --      6.8491                 6.9025                 7.3235
 IR Inten    --      6.3704                13.9949                 3.3150

                    115                    116                    117
                      A                      A                      A
 Frequencies --   3531.2610              3557.9883              3755.3376
 Red. masses --      1.0909                 1.0738                 1.0664
 Frc consts  --      8.0145                 8.0087                 8.8609
 IR Inten    --      1.3410                10.4118                15.2459

 - Thermochemistry -
 -------------------
 Temperature   298.150 Kelvin.  Pressure   1.00000 Atm.
 Atom     1 has atomic number  6 and mass  12.00000

 Molecular mass:   240.18378 amu.
 Principal axes and moments of inertia in atomic units:
                           1         2         3
     Eigenvalues --  2497.152626123.680186402.45544
           X            0.99999  -0.00355   0.00249
           Y            0.00335   0.99712   0.07575
           Z           -0.00275  -0.07574   0.99712
 This molecule is an asymmetric top.
 Rotational symmetry number  1.
 Warning -- assumption of classical behavior for rotation
           may cause significant error
 Rotational temperatures (Kelvin)      0.03469     0.01414     0.01353
 Rotational constants (GHZ):           0.72272     0.29472     0.28188
 Zero-point vibrational energy     970138.6 (Joules/Mol)
                                  231.86868 (Kcal/Mol)
 Warning -- explicit consideration of  28 degrees of freedom as
           vibrations may cause significant error
 Vibrational temperatures:     34.91    60.52    71.85    93.73   155.10
          (Kelvin)            180.24   195.09   257.11   313.48   331.94
                              340.64   360.25   378.90   383.94   438.73
                              466.11   479.18   498.98   508.52   548.18
                              554.77   579.93   627.01   661.39   710.22
                              757.45   816.04   846.55   901.48  1003.69
                             1007.49  1060.16  1118.30  1131.52  1142.94
                             1227.99  1240.99  1263.25  1283.17  1307.63
                             1326.89  1367.50  1396.87  1412.95  1416.21
                             1426.46  1469.55  1488.55  1497.46  1518.85
                             1541.07  1550.96  1551.79  1567.62  1572.65
                             1631.70  1647.87  1661.40  1683.96  1721.41
                             1726.62  1776.82  1788.29  1805.32  1852.94
                             1874.83  1878.45  1895.75  1936.32  1959.31
                             1970.82  1989.67  1996.12  2000.17  2019.65
                             2028.60  2037.80  2048.17  2079.05  2129.88
                             2141.94  2172.43  2174.39  2176.17  2194.18
                             2204.97  2205.90  2213.44  2216.01  2230.12
                             2233.60  2439.18  2486.96  4286.94  4338.73
                             4344.23  4363.81  4388.79  4392.51  4394.73
                             4395.28  4409.09  4416.09  4436.50  4458.32
                             4489.49  4494.04  4517.36  4533.64  4538.59
                             4630.61  4640.13  4665.20  4949.71  5080.70
                             5119.15  5403.09

 Zero-point correction=                           0.369506 (Hartree/Particle)
 Thermal correction to Energy=                    0.387406
 Thermal correction to Enthalpy=                  0.388350
 Thermal correction to Gibbs Free Energy=         0.323752
 Sum of electronic and zero-point Energies=           -769.453312
 Sum of electronic and thermal Energies=              -769.435412
 Sum of electronic and thermal Enthalpies=            -769.434468
 Sum of electronic and thermal Free Energies=         -769.499066

                     E (Thermal)             CV                S
                      KCal/Mol        Cal/Mol-Kelvin    Cal/Mol-Kelvin
 Total                  243.101             70.012            135.958
 Electronic               0.000              0.000              0.000
 Translational            0.889              2.981             42.330
 Rotational               0.889              2.981             32.948
 Vibrational            241.323             64.051             60.679
 Vibration     1          0.593              1.985              6.251
 Vibration     2          0.595              1.980              5.160
 Vibration     3          0.595              1.978              4.820
 Vibration     4          0.597              1.971              4.295
 Vibration     5          0.606              1.943              3.308
 Vibration     6          0.610              1.928              3.017
 Vibration     7          0.613              1.918              2.865
 Vibration     8          0.629              1.869              2.342
 Vibration     9          0.646              1.814              1.977
 Vibration    10          0.652              1.794              1.873
 Vibration    11          0.656              1.784              1.827
 Vibration    12          0.663              1.762              1.728
 Vibration    13          0.670              1.740              1.639
 Vibration    14          0.672              1.734              1.616
 Vibration    15          0.696              1.664              1.390
 Vibration    16          0.709              1.628              1.290
 Vibration    17          0.715              1.610              1.245
 Vibration    18          0.725              1.582              1.181
 Vibration    19          0.730              1.568              1.151
 Vibration    20          0.751              1.511              1.035
 Vibration    21          0.754              1.501              1.017
 Vibration    22          0.768              1.464              0.951
 Vibration    23          0.796              1.392              0.840
 Vibration    24          0.818              1.339              0.767
 Vibration    25          0.849              1.264              0.674
 Vibration    26          0.881              1.191              0.595
 Vibration    27          0.923              1.102              0.510
 Vibration    28          0.946              1.057              0.470

 Optimization completed.
    -- Stationary point found.
 Normal termination of Gaussian 16 at Fri Dec 11 13:15:58 2020.

 ----------------------------------------------------------------------
 # B3LYP/6-311++G(d,p) empiricaldispersion=gd3bj scf=xqc pop=npa geom=c
 heck
 ----------------------------------------------------------------------

 --------------------------------------
 CID_81503504_JID_7269_Energie_neutraal
 --------------------------------------
 Structure from the checkpoint file:  "JID_7269.chk"
 Charge =  0 Multiplicity = 1

 SCF Done:  E(RB3LYP) =  -770.059456042     A.U. after   14 cycles
 Normal termination of Gaussian 16 at Fri Dec 11 13:25:50 2020.

 ----------------------------------------------------------------------
 # B3LYP/6-311++G(d,p) empiricaldispersion=gd3bj scf=xqc pop=npa geom=c
 heck
 ----------------------------------------------------------------------

 ------------------------------------
 CID_81503504_JID_7269_Energie_kation
 ------------------------------------
 Structure from the checkpoint file:  "JID_7269.chk"
 Charge =  1 Multiplicity = 2

 SCF Done:  E(UB3LYP) =  -769.749616542     A.U. after   28 cycles
 Normal termination of Gaussian 16 at Fri Dec 11 13:53:13 2020.
 Gaussian 16:  ES64L-G16RevA.03 25-Dec-2016

 ----------------------------------------------------------------------
 # B3LYP/6-311++G(d,p) empiricaldispersion=gd3bj scf=xqc pop=npa geom=c
 heck
 ----------------------------------------------------------------------

 -----------------------------------
 CID_81503504_JID_7269_Energie_anion
 -----------------------------------
 Structure from the checkpoint file:  "JID_7269.chk"
 Charge = -1 Multiplicity = 2

                         Standard orientation:
 ---------------------------------------------------------------------
 Center     Atomic      Atomic             Coordinates (Angstroms)
 Number     Number       Type             X           Y           Z
 ---------------------------------------------------------------------
      1          6           0       -2.042093    1.783102    1.332634
      2          6           0       -2.834313    1.311771    0.103994
      3          6           0       -2.223531    1.832889   -1.211744
      4          6           0       -0.951990    1.069813   -1.609261
      5          6           0       -1.236014   -0.435132   -1.674914
      6          6           0       -1.753530   -1.013409   -0.349002
      7          6           0       -3.021510   -0.217226    0.037475
      8          6           0       -0.826521   -1.071511    0.903376
      9          8           0       -1.358847   -1.364580    1.975901
     10          7           0        0.536653   -0.895290    0.905532
     11          6           0        1.563699   -0.793977   -0.119781
     12          6           0        2.597388    0.296028    0.155090
     13          6           0        2.190477    1.604566    0.784292
     14          6           0        3.032923    0.621578    1.561503
     15          6           0        3.658225    0.358441   -0.918300
     16          8           0        4.370349   -0.876981   -0.925015
     17          7           0       -2.177280   -2.406385   -0.612881
     18          1           0       -0.993589    1.475068    1.294427
     19          1           0       -2.462022    1.369795    2.254738
     20          1           0       -2.062316    2.877350    1.401009
     21          1           0       -3.841176    1.742542    0.194194
     22          1           0       -2.962584    1.717733   -2.016895
     23          1           0       -2.012121    2.906637   -1.128398
     24          1           0       -0.149338    1.281679   -0.893827
     25          1           0       -0.596081    1.421217   -2.585654
     26          1           0       -0.381625   -1.004412   -2.056095
     27          1           0       -2.041410   -0.612291   -2.398606
     28          1           0       -3.396012   -0.593806    0.992973
     29          1           0       -3.766849   -0.455886   -0.730582
     30          1           0        0.886795   -1.115742    1.832165
     31          1           0        2.093223   -1.750361   -0.214479
     32          1           0        1.100630   -0.587201   -1.078950
     33          1           0        2.654493    2.518118    0.421892
     34          1           0        1.154305    1.715607    1.085766
     35          1           0        2.563176    0.108095    2.395745
     36          1           0        4.084130    0.842926    1.721390
     37          1           0        3.180582    0.541435   -1.895802
     38          1           0        4.333325    1.205000   -0.717616
     39          1           0        4.958682   -0.878130   -1.694789
     40          1           0       -1.361963   -2.961679   -0.878122
     41          1           0       -2.509155   -2.801080    0.267707
 ---------------------------------------------------------------------

 SCF Done:  E(UB3LYP) =  -770.051187320     A.U. after   33 cycles
 SCF Done:  E(UB3LYP) =  -770.051187320     a.u. after    1 cycles

 The electronic state is 2-A.
 Alpha  occ. eigenvalues --  -19.01844 -18.99819 -14.25254 -14.21525 -10.18787
 Alpha  occ. eigenvalues --  -10.13139 -10.11824 -10.11730 -10.09798 -10.08635
 Alpha  occ. eigenvalues --  -10.08440 -10.08317 -10.07927 -10.07484 -10.07449
 Alpha  occ. eigenvalues --  -10.07393 -10.06798  -0.95411  -0.91952  -0.83666
 Alpha  occ. eigenvalues --   -0.81502  -0.77507  -0.73846  -0.67297  -0.64471
 Alpha  occ. eigenvalues --   -0.63866  -0.59504  -0.59317  -0.54446  -0.52333
 Alpha  occ. eigenvalues --   -0.51796  -0.49075  -0.46546  -0.44280  -0.42408
 Alpha  occ. eigenvalues --   -0.41013  -0.40527  -0.40433  -0.39648  -0.38929
 Alpha  occ. eigenvalues --   -0.37131  -0.35990  -0.34480  -0.34290  -0.33570
 Alpha  occ. eigenvalues --   -0.33172  -0.32693  -0.31048  -0.30972  -0.29415
 Alpha  occ. eigenvalues --   -0.28977  -0.28212  -0.27454  -0.26563  -0.26347
 Alpha  occ. eigenvalues --   -0.25296  -0.24318  -0.23471  -0.22015  -0.21222
 Alpha  occ. eigenvalues --   -0.21098  -0.19857  -0.18686  -0.17886  -0.16562
 Alpha  occ. eigenvalues --   -0.15742   0.04051
 Alpha virt. eigenvalues --    0.05849   0.06950   0.07165   0.07674   0.08361
 Alpha virt. eigenvalues --    0.08634   0.09089   0.09263   0.09879   0.10178
 Alpha virt. eigenvalues --    0.10743   0.11082   0.11333   0.12110   0.12464

  Beta  occ. eigenvalues --  -19.01794 -18.99817 -14.25252 -14.21517 -10.18785
  Beta  occ. eigenvalues --  -10.13139 -10.11808 -10.11685 -10.09800 -10.08631
  Beta  occ. eigenvalues --  -10.08426 -10.08307 -10.07914 -10.07470 -10.07436
  Beta  occ. eigenvalues --  -10.07388 -10.06791  -0.95407  -0.91844  -0.83659
  Beta  occ. eigenvalues --   -0.81492  -0.77491  -0.73828  -0.67278  -0.64451
  Beta  occ. eigenvalues --   -0.63835  -0.59458  -0.59250  -0.54427  -0.52302
  Beta  occ. eigenvalues --   -0.51761  -0.49057  -0.46503  -0.44260  -0.42343
  Beta  occ. eigenvalues --   -0.40924  -0.40481  -0.40409  -0.39622  -0.38910
  Beta  occ. eigenvalues --   -0.37111  -0.35964  -0.34464  -0.34273  -0.33547
  Beta  occ. eigenvalues --   -0.33139  -0.32677  -0.31031  -0.30954  -0.29389
  Beta  occ. eigenvalues --   -0.28946  -0.28197  -0.27437  -0.26545  -0.26335
  Beta  occ. eigenvalues --   -0.25280  -0.24253  -0.23455  -0.21995  -0.21196
  Beta  occ. eigenvalues --   -0.21080  -0.19831  -0.18678  -0.17844  -0.16543
  Beta  occ. eigenvalues --   -0.15733
  Beta virt. eigenvalues --    0.06014   0.06826   0.07289   0.07643   0.08251
  Beta virt. eigenvalues --    0.08662   0.08917   0.09154   0.09568   0.10125
  Beta virt. eigenvalues --    0.10552   0.10937   0.11337   0.11646   0.12168

 Mulliken charges and spin densities:
               1          2
     1  C   -0.374003  -0.251592
     2  C   -0.284043   0.615349
     3  C    0.274172  -0.999131
     4  C    0.194362  -0.344418
     5  C   -0.605581   0.379145
     6  C    0.438393  -0.383096
     7  C   -0.279764  -0.360418
     8  C   -0.474507   0.055535
     9  O   -0.264814   0.006900
    10  N   -0.222063   0.047658
    11  C   -0.571205   0.116987
    12  C   -1.198081   1.853382
    13  C   -0.169144  -0.313323
    14  C   -0.558684   0.014803
    15  C    3.064054  -3.362250
    16  O   -0.345301   0.110570
    17  N   -0.213403   0.045477
    18  H    0.416985  -0.254819
    19  H    0.098165   0.046660
    20  H   -0.028755   0.178479
    21  H    0.029106   0.173718
    22  H    0.026912   0.100101
    23  H   -0.152899   0.325601
    24  H    0.592474  -0.514658
    25  H   -0.437297   0.649793
    26  H   -0.380850   0.588032
    27  H    0.054252   0.151015
    28  H    0.187248   0.024892
    29  H    0.112333   0.061421
    30  H    0.253392   0.034920
    31  H    0.085196   0.155614
    32  H    0.710149  -0.580608
    33  H   -0.117082   0.302250
    34  H    0.053478   0.040546
    35  H    0.045838   0.062010
    36  H    0.017523   0.159821
    37  H   -0.664455   0.839540
    38  H   -0.455817   0.606007
    39  H   -0.269491   0.540859
    40  H    0.171589   0.060472
    41  H    0.241619   0.016756
 Sum of Mulliken charges =  -1.00000   1.00000

 Dipole moment (field-independent basis, Debye):
    X=             -7.1904    Y=             -1.1146    Z=              5.7402  Tot=              9.2679
 Quadrupole moment (field-independent basis, Debye-Ang):
   XX=           -200.2300   YY=           -144.5648   ZZ=           -157.4444
   XY=             -0.1401   XZ=             20.4119   YZ=              3.3880

 Summary of Natural Population Analysis:

                                       Natural Population
                Natural  -----------------------------------------------
    Atom  No    Charge         Core      Valence    Rydberg      Total
 -----------------------------------------------------------------------
      C    1   -0.28763      0.99964     2.28156    0.00642     3.28763
      C    2   -0.11200      0.99960     2.10254    0.00986     3.11200
      C    3   -0.18514      0.99961     2.17660    0.00893     3.18514
      C    4   -0.19857      0.99962     2.18980    0.00915     3.19857
      C    5   -0.19729      0.99959     2.18634    0.01136     3.19729
      C    6    0.02380      0.99951     1.96280    0.01389     2.97620
      C    7   -0.19007      0.99958     2.18062    0.00987     3.19007
      C    8    0.34371      0.99960     1.63270    0.02398     2.65629
      O    9   -0.34143      0.99988     3.33586    0.00569     4.34143
      N   10   -0.31557      0.99966     2.80636    0.00955     3.81557
      C   11   -0.08524      0.99954     2.07488    0.01082     3.08524
      C   12   -0.05699      0.99955     2.04279    0.01466     3.05699
      C   13   -0.19648      0.99958     2.18826    0.00863     3.19648
      C   14   -0.19291      0.99959     2.18502    0.00831     3.19291
      C   15   -0.00091      0.99952     1.98850    0.01290     3.00091
      O   16   -0.37431      0.99989     3.36780    0.00662     4.37431
      N   17   -0.41232      0.99976     2.90362    0.00893     3.91232
      H   18    0.09640      0.00000     0.40239    0.00122     0.40360
      H   19    0.10316      0.00000     0.39616    0.00067     0.39684
      H   20    0.09728      0.00000     0.40195    0.00077     0.40272
      H   21    0.09521      0.00000     0.40328    0.00151     0.40479
      H   22    0.09547      0.00000     0.40339    0.00114     0.40453
      H   23    0.09981      0.00000     0.39923    0.00096     0.40019
      H   24    0.09699      0.00000     0.40004    0.00297     0.40301
      H   25    0.10432      0.00000     0.39440    0.00128     0.39568
      H   26    0.10132      0.00000     0.39759    0.00110     0.39868
      H   27    0.10591      0.00000     0.39266    0.00143     0.39409
      H   28    0.11033      0.00000     0.38862    0.00106     0.38967
      H   29    0.10343      0.00000     0.39540    0.00117     0.39657
      H   30    0.19077      0.00000     0.30627    0.00296     0.30923
      H   31    0.10395      0.00000     0.39452    0.00153     0.39605
      H   32    0.10564      0.00000     0.39233    0.00202     0.39436
      H   33    0.10537      0.00000     0.39363    0.00100     0.39463
      H   34    0.10485      0.00000     0.39392    0.00124     0.39515
      H   35    0.09618      0.00000     0.40278    0.00104     0.40382
      H   36    0.10717      0.00000     0.39207    0.00076     0.39283
      H   37    0.08391      0.00000     0.41158    0.00451     0.41609
      H   38    0.08066      0.00000     0.41652    0.00282     0.41934
      H   39    0.23784      0.00000     0.24850    0.01366     0.26216
      H   40    0.17356      0.00000     0.32477    0.00166     0.32644
      H   41    0.17982      0.00000     0.31846    0.00172     0.32018
 =======================================================================
   * Total *    0.00000     16.99371    48.77653    0.22976    66.00000

 Normal termination of Gaussian 16 at Fri Dec 11 14:24:57 2020.
