 Gaussian 16, Revision A.03,

 -----------------------------------------------------------
 # opt freq B3LYP/6-31G(d) empiricaldispersion=gd3bj scf=xqc
 -----------------------------------------------------------

 --------------------------------
 CID_118686841_JID_10592_neutraal
 --------------------------------
 Symbolic Z-matrix:
 Charge =  0 Multiplicity = 1

 SCF Done:  E(RB3LYP) =  -916.435240754     A.U. after   15 cycles
 SCF Done:  E(RB3LYP) =  -916.445418602     A.U. after   13 cycles
 SCF Done:  E(RB3LYP) =  -916.447513511     A.U. after   13 cycles
 SCF Done:  E(RB3LYP) =  -916.448111006     A.U. after   12 cycles
 SCF Done:  E(RB3LYP) =  -916.448392436     A.U. after   12 cycles
 SCF Done:  E(RB3LYP) =  -916.448545088     A.U. after   12 cycles
 SCF Done:  E(RB3LYP) =  -916.448712747     A.U. after   12 cycles
 SCF Done:  E(RB3LYP) =  -916.448813156     A.U. after   12 cycles
 SCF Done:  E(RB3LYP) =  -916.448824395     A.U. after   11 cycles
 SCF Done:  E(RB3LYP) =  -916.448832280     A.U. after    9 cycles
 SCF Done:  E(RB3LYP) =  -916.448836753     A.U. after    8 cycles
 SCF Done:  E(RB3LYP) =  -916.448837650     A.U. after    9 cycles
 SCF Done:  E(RB3LYP) =  -916.448838571     A.U. after    9 cycles
 SCF Done:  E(RB3LYP) =  -916.448839266     A.U. after    9 cycles
 SCF Done:  E(RB3LYP) =  -916.448839381     A.U. after    8 cycles
 SCF Done:  E(RB3LYP) =  -916.448839387     A.U. after    7 cycles
 Optimization completed.
    -- Stationary point found.
 Normal termination of Gaussian 16 at Sat Dec 12 16:11:38 2020.

 --------------------------------------------------------------------
 #N Geom=AllCheck Guess=TCheck SCRF=Check GenChk RB3LYP/6-31G(d) Freq
 --------------------------------------------------------------------

 Structure from the checkpoint file:  "JID_10592.chk"
 --------------------------------
 CID_118686841_JID_10592_neutraal
 --------------------------------
 Charge =  0 Multiplicity = 1

 SCF Done:  E(RB3LYP) =  -916.448839387     A.U. after    1 cycles

  Exact polarizability: 210.058 -11.604 192.301  -5.361  -6.314 153.841
 Approx polarizability: 271.794 -33.301 336.197   5.728 -28.663 272.745

                      1                      2                      3
                      A                      A                      A
 Frequencies --     15.6190                27.1627                41.2562
 Red. masses --      4.5574                 4.9977                 7.6242
 Frc consts  --      0.0007                 0.0022                 0.0076
 IR Inten    --      0.3597                 0.9721                 0.3205

                      4                      5                      6
                      A                      A                      A
 Frequencies --     48.7539                71.9775                80.8102
 Red. masses --      8.1239                 4.9738                 5.2052
 Frc consts  --      0.0114                 0.0152                 0.0200
 IR Inten    --      1.6411                 0.9726                 0.8575

                      7                      8                      9
                      A                      A                      A
 Frequencies --    130.5831               137.5239               148.0566
 Red. masses --      3.5969                 3.8025                 4.1071
 Frc consts  --      0.0361                 0.0424                 0.0530
 IR Inten    --      0.8144                 1.4199                 0.2456

                     10                     11                     12
                      A                      A                      A
 Frequencies --    174.1890               203.9443               219.8280
 Red. masses --      4.0792                 2.4604                 2.6356
 Frc consts  --      0.0729                 0.0603                 0.0750
 IR Inten    --      0.2152                 0.6070                 2.0243

                     13                     14                     15
                      A                      A                      A
 Frequencies --    228.0991               239.3802               279.7040
 Red. masses --      2.6846                 3.9643                 3.0182
 Frc consts  --      0.0823                 0.1338                 0.1391
 IR Inten    --      1.5327                 1.1486                12.7127

                     16                     17                     18
                      A                      A                      A
 Frequencies --    309.1083               321.5858               335.9457
 Red. masses --      5.3458                 3.0809                 1.9167
 Frc consts  --      0.3009                 0.1877                 0.1275
 IR Inten    --      2.5898                11.7541                 8.7558

                     19                     20                     21
                      A                      A                      A
 Frequencies --    357.3852               394.2454               448.1266
 Red. masses --      3.1292                 2.4891                 3.9749
 Frc consts  --      0.2355                 0.2279                 0.4703
 IR Inten    --      6.0351                17.9039                 3.2222

                     22                     23                     24
                      A                      A                      A
 Frequencies --    449.1676               484.6782               516.7575
 Red. masses --      4.7689                 3.6975                 2.9746
 Frc consts  --      0.5669                 0.5118                 0.4680
 IR Inten    --     24.3293                15.1190                99.4639

                     25                     26                     27
                      A                      A                      A
 Frequencies --    538.4262               547.7452               581.6597
 Red. masses --      1.5204                 3.3285                 3.5840
 Frc consts  --      0.2597                 0.5884                 0.7144
 IR Inten    --    192.4395                13.8849                21.8285

                     28                     29                     30
                      A                      A                      A
 Frequencies --    592.8804               610.1369               619.7854
 Red. masses --      2.1670                 3.0742                 3.1824
 Frc consts  --      0.4488                 0.6743                 0.7202
 IR Inten    --     52.1352                25.0444                17.4606

                     31                     32                     33
                      A                      A                      A
 Frequencies --    654.2563               670.8850               675.4961
 Red. masses --      3.6376                 1.8866                 2.0258
 Frc consts  --      0.9174                 0.5003                 0.5446
 IR Inten    --      2.8231                12.5892                37.7030

                     34                     35                     36
                      A                      A                      A
 Frequencies --    693.8089               737.6675               738.3699
 Red. masses --      2.7559                 5.0659                 2.8890
 Frc consts  --      0.7816                 1.6241                 0.9280
 IR Inten    --     13.5722                16.3542                 4.3298

                     37                     38                     39
                      A                      A                      A
 Frequencies --    757.1021               764.7481               798.4099
 Red. masses --      3.4894                 1.2762                 2.5039
 Frc consts  --      1.1784                 0.4398                 0.9404
 IR Inten    --     19.9887                 3.6548                12.4885

                     40                     41                     42
                      A                      A                      A
 Frequencies --    823.0190               838.9805               863.3727
 Red. masses --      1.4771                 3.3077                 1.4057
 Frc consts  --      0.5895                 1.3718                 0.6174
 IR Inten    --      8.4116                 1.2453                 1.8472

                     43                     44                     45
                      A                      A                      A
 Frequencies --    869.1612               879.0423               884.5794
 Red. masses --      2.7426                 1.5280                 1.5235
 Frc consts  --      1.2207                 0.6957                 0.7024
 IR Inten    --     14.2174                33.4881                36.5169

                     46                     47                     48
                      A                      A                      A
 Frequencies --    920.5586               933.1406               942.3646
 Red. masses --      2.6445                 1.4130                 2.7615
 Frc consts  --      1.3204                 0.7249                 1.4449
 IR Inten    --      3.6048                23.5552                 6.5080

                     49                     50                     51
                      A                      A                      A
 Frequencies --    962.7316               981.2300              1029.0269
 Red. masses --      2.3943                 1.5584                 2.5096
 Frc consts  --      1.3075                 0.8840                 1.5657
 IR Inten    --      2.9318                 3.8123                 8.5858

                     52                     53                     54
                      A                      A                      A
 Frequencies --   1030.6438              1067.1423              1073.1730
 Red. masses --      1.1091                 2.0709                 2.7724
 Frc consts  --      0.6941                 1.3895                 1.8812
 IR Inten    --     18.4272                13.2505                 0.5004

                     55                     56                     57
                      A                      A                      A
 Frequencies --   1098.0015              1134.8403              1158.9366
 Red. masses --      2.3325                 1.3918                 1.4481
 Frc consts  --      1.6568                 1.0561                 1.1460
 IR Inten    --     10.5384                 2.3795                65.3130

                     58                     59                     60
                      A                      A                      A
 Frequencies --   1190.5472              1198.0723              1217.7100
 Red. masses --      3.1444                 1.5282                 2.1625
 Frc consts  --      2.6259                 1.2924                 1.8893
 IR Inten    --     28.3234                61.8112                15.0392

                     61                     62                     63
                      A                      A                      A
 Frequencies --   1230.7229              1252.0924              1260.7506
 Red. masses --      1.7898                 2.2403                 1.8673
 Frc consts  --      1.5973                 2.0693                 1.7487
 IR Inten    --     26.7515                40.4670                20.3413

                     64                     65                     66
                      A                      A                      A
 Frequencies --   1278.3821              1295.7773              1303.4954
 Red. masses --      1.4703                 1.7467                 2.1448
 Frc consts  --      1.4158                 1.7279                 2.1472
 IR Inten    --     10.1353                47.1387                 5.9803

                     67                     68                     69
                      A                      A                      A
 Frequencies --   1333.6075              1346.6552              1353.0201
 Red. masses --      1.5653                 1.3398                 1.4726
 Frc consts  --      1.6402                 1.4315                 1.5883
 IR Inten    --     35.8661                 9.8300                 3.6044

                     70                     71                     72
                      A                      A                      A
 Frequencies --   1370.0527              1394.2596              1402.3443
 Red. masses --      1.5058                 2.4836                 2.2879
 Frc consts  --      1.6653                 2.8446                 2.6509
 IR Inten    --     42.0128                26.4643                 1.5387

                     73                     74                     75
                      A                      A                      A
 Frequencies --   1429.1732              1460.4574              1488.6287
 Red. masses --      2.8368                 1.3332                 1.4287
 Frc consts  --      3.4139                 1.6754                 1.8653
 IR Inten    --     57.0291                 8.2435                 4.6158

                     76                     77                     78
                      A                      A                      A
 Frequencies --   1497.2984              1512.3935              1530.4110
 Red. masses --      2.0422                 1.3577                 1.1008
 Frc consts  --      2.6975                 1.8298                 1.5191
 IR Inten    --      9.5157                 2.2697                 3.0205

                     79                     80                     81
                      A                      A                      A
 Frequencies --   1576.6294              1658.3411              1670.4630
 Red. masses --      7.3671                 2.9609                 2.3142
 Frc consts  --     10.7896                 4.7975                 3.8048
 IR Inten    --     66.5082                19.2181               188.5934

                     82                     83                     84
                      A                      A                      A
 Frequencies --   1677.9655              1694.8541              1714.9394
 Red. masses --      2.7385                 3.4496                 5.1494
 Frc consts  --      4.5428                 5.8382                 8.9229
 IR Inten    --     63.5787                20.5976               135.1344

                     85                     86                     87
                      A                      A                      A
 Frequencies --   1762.7405              1860.1650              3060.1002
 Red. masses --     10.5861                10.0708                 1.0679
 Frc consts  --     19.3803                20.5313                 5.8920
 IR Inten    --    488.5310               346.6186                10.8820

                     88                     89                     90
                      A                      A                      A
 Frequencies --   3091.0512              3123.4561              3142.1736
 Red. masses --      1.0650                 1.0959                 1.0874
 Frc consts  --      5.9954                 6.2995                 6.3257
 IR Inten    --     15.4780                13.8157                17.1381

                     91                     92                     93
                      A                      A                      A
 Frequencies --   3147.1450              3151.9044              3161.1470
 Red. masses --      1.0978                 1.0926                 1.0588
 Frc consts  --      6.4062                 6.3953                 6.2337
 IR Inten    --     14.0835                 3.0997                16.8268

                     94                     95                     96
                      A                      A                      A
 Frequencies --   3173.2956              3174.1540              3239.3485
 Red. masses --      1.0596                 1.0899                 1.0922
 Frc consts  --      6.2866                 6.4701                 6.7525
 IR Inten    --      4.0261                11.6184                 1.3800

                     97                     98                     99
                      A                      A                      A
 Frequencies --   3245.3185              3247.7231              3254.4580
 Red. masses --      1.1151                 1.0912                 1.1148
 Frc consts  --      6.9196                 6.7811                 6.9569
 IR Inten    --     19.5363                 0.0599                13.1157

                    100                    101                    102
                      A                      A                      A
 Frequencies --   3565.0535              3677.0263              3688.9673
 Red. masses --      1.0476                 1.0991                 1.0641
 Frc consts  --      7.8444                 8.7556                 8.5317
 IR Inten    --     26.2000                15.5244                63.7494

 - Thermochemistry -
 -------------------
 Temperature   298.150 Kelvin.  Pressure   1.00000 Atm.
 Atom     1 has atomic number  6 and mass  12.00000

 Molecular mass:   272.11609 amu.
 Principal axes and moments of inertia in atomic units:
                           1         2         3
     Eigenvalues --  2733.362269553.365129686.39745
           X            0.99993   0.00191  -0.01200
           Y           -0.00101   0.99724   0.07419
           Z            0.01211  -0.07417   0.99717
 This molecule is an asymmetric top.
 Rotational symmetry number  1.
 Warning -- assumption of classical behavior for rotation
           may cause significant error
 Rotational temperatures (Kelvin)      0.03169     0.00907     0.00894
 Rotational constants (GHZ):           0.66026     0.18891     0.18632
 Zero-point vibrational energy     761061.1 (Joules/Mol)
                                  181.89797 (Kcal/Mol)
 Warning -- explicit consideration of  30 degrees of freedom as
           vibrations may cause significant error
 Vibrational temperatures:     22.47    39.08    59.36    70.15   103.56
          (Kelvin)            116.27   187.88   197.87   213.02   250.62
                              293.43   316.28   328.18   344.41   402.43
                              444.74   462.69   483.35   514.20   567.23
                              644.75   646.25   697.34   743.50   774.68
                              788.08   836.88   853.02   877.85   891.73
                              941.33   965.25   971.89   998.24  1061.34
                             1062.35  1089.30  1100.30  1148.73  1184.14
                             1207.11  1242.20  1250.53  1264.75  1272.71
                             1324.48  1342.58  1355.85  1385.16  1411.77
                             1480.54  1482.87  1535.38  1544.06  1579.78
                             1632.78  1667.45  1712.93  1723.76  1752.01
                             1770.74  1801.48  1813.94  1839.31  1864.33
                             1875.44  1918.76  1937.54  1946.69  1971.20
                             2006.03  2017.66  2056.26  2101.27  2141.80
                             2154.28  2176.00  2201.92  2268.42  2385.98
                             2403.42  2414.22  2438.52  2467.42  2536.19
                             2676.36  4402.80  4447.33  4493.96  4520.89
                             4528.04  4534.89  4548.19  4565.66  4566.90
                             4660.70  4669.29  4672.75  4682.44  5129.32
                             5290.42  5307.60

 Zero-point correction=                           0.289873 (Hartree/Particle)
 Thermal correction to Energy=                    0.308716
 Thermal correction to Enthalpy=                  0.309660
 Thermal correction to Gibbs Free Energy=         0.240791
 Sum of electronic and zero-point Energies=           -916.158967
 Sum of electronic and thermal Energies=              -916.140123
 Sum of electronic and thermal Enthalpies=            -916.139179
 Sum of electronic and thermal Free Energies=         -916.208049

                     E (Thermal)             CV                S
                      KCal/Mol        Cal/Mol-Kelvin    Cal/Mol-Kelvin
 Total                  193.722             71.783            144.948
 Electronic               0.000              0.000              0.000
 Translational            0.889              2.981             42.702
 Rotational               0.889              2.981             33.891
 Vibrational            191.945             65.821             68.355
 Vibration     1          0.593              1.986              7.125
 Vibration     2          0.593              1.984              6.027
 Vibration     3          0.594              1.981              5.198
 Vibration     4          0.595              1.978              4.867
 Vibration     5          0.598              1.967              4.099
 Vibration     6          0.600              1.962              3.871
 Vibration     7          0.612              1.923              2.937
 Vibration     8          0.614              1.916              2.838
 Vibration     9          0.617              1.905              2.697
 Vibration    10          0.627              1.874              2.390
 Vibration    11          0.640              1.834              2.097
 Vibration    12          0.647              1.811              1.961
 Vibration    13          0.651              1.798              1.894
 Vibration    14          0.657              1.780              1.807
 Vibration    15          0.680              1.711              1.535
 Vibration    16          0.698              1.656              1.367
 Vibration    17          0.707              1.632              1.302
 Vibration    18          0.717              1.604              1.231
 Vibration    19          0.733              1.560              1.133
 Vibration    20          0.761              1.482              0.984
 Vibration    21          0.807              1.365              0.801
 Vibration    22          0.808              1.363              0.798
 Vibration    23          0.841              1.284              0.698
 Vibration    24          0.872              1.213              0.618
 Vibration    25          0.893              1.165              0.569
 Vibration    26          0.903              1.145              0.549
 Vibration    27          0.938              1.071              0.482
 Vibration    28          0.950              1.047              0.462
 Vibration    29          0.969              1.010              0.433
 Vibration    30          0.980              0.990              0.417

 Optimization completed.
    -- Stationary point found.
 Normal termination of Gaussian 16 at Sat Dec 12 16:31:59 2020.

 ----------------------------------------------------------------------
 # B3LYP/6-311++G(d,p) empiricaldispersion=gd3bj scf=xqc pop=npa geom=c
 heck
 ----------------------------------------------------------------------

 ----------------------------------------
 CID_118686841_JID_10592_Energie_neutraal
 ----------------------------------------
 Structure from the checkpoint file:  "JID_10592.chk"
 Charge =  0 Multiplicity = 1

 SCF Done:  E(RB3LYP) =  -916.719005983     A.U. after   16 cycles
 Normal termination of Gaussian 16 at Sat Dec 12 16:41:19 2020.

 ----------------------------------------------------------------------
 # B3LYP/6-311++G(d,p) empiricaldispersion=gd3bj scf=xqc pop=npa geom=c
 heck
 ----------------------------------------------------------------------

 --------------------------------------
 CID_118686841_JID_10592_Energie_kation
 --------------------------------------
 Structure from the checkpoint file:  "JID_10592.chk"
 Charge =  1 Multiplicity = 2

 SCF Done:  E(UB3LYP) =  -916.459116341     A.U. after   28 cycles
 Normal termination of Gaussian 16 at Sat Dec 12 17:04:14 2020.
 Gaussian 16:  ES64L-G16RevA.03 25-Dec-2016

 ----------------------------------------------------------------------
 # B3LYP/6-311++G(d,p) empiricaldispersion=gd3bj scf=xqc pop=npa geom=c
 heck
 ----------------------------------------------------------------------

 -------------------------------------
 CID_118686841_JID_10592_Energie_anion
 -------------------------------------
 Structure from the checkpoint file:  "JID_10592.chk"
 Charge = -1 Multiplicity = 2

                         Standard orientation:
 ---------------------------------------------------------------------
 Center     Atomic      Atomic             Coordinates (Angstroms)
 Number     Number       Type             X           Y           Z
 ---------------------------------------------------------------------
      1          6           0        3.631613    3.018604    0.567493
      2          6           0        3.281439    1.722842    0.503019
      3          6           0        3.863661    0.758922   -0.404244
      4          6           0        3.525969   -0.552733   -0.486080
      5          6           0        2.449148   -1.174290    0.344516
      6          6           0        2.732448   -2.231365    1.123746
      7          6           0        1.067873   -0.636672    0.236610
      8          6           0        0.641137   -0.066442   -0.939364
      9          6           0       -0.707265    0.420944   -1.122904
     10          8           0       -1.202962    0.886010   -2.148699
     11          7           0       -1.488079    0.330073    0.045302
     12          6           0       -2.868857    0.794441    0.056084
     13          6           0       -3.198579    0.820947    1.569776
     14          6           0       -2.252826   -0.237095    2.178285
     15          6           0       -1.090305   -0.249563    1.218896
     16          6           0        0.172835   -0.739053    1.352905
     17          6           0       -3.812090   -0.119994   -0.716411
     18          8           0       -4.876033    0.239359   -1.161286
     19          8           0       -3.366959   -1.395512   -0.777001
     20          7           0        4.129154   -1.424063   -1.392335
     21          1           0        4.394599    3.436736   -0.085275
     22          1           0        3.163835    3.699530    1.271262
     23          1           0        2.512438    1.359056    1.181531
     24          1           0        4.652382    1.123202   -1.063079
     25          1           0        1.968401   -2.746367    1.696641
     26          1           0        3.744928   -2.616213    1.205909
     27          1           0        1.304181    0.026907   -1.790049
     28          1           0       -2.939127    1.774088   -0.417041
     29          1           0       -4.255144    0.627232    1.765245
     30          1           0       -2.957847    1.813561    1.961619
     31          1           0       -2.726152   -1.226961    2.184921
     32          1           0       -1.950545   -0.006726    3.203288
     33          1           0        0.500560   -1.157854    2.295486
     34          1           0       -4.040095   -1.892574   -1.278802
     35          1           0        5.051658   -1.163306   -1.716932
     36          1           0        4.038835   -2.408187   -1.183582
 ---------------------------------------------------------------------

 SCF Done:  E(UB3LYP) =  -916.735332122     A.U. after   30 cycles

 The electronic state is 2-A.
 Alpha  occ. eigenvalues --  -19.08348 -19.02506 -18.93447 -14.22541 -14.20889
 Alpha  occ. eigenvalues --  -10.21291 -10.12510 -10.11793 -10.09642 -10.09123
 Alpha  occ. eigenvalues --  -10.09113 -10.08735 -10.05011 -10.03736 -10.03691
 Alpha  occ. eigenvalues --  -10.03621 -10.03292 -10.03096 -10.01325 -10.00642
 Alpha  occ. eigenvalues --   -1.02272  -0.93385  -0.89983  -0.84253  -0.80484
 Alpha  occ. eigenvalues --   -0.71399  -0.68931  -0.67363  -0.65622  -0.61477
 Alpha  occ. eigenvalues --   -0.59433  -0.58591  -0.54802  -0.51431  -0.49945
 Alpha  occ. eigenvalues --   -0.48701  -0.48212  -0.45041  -0.42236  -0.40647
 Alpha  occ. eigenvalues --   -0.39818  -0.39308  -0.38785  -0.36662  -0.36107
 Alpha  occ. eigenvalues --   -0.35831  -0.34878  -0.33300  -0.33027  -0.31721
 Alpha  occ. eigenvalues --   -0.31171  -0.29997  -0.28976  -0.28561  -0.27885
 Alpha  occ. eigenvalues --   -0.27536  -0.27211  -0.25702  -0.25216  -0.24047
 Alpha  occ. eigenvalues --   -0.23693  -0.23174  -0.22586  -0.20933  -0.20491
 Alpha  occ. eigenvalues --   -0.19742  -0.17552  -0.17148  -0.12157  -0.11672
 Alpha  occ. eigenvalues --   -0.08294  -0.07094   0.03697
 Alpha virt. eigenvalues --    0.06754   0.07683   0.07743   0.08515   0.09179
 Alpha virt. eigenvalues --    0.09342   0.09539   0.10042   0.10496   0.11221
 Alpha virt. eigenvalues --    0.11427   0.12153   0.12399   0.13054   0.13339

  Beta  occ. eigenvalues --  -19.08345 -19.02494 -18.93336 -14.22352 -14.20868
  Beta  occ. eigenvalues --  -10.21259 -10.12521 -10.11753 -10.09634 -10.09076
  Beta  occ. eigenvalues --  -10.08997 -10.08744 -10.05002 -10.03696 -10.03610
  Beta  occ. eigenvalues --  -10.03474 -10.03272 -10.03091 -10.00924 -10.00417
  Beta  occ. eigenvalues --   -1.02250  -0.93364  -0.89742  -0.84016  -0.80406
  Beta  occ. eigenvalues --   -0.71183  -0.68692  -0.67255  -0.65349  -0.61160
  Beta  occ. eigenvalues --   -0.59166  -0.58407  -0.54714  -0.51131  -0.49875
  Beta  occ. eigenvalues --   -0.48423  -0.47722  -0.44900  -0.42084  -0.40573
  Beta  occ. eigenvalues --   -0.39759  -0.39159  -0.38646  -0.36496  -0.36016
  Beta  occ. eigenvalues --   -0.35660  -0.34757  -0.33158  -0.32896  -0.31660
  Beta  occ. eigenvalues --   -0.31052  -0.29599  -0.28848  -0.28443  -0.27742
  Beta  occ. eigenvalues --   -0.27495  -0.27079  -0.25423  -0.25024  -0.23870
  Beta  occ. eigenvalues --   -0.23621  -0.23067  -0.22419  -0.20675  -0.20138
  Beta  occ. eigenvalues --   -0.19194  -0.17355  -0.16064  -0.11505  -0.10717
  Beta  occ. eigenvalues --   -0.07516  -0.06288
  Beta virt. eigenvalues --    0.06720   0.07621   0.07752   0.08472   0.08941
  Beta virt. eigenvalues --    0.09265   0.09364   0.10058   0.10161   0.10577
  Beta virt. eigenvalues --    0.11254   0.11422   0.12240   0.12466   0.13026

 Mulliken charges and spin densities:
               1          2
     1  C   -0.576031   0.035434
     2  C    0.179902   0.010479
     3  C   -0.228750   0.003767
     4  C   -0.575376   0.011686
     5  C    0.590187  -0.114551
     6  C   -0.534305   0.490723
     7  C    0.795130   0.160922
     8  C   -0.472912   0.205125
     9  C   -0.004195   0.029065
    10  O   -0.412146   0.036979
    11  N    0.463236   0.053929
    12  C   -0.124932  -0.009018
    13  C   -0.406934  -0.001031
    14  C   -0.541143  -0.006995
    15  C   -0.455363   0.124694
    16  C   -0.628334  -0.092639
    17  C   -0.013550   0.010708
    18  O   -0.278989   0.004625
    19  O   -0.169890   0.002020
    20  N   -0.234933   0.000199
    21  H    0.075798   0.005935
    22  H    0.104876   0.001215
    23  H    0.166306   0.002361
    24  H    0.108929  -0.003393
    25  H    0.080768  -0.017228
    26  H    0.104901   0.002880
    27  H    0.188635  -0.010758
    28  H    0.263477   0.002385
    29  H    0.181974   0.006005
    30  H    0.142420  -0.001468
    31  H    0.165343   0.004152
    32  H    0.153620  -0.000216
    33  H    0.161949   0.028125
    34  H    0.291584   0.001646
    35  H    0.200276   0.017436
    36  H    0.238473   0.004807
 Sum of Mulliken charges =  -1.00000   1.00000

 Dipole moment (field-independent basis, Debye):
    X=             -3.0168    Y=             -2.1715    Z=              3.7010  Tot=              5.2454
 Quadrupole moment (field-independent basis, Debye-Ang):
   XX=           -161.3505   YY=           -134.9249   ZZ=           -139.1060
   XY=              3.0421   XZ=            -21.1661   YZ=              9.0153

 Summary of Natural Population Analysis:

                                       Natural Population
                Natural  -----------------------------------------------
    Atom  No    Charge         Core      Valence    Rydberg      Total
 -----------------------------------------------------------------------
      C    1   -0.22438      0.99960     2.21674    0.00805     3.22438
      C    2   -0.08343      0.99957     2.07468    0.00918     3.08343
      C    3   -0.16299      0.99946     2.15406    0.00947     3.16299
      C    4    0.11690      0.99945     1.86955    0.01409     2.88310
      C    5   -0.03646      0.99945     2.02480    0.01220     3.03646
      C    6   -0.10160      0.99953     2.09409    0.00797     3.10160
      C    7    0.03467      0.99949     1.95450    0.01134     2.96533
      C    8   -0.10144      0.99947     2.09093    0.01104     3.10144
      C    9    0.32504      0.99961     1.65487    0.02047     2.67496
      O   10   -0.33884      0.99988     3.33286    0.00610     4.33884
      N   11   -0.20985      0.99958     2.69951    0.01076     3.70985
      C   12   -0.04856      0.99956     2.03595    0.01305     3.04856
      C   13   -0.18306      0.99963     2.17721    0.00621     3.18306
      C   14   -0.20355      0.99961     2.19775    0.00620     3.20355
      C   15    0.13876      0.99955     1.85197    0.00972     2.86124
      C   16   -0.15885      0.99947     2.14956    0.00982     3.15885
      C   17    0.41400      0.99969     1.56038    0.02592     2.58600
      O   18   -0.31142      0.99987     3.30453    0.00702     4.31142
      O   19   -0.33818      0.99987     3.33110    0.00721     4.33818
      N   20   -0.39409      0.99971     2.88521    0.00917     3.89409
      H   21    0.08197      0.00000     0.41686    0.00116     0.41803
      H   22    0.08752      0.00000     0.41157    0.00091     0.41248
      H   23    0.10338      0.00000     0.39528    0.00133     0.39662
      H   24    0.08421      0.00000     0.41392    0.00188     0.41579
      H   25    0.08649      0.00000     0.41266    0.00085     0.41351
      H   26    0.08142      0.00000     0.41769    0.00089     0.41858
      H   27    0.10370      0.00000     0.39531    0.00100     0.39630
      H   28    0.12200      0.00000     0.37688    0.00112     0.37800
      H   29    0.10108      0.00000     0.39793    0.00098     0.39892
      H   30    0.10090      0.00000     0.39813    0.00097     0.39910
      H   31    0.10385      0.00000     0.39493    0.00122     0.39615
      H   32    0.10409      0.00000     0.39483    0.00107     0.39591
      H   33    0.10335      0.00000     0.39562    0.00104     0.39665
      H   34    0.23494      0.00000     0.26054    0.00452     0.26506
      H   35    0.17805      0.00000     0.32036    0.00158     0.32195
      H   36    0.19037      0.00000     0.30832    0.00132     0.30963
 =======================================================================
   * Total *   -0.00000     19.99207    51.77110    0.23683    72.00000

 Normal termination of Gaussian 16 at Sat Dec 12 17:29:07 2020.
