 Gaussian 16, Revision A.03,

 -----------------------------------------------------------
 # opt freq B3LYP/6-31G(d) empiricaldispersion=gd3bj scf=xqc
 -----------------------------------------------------------

 ------------------------------
 CID_82502983_JID_2483_neutraal
 ------------------------------
 Symbolic Z-matrix:
 Charge =  0 Multiplicity = 1

 SCF Done:  E(RB3LYP) =  -536.077467685     A.U. after   15 cycles
 SCF Done:  E(RB3LYP) =  -536.098867406     A.U. after   13 cycles
 SCF Done:  E(RB3LYP) =  -536.100871614     A.U. after   13 cycles
 SCF Done:  E(RB3LYP) =  -536.099444865     A.U. after   14 cycles
 SCF Done:  E(RB3LYP) =  -536.101841237     A.U. after   13 cycles
 SCF Done:  E(RB3LYP) =  -536.102594910     A.U. after   12 cycles
 SCF Done:  E(RB3LYP) =  -536.100359618     A.U. after   15 cycles
 SCF Done:  E(RB3LYP) =  -536.103369685     A.U. after   12 cycles
 SCF Done:  E(RB3LYP) =  -536.103593912     A.U. after   12 cycles
 SCF Done:  E(RB3LYP) =  -536.103649267     A.U. after   11 cycles
 SCF Done:  E(RB3LYP) =  -536.103748606     A.U. after    8 cycles
 SCF Done:  E(RB3LYP) =  -536.103750696     A.U. after    9 cycles
 SCF Done:  E(RB3LYP) =  -536.103752266     A.U. after   11 cycles
 SCF Done:  E(RB3LYP) =  -536.103752512     A.U. after    8 cycles
 SCF Done:  E(RB3LYP) =  -536.103752728     A.U. after    8 cycles
 SCF Done:  E(RB3LYP) =  -536.103752736     A.U. after    6 cycles
 Optimization completed.
    -- Stationary point found.
 Normal termination of Gaussian 16 at Wed Dec  9 18:01:17 2020.

 --------------------------------------------------------------------
 #N Geom=AllCheck Guess=TCheck SCRF=Check GenChk RB3LYP/6-31G(d) Freq
 --------------------------------------------------------------------

 Structure from the checkpoint file:  "JID_2483.chk"
 ------------------------------
 CID_82502983_JID_2483_neutraal
 ------------------------------
 Charge =  0 Multiplicity = 1

 SCF Done:  E(RB3LYP) =  -536.103752736     A.U. after    1 cycles

  Exact polarizability: 126.462  10.473 104.720  -3.024  -3.978  85.695
 Approx polarizability: 166.712  22.479 152.259 -12.041 -12.024 126.599

                      1                      2                      3
                      A                      A                      A
 Frequencies --     14.3850                22.8598                55.8514
 Red. masses --      1.0261                 3.6910                 3.7674
 Frc consts  --      0.0001                 0.0011                 0.0069
 IR Inten    --      0.0529                 0.7865                 1.1779

                      4                      5                      6
                      A                      A                      A
 Frequencies --     74.7337               109.1401               131.9685
 Red. masses --      4.1936                 2.6691                 2.6704
 Frc consts  --      0.0138                 0.0187                 0.0274
 IR Inten    --      2.4740                10.0760                 0.1721

                      7                      8                      9
                      A                      A                      A
 Frequencies --    161.5919               199.2008               220.1006
 Red. masses --      2.7252                 3.4182                 1.4334
 Frc consts  --      0.0419                 0.0799                 0.0409
 IR Inten    --      1.9771                10.5964                31.3083

                     10                     11                     12
                      A                      A                      A
 Frequencies --    253.6116               279.6156               315.4996
 Red. masses --      1.9633                 2.8140                 3.6946
 Frc consts  --      0.0744                 0.1296                 0.2167
 IR Inten    --      7.0024                21.6713                 7.4138

                     13                     14                     15
                      A                      A                      A
 Frequencies --    364.6274               384.1376               404.6919
 Red. masses --      4.0727                 3.8668                 3.2615
 Frc consts  --      0.3190                 0.3362                 0.3147
 IR Inten    --      0.1846                 5.7866                 1.3553

                     16                     17                     18
                      A                      A                      A
 Frequencies --    457.8752               546.9483               568.3013
 Red. masses --      4.7350                 4.9060                 2.4996
 Frc consts  --      0.5849                 0.8647                 0.4756
 IR Inten    --      0.5258                 7.7615                 4.5920

                     19                     20                     21
                      A                      A                      A
 Frequencies --    666.6177               686.5784               773.3735
 Red. masses --      4.3870                 4.8122                 3.0109
 Frc consts  --      1.1486                 1.3365                 1.0610
 IR Inten    --     15.7596                 9.9099                 6.7276

                     22                     23                     24
                      A                      A                      A
 Frequencies --    797.3228               811.8749               860.4569
 Red. masses --      2.1408                 2.7209                 1.2907
 Frc consts  --      0.8019                 1.0567                 0.5630
 IR Inten    --      1.2859                 5.3874               112.0193

                     25                     26                     27
                      A                      A                      A
 Frequencies --    907.9668               971.2107               982.1928
 Red. masses --      2.0458                 1.9217                 2.1554
 Frc consts  --      0.9937                 1.0680                 1.2251
 IR Inten    --     27.7069                14.4291                 2.0401

                     28                     29                     30
                      A                      A                      A
 Frequencies --   1001.2558              1054.4892              1064.8343
 Red. masses --      1.9004                 1.9710                 2.5205
 Frc consts  --      1.1225                 1.2913                 1.6838
 IR Inten    --      4.7646                 3.2030                 9.3836

                     31                     32                     33
                      A                      A                      A
 Frequencies --   1070.1663              1072.5794              1082.9964
 Red. masses --      1.4174                 1.4117                 2.9650
 Frc consts  --      0.9564                 0.9568                 2.0489
 IR Inten    --      2.1314                 3.3392                 7.4250

                     34                     35                     36
                      A                      A                      A
 Frequencies --   1120.1790              1174.1344              1177.8893
 Red. masses --      1.7921                 3.2362                 1.2643
 Frc consts  --      1.3249                 2.6286                 1.0335
 IR Inten    --      2.9963                 2.9013                 1.1628

                     37                     38                     39
                      A                      A                      A
 Frequencies --   1212.8247              1235.7464              1243.7084
 Red. masses --      1.7192                 1.6759                 1.4420
 Frc consts  --      1.4899                 1.5079                 1.3142
 IR Inten    --      5.7495                18.5323                 6.2612

                     40                     41                     42
                      A                      A                      A
 Frequencies --   1275.2045              1310.2934              1328.1325
 Red. masses --      1.9227                 1.3404                 1.6704
 Frc consts  --      1.8421                 1.3558                 1.7360
 IR Inten    --    157.4236                 4.1199                25.4986

                     43                     44                     45
                      A                      A                      A
 Frequencies --   1334.8756              1356.9171              1392.5465
 Red. masses --      1.3797                 1.4100                 1.2615
 Frc consts  --      1.4485                 1.5296                 1.4414
 IR Inten    --     25.4989                 7.0198                19.8000

                     46                     47                     48
                      A                      A                      A
 Frequencies --   1405.2200              1444.3693              1447.4452
 Red. masses --      1.4386                 1.2504                 1.7620
 Frc consts  --      1.6737                 1.5369                 2.1750
 IR Inten    --     21.0108                10.3071                28.3926

                     49                     50                     51
                      A                      A                      A
 Frequencies --   1460.0512              1501.9271              1507.3971
 Red. masses --      2.1856                 1.0922                 1.0401
 Frc consts  --      2.7451                 1.4516                 1.3924
 IR Inten    --    103.8177                 1.5358                 6.6009

                     52                     53                     54
                      A                      A                      A
 Frequencies --   1509.3159              1512.8394              1525.9486
 Red. masses --      1.0404                 1.0819                 1.0997
 Frc consts  --      1.3965                 1.4588                 1.5087
 IR Inten    --      6.0240                13.5646                 5.6946

                     55                     56                     57
                      A                      A                      A
 Frequencies --   1534.7829              1701.1203              1807.9539
 Red. masses --      1.0892                 1.0886                11.9287
 Frc consts  --      1.5116                 1.8561                22.9729
 IR Inten    --      2.1196                31.0578               407.6577

                     58                     59                     60
                      A                      A                      A
 Frequencies --   2378.3520              2953.9689              3014.2282
 Red. masses --     11.8150                 1.0731                 1.0700
 Frc consts  --     39.3764                 5.5172                 5.7278
 IR Inten    --      6.8266                63.8764                32.5117

                     61                     62                     63
                      A                      A                      A
 Frequencies --   3041.0284              3067.2322              3077.4278
 Red. masses --      1.0346                 1.0689                 1.0724
 Frc consts  --      5.6370                 5.9250                 5.9838
 IR Inten    --     32.1803                15.5349                 1.2011

                     64                     65                     66
                      A                      A                      A
 Frequencies --   3080.7998              3093.1482              3094.2719
 Red. masses --      1.0781                 1.0906                 1.0847
 Frc consts  --      6.0288                 6.1476                 6.1189
 IR Inten    --     50.3842                 3.4011                28.5003

                     67                     68                     69
                      A                      A                      A
 Frequencies --   3102.4790              3103.3457              3118.7916
 Red. masses --      1.1017                 1.1014                 1.1028
 Frc consts  --      6.2480                 6.2496                 6.3200
 IR Inten    --     12.1722                11.6046                24.4772

                     70                     71                     72
                      A                      A                      A
 Frequencies --   3136.3549              3478.5028              3560.8375
 Red. masses --      1.0984                 1.0500                 1.0922
 Frc consts  --      6.3661                 7.4856                 8.1593
 IR Inten    --     19.0660                 1.5066                 0.0872

 - Thermochemistry -
 -------------------
 Temperature   298.150 Kelvin.  Pressure   1.00000 Atm.
 Atom     1 has atomic number  6 and mass  12.00000

 Molecular mass:   166.11061 amu.
 Principal axes and moments of inertia in atomic units:
                           1         2         3
     Eigenvalues --  1715.809612810.965773862.31881
           X            0.99979  -0.01993  -0.00487
           Y            0.01997   0.99976   0.00901
           Z            0.00469  -0.00910   0.99995
 This molecule is an asymmetric top.
 Rotational symmetry number  1.
 Warning -- assumption of classical behavior for rotation
           may cause significant error
 Rotational temperatures (Kelvin)      0.05048     0.03081     0.02243
 Rotational constants (GHZ):           1.05183     0.64204     0.46727
 Zero-point vibrational energy     587310.5 (Joules/Mol)
                                  140.37058 (Kcal/Mol)
 Warning -- explicit consideration of  18 degrees of freedom as
           vibrations may cause significant error
 Vibrational temperatures:     20.70    32.89    80.36   107.53   157.03
          (Kelvin)            189.87   232.49   286.61   316.68   364.89
                              402.30   453.93   524.62   552.69   582.26
                              658.78   786.94   817.66   959.11   987.83
                             1112.71  1147.17  1168.11  1238.01  1306.36
                             1397.36  1413.16  1440.58  1517.17  1532.06
                             1539.73  1543.20  1558.19  1611.69  1689.32
                             1694.72  1744.98  1777.96  1789.42  1834.73
                             1885.22  1910.89  1920.59  1952.30  2003.56
                             2021.80  2078.13  2082.55  2100.69  2160.94
                             2168.81  2171.57  2176.64  2195.50  2208.21
                             2447.53  2601.24  3421.92  4250.10  4336.80
                             4375.36  4413.06  4427.73  4432.58  4450.35
                             4451.97  4463.78  4465.02  4487.25  4512.52
                             5004.79  5123.25

 Zero-point correction=                           0.223695 (Hartree/Particle)
 Thermal correction to Energy=                    0.237057
 Thermal correction to Enthalpy=                  0.238002
 Thermal correction to Gibbs Free Energy=         0.181026
 Sum of electronic and zero-point Energies=           -535.880058
 Sum of electronic and thermal Energies=              -535.866695
 Sum of electronic and thermal Enthalpies=            -535.865751
 Sum of electronic and thermal Free Energies=         -535.922727

                     E (Thermal)             CV                S
                      KCal/Mol        Cal/Mol-Kelvin    Cal/Mol-Kelvin
 Total                  148.756             46.914            119.915
 Electronic               0.000              0.000              0.000
 Translational            0.889              2.981             41.231
 Rotational               0.889              2.981             31.300
 Vibrational            146.978             40.953             47.385
 Vibration     1          0.593              1.986              7.289
 Vibration     2          0.593              1.985              6.369
 Vibration     3          0.596              1.975              4.599
 Vibration     4          0.599              1.966              4.025
 Vibration     5          0.606              1.942              3.284
 Vibration     6          0.612              1.921              2.917
 Vibration     7          0.622              1.889              2.531
 Vibration     8          0.637              1.841              2.140
 Vibration     9          0.647              1.810              1.958
 Vibration    10          0.665              1.757              1.705
 Vibration    11          0.680              1.711              1.536
 Vibration    12          0.703              1.644              1.333
 Vibration    13          0.738              1.545              1.102
 Vibration    14          0.753              1.504              1.023
 Vibration    15          0.770              1.460              0.946
 Vibration    16          0.816              1.343              0.772
 Vibration    17          0.902              1.146              0.551
 Vibration    18          0.924              1.100              0.508

 Optimization completed on the basis of negligible forces.
    -- Stationary point found.
 Normal termination of Gaussian 16 at Wed Dec  9 18:07:56 2020.

 ----------------------------------------------------------------------
 # B3LYP/6-311++G(d,p) empiricaldispersion=gd3bj scf=xqc pop=npa geom=c
 heck
 ----------------------------------------------------------------------

 --------------------------------------
 CID_82502983_JID_2483_Energie_neutraal
 --------------------------------------
 Structure from the checkpoint file:  "JID_2483.chk"
 Charge =  0 Multiplicity = 1

 SCF Done:  E(RB3LYP) =  -536.265804074     A.U. after   15 cycles
 Normal termination of Gaussian 16 at Wed Dec  9 18:11:48 2020.

 ----------------------------------------------------------------------
 # B3LYP/6-311++G(d,p) empiricaldispersion=gd3bj scf=xqc pop=npa geom=c
 heck
 ----------------------------------------------------------------------

 ------------------------------------
 CID_82502983_JID_2483_Energie_kation
 ------------------------------------
 Structure from the checkpoint file:  "JID_2483.chk"
 Charge =  1 Multiplicity = 2

 SCF Done:  E(UB3LYP) =  -535.952988109     A.U. after   29 cycles
 Normal termination of Gaussian 16 at Wed Dec  9 18:18:43 2020.
 Gaussian 16:  ES64L-G16RevA.03 25-Dec-2016

 ----------------------------------------------------------------------
 # B3LYP/6-311++G(d,p) empiricaldispersion=gd3bj scf=xqc pop=npa geom=c
 heck
 ----------------------------------------------------------------------

 -----------------------------------
 CID_82502983_JID_2483_Energie_anion
 -----------------------------------
 Structure from the checkpoint file:  "JID_2483.chk"
 Charge = -1 Multiplicity = 2

                         Standard orientation:
 ---------------------------------------------------------------------
 Center     Atomic      Atomic             Coordinates (Angstroms)
 Number     Number       Type             X           Y           Z
 ---------------------------------------------------------------------
      1          6           0       -4.339412   -0.395370    0.753527
      2          6           0       -3.112510    0.054758    0.103033
      3          6           0       -2.102512    0.442813   -0.435726
      4          6           0       -0.862746    0.874351   -1.085758
      5          7           0        0.314834    0.600794   -0.277022
      6          6           0        0.637318   -0.719708    0.256825
      7          6           0        1.715295   -0.387677    1.317585
      8          6           0        2.338153    0.931726    0.836618
      9          6           0        1.240175    1.576604   -0.007381
     10          8           0        1.187170    2.733474   -0.395664
     11          6           0        1.121015   -1.670288   -0.847827
     12          7           0        1.276013   -3.026477   -0.317913
     13          1           0       -5.218839    0.092969    0.316907
     14          1           0       -4.328448   -0.161657    1.824788
     15          1           0       -4.473563   -1.478670    0.649203
     16          1           0       -0.772884    0.392203   -2.070423
     17          1           0       -0.855623    1.956475   -1.257300
     18          1           0       -0.252811   -1.163441    0.713365
     19          1           0        2.446338   -1.192909    1.434226
     20          1           0        1.233007   -0.242663    2.289081
     21          1           0        3.214743    0.774160    0.196391
     22          1           0        2.640808    1.605850    1.641233
     23          1           0        0.355899   -1.708204   -1.631654
     24          1           0        2.030871   -1.246188   -1.311341
     25          1           0        1.433938   -3.680256   -1.081604
     26          1           0        2.104613   -3.078923    0.271621
 ---------------------------------------------------------------------

 SCF Done:  E(UB3LYP) =  -536.255388825     A.U. after   30 cycles

 The electronic state is 2-A.
 Alpha  occ. eigenvalues --  -18.99447 -14.24715 -14.19078 -10.17405 -10.13542
 Alpha  occ. eigenvalues --  -10.11199 -10.09563 -10.09341 -10.08437 -10.08082
 Alpha  occ. eigenvalues --  -10.07709 -10.07003  -0.94564  -0.85875  -0.78180
 Alpha  occ. eigenvalues --   -0.72015  -0.68574  -0.64003  -0.63775  -0.58510
 Alpha  occ. eigenvalues --   -0.55335  -0.50183  -0.45873  -0.41583  -0.41296
 Alpha  occ. eigenvalues --   -0.39434  -0.37136  -0.36806  -0.35748  -0.34418
 Alpha  occ. eigenvalues --   -0.33706  -0.33555  -0.32949  -0.30835  -0.30367
 Alpha  occ. eigenvalues --   -0.29641  -0.29066  -0.28713  -0.24437  -0.23676
 Alpha  occ. eigenvalues --   -0.17779  -0.16876  -0.16352  -0.15266  -0.14344
 Alpha  occ. eigenvalues --    0.04151
 Alpha virt. eigenvalues --    0.05754   0.07388   0.08145   0.08554   0.09369
 Alpha virt. eigenvalues --    0.09734   0.10065   0.10732   0.10956   0.11823
 Alpha virt. eigenvalues --    0.12546   0.12920   0.13386   0.13696   0.14468

  Beta  occ. eigenvalues --  -18.99445 -14.24712 -14.19018 -10.17405 -10.13536
  Beta  occ. eigenvalues --  -10.11194 -10.09510 -10.09313 -10.08423 -10.08051
  Beta  occ. eigenvalues --  -10.07706 -10.07000  -0.94561  -0.85867  -0.78088
  Beta  occ. eigenvalues --   -0.71992  -0.68533  -0.63962  -0.63725  -0.58465
  Beta  occ. eigenvalues --   -0.55248  -0.50126  -0.45848  -0.41540  -0.41262
  Beta  occ. eigenvalues --   -0.39394  -0.37115  -0.36756  -0.35710  -0.34357
  Beta  occ. eigenvalues --   -0.33654  -0.33497  -0.32909  -0.30800  -0.30330
  Beta  occ. eigenvalues --   -0.29617  -0.29020  -0.28680  -0.24403  -0.23649
  Beta  occ. eigenvalues --   -0.17765  -0.16859  -0.16336  -0.15251  -0.14291
  Beta virt. eigenvalues --    0.06397   0.07115   0.08021   0.08510   0.09063
  Beta virt. eigenvalues --    0.09908   0.10125   0.10568   0.11006   0.11255
  Beta virt. eigenvalues --    0.12215   0.12749   0.13070   0.13569   0.13954

 Mulliken charges and spin densities:
               1          2
     1  C    1.927673  -2.360259
     2  C   -1.282752   1.155553
     3  C    0.646960   0.314740
     4  C   -1.002550  -0.197126
     5  N    0.315263   0.028427
     6  C   -1.814031   1.403906
     7  C    0.009693  -0.166171
     8  C    0.284425  -0.808864
     9  C    0.057929   0.125957
    10  O   -0.396470   0.007781
    11  C    2.398678  -2.938120
    12  N   -0.519768   0.241477
    13  H   -0.299826   0.459665
    14  H   -0.298178   0.460682
    15  H   -0.224732   0.389696
    16  H    0.094889   0.080876
    17  H    0.183223   0.031656
    18  H    0.209014   0.008220
    19  H   -0.419773   0.574026
    20  H   -0.110682   0.271173
    21  H   -0.036979   0.213245
    22  H    0.108065   0.075451
    23  H   -0.271255   0.451396
    24  H   -0.212272   0.374690
    25  H   -0.193243   0.438103
    26  H   -0.153299   0.363820
 Sum of Mulliken charges =  -1.00000   1.00000

 Dipole moment (field-independent basis, Debye):
    X=              0.4169    Y=              3.9065    Z=             -0.2509  Tot=              3.9367
 Quadrupole moment (field-independent basis, Debye-Ang):
   XX=           -142.2779   YY=           -132.4927   ZZ=           -100.6087
   XY=              6.0020   XZ=              6.8953   YZ=             -1.2439

 Summary of Natural Population Analysis:

                                       Natural Population
                Natural  -----------------------------------------------
    Atom  No    Charge         Core      Valence    Rydberg      Total
 -----------------------------------------------------------------------
      C    1   -0.31848      0.99961     2.31366    0.00521     3.31848
      C    2    0.00601      0.99924     1.98837    0.00639     2.99399
      C    3   -0.02713      0.99922     2.02095    0.00695     3.02713
      C    4   -0.12007      0.99955     2.10986    0.01066     3.12007
      N    5   -0.25064      0.99962     2.74039    0.01063     3.75064
      C    6   -0.00493      0.99958     1.99223    0.01312     3.00493
      C    7   -0.19144      0.99962     2.18328    0.00854     3.19144
      C    8   -0.23096      0.99960     2.22301    0.00835     3.23096
      C    9    0.35109      0.99964     1.62634    0.02293     2.64891
      O   10   -0.32820      0.99987     3.32296    0.00537     4.32820
      C   11   -0.09193      0.99960     2.08053    0.01180     3.09193
      N   12   -0.42190      0.99977     2.91158    0.01055     3.92190
      H   13    0.11216      0.00000     0.38610    0.00174     0.38784
      H   14    0.11331      0.00000     0.38485    0.00184     0.38669
      H   15    0.11318      0.00000     0.38519    0.00163     0.38682
      H   16    0.10456      0.00000     0.39410    0.00133     0.39544
      H   17    0.12478      0.00000     0.37369    0.00153     0.37522
      H   18    0.10629      0.00000     0.39139    0.00232     0.39371
      H   19    0.10506      0.00000     0.39330    0.00164     0.39494
      H   20    0.10139      0.00000     0.39731    0.00130     0.39861
      H   21    0.11044      0.00000     0.38830    0.00126     0.38956
      H   22    0.10897      0.00000     0.39005    0.00098     0.39103
      H   23    0.09303      0.00000     0.40536    0.00161     0.40697
      H   24    0.07944      0.00000     0.41814    0.00242     0.42056
      H   25    0.18012      0.00000     0.31614    0.00375     0.31988
      H   26    0.17585      0.00000     0.32002    0.00413     0.32415
 =======================================================================
   * Total *    0.00000     11.99493    32.85710    0.14797    45.00000

 Normal termination of Gaussian 16 at Wed Dec  9 18:25:06 2020.
