 Gaussian 16, Revision A.03,

 -----------------------------------------------------------
 # opt freq B3LYP/6-31G(d) empiricaldispersion=gd3bj scf=xqc
 -----------------------------------------------------------

 -------------------------------
 CID_21523970_JID_10818_neutraal
 -------------------------------
 Symbolic Z-matrix:
 Charge =  0 Multiplicity = 1

 SCF Done:  E(RB3LYP) =  -866.948048527     A.U. after   14 cycles
 SCF Done:  E(RB3LYP) =  -866.952765339     A.U. after   12 cycles
 SCF Done:  E(RB3LYP) =  -866.952127143     A.U. after   12 cycles
 SCF Done:  E(RB3LYP) =  -866.953975482     A.U. after   12 cycles
 SCF Done:  E(RB3LYP) =  -866.954171993     A.U. after   12 cycles
 SCF Done:  E(RB3LYP) =  -866.954490986     A.U. after   11 cycles
 SCF Done:  E(RB3LYP) =  -866.954772561     A.U. after   11 cycles
 SCF Done:  E(RB3LYP) =  -866.955110030     A.U. after   11 cycles
 SCF Done:  E(RB3LYP) =  -866.955253506     A.U. after   11 cycles
 SCF Done:  E(RB3LYP) =  -866.955304267     A.U. after   11 cycles
 SCF Done:  E(RB3LYP) =  -866.956212658     A.U. after    9 cycles
 SCF Done:  E(RB3LYP) =  -866.956243123     A.U. after   11 cycles
 SCF Done:  E(RB3LYP) =  -866.956248922     A.U. after    9 cycles
 SCF Done:  E(RB3LYP) =  -866.956249358     A.U. after    7 cycles
 SCF Done:  E(RB3LYP) =  -866.956249380     A.U. after    6 cycles
 Optimization completed.
    -- Stationary point found.
 Normal termination of Gaussian 16 at Mon Dec 14 14:23:38 2020.

 --------------------------------------------------------------------
 #N Geom=AllCheck Guess=TCheck SCRF=Check GenChk RB3LYP/6-31G(d) Freq
 --------------------------------------------------------------------

 Structure from the checkpoint file:  "JID_10818.chk"
 -------------------------------
 CID_21523970_JID_10818_neutraal
 -------------------------------
 Charge =  0 Multiplicity = 1

 SCF Done:  E(RB3LYP) =  -866.956249380     A.U. after    1 cycles

  Exact polarizability: 247.211   3.156 184.118   1.354  -2.719 120.251
 Approx polarizability: 313.955  -1.258 296.899   4.248  -6.930 184.543

                      1                      2                      3
                      A                      A                      A
 Frequencies --     27.3475                28.4864                38.5332
 Red. masses --      4.7699                 4.5100                 3.3381
 Frc consts  --      0.0021                 0.0022                 0.0029
 IR Inten    --      0.6316                 0.1713                 0.1476

                      4                      5                      6
                      A                      A                      A
 Frequencies --     50.2396                80.1050               102.3391
 Red. masses --      2.9811                 1.9085                 5.2027
 Frc consts  --      0.0044                 0.0072                 0.0321
 IR Inten    --      0.5662                 0.5566                 0.9934

                      7                      8                      9
                      A                      A                      A
 Frequencies --    115.4841               143.2687               167.6852
 Red. masses --      4.7670                 2.9540                 4.9794
 Frc consts  --      0.0375                 0.0357                 0.0825
 IR Inten    --      0.8028                 0.1706                 0.0984

                     10                     11                     12
                      A                      A                      A
 Frequencies --    183.9271               217.9095               221.8705
 Red. masses --      4.8624                 3.7114                 2.3323
 Frc consts  --      0.0969                 0.1038                 0.0676
 IR Inten    --      1.6253                 0.8122                 0.6265

                     13                     14                     15
                      A                      A                      A
 Frequencies --    260.1324               300.7203               323.6829
 Red. masses --      3.3145                 1.9408                 4.0701
 Frc consts  --      0.1321                 0.1034                 0.2512
 IR Inten    --      1.9614                 1.7098                10.0539

                     16                     17                     18
                      A                      A                      A
 Frequencies --    342.2078               351.2316               416.8669
 Red. masses --      3.4791                 3.4987                 2.9905
 Frc consts  --      0.2400                 0.2543                 0.3062
 IR Inten    --      1.1419                 5.1263                 0.0006

                     19                     20                     21
                      A                      A                      A
 Frequencies --    429.2431               433.8921               460.5196
 Red. masses --      2.8882                 2.3365                 3.7459
 Frc consts  --      0.3135                 0.2592                 0.4681
 IR Inten    --      1.4729                 2.6084                 0.0852

                     22                     23                     24
                      A                      A                      A
 Frequencies --    470.0643               495.3013               526.9679
 Red. masses --      4.3239                 3.1059                 3.3883
 Frc consts  --      0.5629                 0.4489                 0.5544
 IR Inten    --      1.1139                 3.5218                 2.2531

                     25                     26                     27
                      A                      A                      A
 Frequencies --    566.2889               634.3329               644.4125
 Red. masses --      3.9540                 6.4006                 2.6310
 Frc consts  --      0.7471                 1.5174                 0.6437
 IR Inten    --      6.1996                 0.7980                 0.6278

                     28                     29                     30
                      A                      A                      A
 Frequencies --    698.8137               707.0975               720.5299
 Red. masses --      3.6571                 5.0295                 1.6593
 Frc consts  --      1.0522                 1.4816                 0.5076
 IR Inten    --      0.5724                 2.4422                69.0085

                     31                     32                     33
                      A                      A                      A
 Frequencies --    734.8394               771.5660               785.3248
 Red. masses --      2.7758                 1.7157                 1.5379
 Frc consts  --      0.8831                 0.6018                 0.5588
 IR Inten    --      7.8110                 4.1544                 0.4620

                     34                     35                     36
                      A                      A                      A
 Frequencies --    811.7742               812.1074               835.0926
 Red. masses --      3.5998                 2.7655                 2.3497
 Frc consts  --      1.3977                 1.0746                 0.9654
 IR Inten    --      0.2030                 2.6359                 3.0967

                     37                     38                     39
                      A                      A                      A
 Frequencies --    868.1370               872.0777               880.5873
 Red. masses --      1.2461                 2.6023                 1.9935
 Frc consts  --      0.5533                 1.1660                 0.9108
 IR Inten    --      0.0309                 8.1121                 6.9325

                     40                     41                     42
                      A                      A                      A
 Frequencies --    905.2334               918.9021               922.4554
 Red. masses --      2.7301                 2.3713                 2.3019
 Frc consts  --      1.3181                 1.1797                 1.1541
 IR Inten    --      6.8909                 8.8147                 2.0522

                     43                     44                     45
                      A                      A                      A
 Frequencies --    955.1555               959.3949               960.2674
 Red. masses --      1.4018                 1.5070                 2.6529
 Frc consts  --      0.7535                 0.8173                 1.4413
 IR Inten    --      0.8421                 6.5950                 8.7457

                     46                     47                     48
                      A                      A                      A
 Frequencies --    983.8908               985.4932               993.6230
 Red. masses --      1.3487                 2.1588                 1.5769
 Frc consts  --      0.7693                 1.2353                 0.9173
 IR Inten    --      0.0790                 1.0906                 1.5488

                     49                     50                     51
                      A                      A                      A
 Frequencies --   1007.7362              1023.5903              1036.3530
 Red. masses --      1.2679                 6.2681                 2.4768
 Frc consts  --      0.7586                 3.8694                 1.5673
 IR Inten    --      0.0879                 3.2926                16.2756

                     52                     53                     54
                      A                      A                      A
 Frequencies --   1043.8054              1057.3723              1063.5808
 Red. masses --      2.4583                 2.2074                 2.2844
 Frc consts  --      1.5781                 1.4540                 1.5225
 IR Inten    --      2.5028                21.1911                19.6965

                     55                     56                     57
                      A                      A                      A
 Frequencies --   1104.5891              1110.0591              1110.4673
 Red. masses --      1.9960                 1.5335                 1.5869
 Frc consts  --      1.4349                 1.1133                 1.1530
 IR Inten    --     19.8013                 7.7424                26.7883

                     58                     59                     60
                      A                      A                      A
 Frequencies --   1113.3907              1131.6461              1148.0569
 Red. masses --      1.7049                 1.6693                 4.0374
 Frc consts  --      1.2452                 1.2595                 3.1353
 IR Inten    --      2.0260                 4.3530               183.3327

                     61                     62                     63
                      A                      A                      A
 Frequencies --   1156.0779              1167.8547              1194.8319
 Red. masses --      2.4489                 1.6343                 1.1024
 Frc consts  --      1.9284                 1.3133                 0.9273
 IR Inten    --     66.8738                12.4603                 0.3731

                     64                     65                     66
                      A                      A                      A
 Frequencies --   1199.9179              1208.2986              1227.3750
 Red. masses --      2.6138                 1.1595                 1.4546
 Frc consts  --      2.2173                 0.9974                 1.2911
 IR Inten    --      8.2686                45.2216                 0.5049

                     67                     68                     69
                      A                      A                      A
 Frequencies --   1233.6333              1247.2691              1270.1622
 Red. masses --      1.3383                 1.3301                 1.3591
 Frc consts  --      1.2000                 1.2191                 1.2918
 IR Inten    --      5.5354                 1.4565                 5.2195

                     70                     71                     72
                      A                      A                      A
 Frequencies --   1286.2272              1300.6057              1307.8821
 Red. masses --      1.2135                 1.4596                 2.8620
 Frc consts  --      1.1829                 1.4547                 2.8844
 IR Inten    --      4.2037                38.8059               480.9673

                     73                     74                     75
                      A                      A                      A
 Frequencies --   1318.4079              1336.7943              1341.6222
 Red. masses --      1.7532                 1.3632                 1.2366
 Frc consts  --      1.7955                 1.4353                 1.3114
 IR Inten    --     99.5465                 1.8244                 1.7951

                     76                     77                     78
                      A                      A                      A
 Frequencies --   1351.4971              1352.4117              1357.1349
 Red. masses --      1.4655                 1.2906                 1.5346
 Frc consts  --      1.5772                 1.3908                 1.6653
 IR Inten    --      9.6353                 0.0672                 2.3499

                     79                     80                     81
                      A                      A                      A
 Frequencies --   1370.1994              1374.1596              1386.6792
 Red. masses --      5.0177                 1.3516                 1.3644
 Frc consts  --      5.5504                 1.5038                 1.5458
 IR Inten    --      3.7056                 6.8811                76.0952

                     82                     83                     84
                      A                      A                      A
 Frequencies --   1389.5899              1405.0237              1410.8491
 Red. masses --      1.3447                 1.4789                 1.4305
 Frc consts  --      1.5299                 1.7201                 1.6777
 IR Inten    --      4.9874                 4.2880                 7.3920

                     85                     86                     87
                      A                      A                      A
 Frequencies --   1417.2585              1435.0352              1452.7520
 Red. masses --      1.4141                 1.3818                 1.3200
 Frc consts  --      1.6736                 1.6766                 1.6414
 IR Inten    --     13.2910                 9.1471                17.3261

                     88                     89                     90
                      A                      A                      A
 Frequencies --   1499.1968              1505.1978              1515.6542
 Red. masses --      2.2619                 1.0924                 1.0847
 Frc consts  --      2.9953                 1.4582                 1.4682
 IR Inten    --     14.5180                 4.7802                 1.3782

                     91                     92                     93
                      A                      A                      A
 Frequencies --   1516.2908              1529.3022              1534.0447
 Red. masses --      1.0876                 1.0911                 1.0924
 Frc consts  --      1.4733                 1.5035                 1.5147
 IR Inten    --      4.6622                 5.6660                 3.0202

                     94                     95                     96
                      A                      A                      A
 Frequencies --   1542.4608              1543.8963              1547.8450
 Red. masses --      2.2430                 1.0885                 1.0942
 Frc consts  --      3.1442                 1.5286                 1.5445
 IR Inten    --      0.8820                 1.4015                 2.0562

                     97                     98                     99
                      A                      A                      A
 Frequencies --   1559.8901              1644.5372              1664.5694
 Red. masses --      1.1070                 5.7943                 5.6048
 Frc consts  --      1.5870                 9.2329                 9.1498
 IR Inten    --      5.2006                 6.3513                14.3554

                    100                    101                    102
                      A                      A                      A
 Frequencies --   1781.3663              2914.8387              2933.1541
 Red. masses --     11.9790                 1.0740                 1.0732
 Frc consts  --     22.3963                 5.3765                 5.4399
 IR Inten    --    211.3359                58.3041                88.6676

                    103                    104                    105
                      A                      A                      A
 Frequencies --   3021.4652              3026.9886              3049.4418
 Red. masses --      1.0709                 1.0692                 1.0822
 Frc consts  --      5.7599                 5.7721                 5.9293
 IR Inten    --     19.9988                15.0009                57.1842

                    106                    107                    108
                      A                      A                      A
 Frequencies --   3054.9465              3062.7853              3067.1416
 Red. masses --      1.0837                 1.0722                 1.0751
 Frc consts  --      5.9591                 5.9258                 5.9586
 IR Inten    --     23.2446                47.5257                42.1537

                    109                    110                    111
                      A                      A                      A
 Frequencies --   3070.7695              3074.8619              3078.7298
 Red. masses --      1.0713                 1.0717                 1.0960
 Frc consts  --      5.9516                 5.9699                 6.1207
 IR Inten    --     11.6034                70.9428                33.7879

                    112                    113                    114
                      A                      A                      A
 Frequencies --   3083.5565              3102.8723              3108.7224
 Red. masses --      1.0656                 1.0937                 1.1060
 Frc consts  --      5.9697                 6.2041                 6.2978
 IR Inten    --     53.3019                25.4968                 4.7203

                    115                    116                    117
                      A                      A                      A
 Frequencies --   3128.2136              3141.9358              3162.5872
 Red. masses --      1.1059                 1.0910                 1.0901
 Frc consts  --      6.3759                 6.3455                 6.4239
 IR Inten    --     53.0125                22.5344                 8.5199

                    118                    119                    120
                      A                      A                      A
 Frequencies --   3172.9172              3186.8649              3198.9565
 Red. masses --      1.0901                 1.0857                 1.0900
 Frc consts  --      6.4658                 6.4968                 6.5719
 IR Inten    --     11.2502                 0.2035                17.2728

                    121                    122                    123
                      A                      A                      A
 Frequencies --   3209.6835              3229.1289              3236.8677
 Red. masses --      1.0951                 1.0930                 1.0927
 Frc consts  --      6.6468                 6.7147                 6.7450
 IR Inten    --     29.4699                 5.7756                 3.6519

 - Thermochemistry -
 -------------------
 Temperature   298.150 Kelvin.  Pressure   1.00000 Atm.
 Atom     1 has atomic number  6 and mass  12.00000

 Molecular mass:   273.17288 amu.
 Principal axes and moments of inertia in atomic units:
                           1         2         3
     Eigenvalues --  2133.39593********************
           X            0.99999  -0.00339  -0.00152
           Y            0.00339   0.99999   0.00002
           Z            0.00152  -0.00002   1.00000
 This molecule is an asymmetric top.
 Rotational symmetry number  1.
 Warning -- assumption of classical behavior for rotation
           may cause significant error
 Rotational temperatures (Kelvin)      0.04060     0.00714     0.00644
 Rotational constants (GHZ):           0.84595     0.14871     0.13419
 Zero-point vibrational energy     994499.3 (Joules/Mol)
                                  237.69104 (Kcal/Mol)
 Warning -- explicit consideration of  25 degrees of freedom as
           vibrations may cause significant error
 Vibrational temperatures:     39.35    40.99    55.44    72.28   115.25
          (Kelvin)            147.24   166.16   206.13   241.26   264.63
                              313.52   319.22   374.27   432.67   465.71
                              492.36   505.34   599.78   617.59   624.27
                              662.58   676.32   712.63   758.19   814.76
                              912.66   927.17  1005.44  1017.36  1036.68
                             1057.27  1110.11  1129.91  1167.96  1168.44
                             1201.51  1249.06  1254.73  1266.97  1302.43
                             1322.10  1327.21  1374.26  1380.36  1381.61
                             1415.60  1417.90  1429.60  1449.91  1472.72
                             1491.08  1501.80  1521.32  1530.26  1589.26
                             1597.13  1597.71  1601.92  1628.19  1651.80
                             1663.34  1680.28  1719.10  1726.41  1738.47
                             1765.92  1774.92  1794.54  1827.48  1850.59
                             1871.28  1881.75  1896.89  1923.35  1930.30
                             1944.50  1945.82  1952.61  1971.41  1977.11
                             1995.12  1999.31  2021.52  2029.90  2039.12
                             2064.70  2090.19  2157.01  2165.64  2180.69
                             2181.60  2200.32  2207.15  2219.26  2221.32
                             2227.00  2244.33  2366.12  2394.94  2562.99
                             4193.80  4220.15  4347.21  4355.16  4387.47
                             4395.39  4406.66  4412.93  4418.15  4424.04
                             4429.61  4436.55  4464.34  4472.76  4500.80
                             4520.54  4550.26  4565.12  4585.19  4602.58
                             4618.02  4646.00  4657.13

 Zero-point correction=                           0.378785 (Hartree/Particle)
 Thermal correction to Energy=                    0.396533
 Thermal correction to Enthalpy=                  0.397477
 Thermal correction to Gibbs Free Energy=         0.331124
 Sum of electronic and zero-point Energies=           -866.577465
 Sum of electronic and thermal Energies=              -866.559717
 Sum of electronic and thermal Enthalpies=            -866.558773
 Sum of electronic and thermal Free Energies=         -866.625126

                     E (Thermal)             CV                S
                      KCal/Mol        Cal/Mol-Kelvin    Cal/Mol-Kelvin
 Total                  248.828             69.839            139.652
 Electronic               0.000              0.000              0.000
 Translational            0.889              2.981             42.714
 Rotational               0.889              2.981             34.209
 Vibrational            247.051             63.878             62.730
 Vibration     1          0.593              1.984              6.013
 Vibration     2          0.593              1.984              5.932
 Vibration     3          0.594              1.981              5.333
 Vibration     4          0.595              1.977              4.808
 Vibration     5          0.600              1.963              3.888
 Vibration     6          0.604              1.947              3.409
 Vibration     7          0.608              1.937              3.175
 Vibration     8          0.616              1.910              2.760
 Vibration     9          0.624              1.882              2.461
 Vibration    10          0.631              1.862              2.288
 Vibration    11          0.646              1.814              1.976
 Vibration    12          0.648              1.808              1.944
 Vibration    13          0.668              1.746              1.661
 Vibration    14          0.693              1.672              1.413
 Vibration    15          0.708              1.628              1.291
 Vibration    16          0.721              1.591              1.202
 Vibration    17          0.728              1.573              1.161
 Vibration    18          0.780              1.434              0.903
 Vibration    19          0.791              1.407              0.861
 Vibration    20          0.795              1.396              0.846
 Vibration    21          0.818              1.338              0.765
 Vibration    22          0.827              1.316              0.737
 Vibration    23          0.851              1.260              0.670
 Vibration    24          0.882              1.190              0.594
 Vibration    25          0.922              1.104              0.511

                           ! Non-Optimized Parameters !
 Normal termination of Gaussian 16 at Mon Dec 14 14:44:22 2020.

 ----------------------------------------------------------------------
 # B3LYP/6-311++G(d,p) empiricaldispersion=gd3bj scf=xqc pop=npa geom=c
 heck
 ----------------------------------------------------------------------

 ---------------------------------------
 CID_21523970_JID_10818_Energie_neutraal
 ---------------------------------------
 Structure from the checkpoint file:  "JID_10818.chk"
 Charge =  0 Multiplicity = 1

 SCF Done:  E(RB3LYP) =  -867.187801756     A.U. after   15 cycles
 Normal termination of Gaussian 16 at Mon Dec 14 14:53:31 2020.

 ----------------------------------------------------------------------
 # B3LYP/6-311++G(d,p) empiricaldispersion=gd3bj scf=xqc pop=npa geom=c
 heck
 ----------------------------------------------------------------------

 -------------------------------------
 CID_21523970_JID_10818_Energie_kation
 -------------------------------------
 Structure from the checkpoint file:  "JID_10818.chk"
 Charge =  1 Multiplicity = 2

 SCF Done:  E(UB3LYP) =  -866.909746142     A.U. after   31 cycles
 Normal termination of Gaussian 16 at Mon Dec 14 15:18:17 2020.
 Gaussian 16:  ES64L-G16RevA.03 25-Dec-2016

 ----------------------------------------------------------------------
 # B3LYP/6-311++G(d,p) empiricaldispersion=gd3bj scf=xqc pop=npa geom=c
 heck
 ----------------------------------------------------------------------

 ------------------------------------
 CID_21523970_JID_10818_Energie_anion
 ------------------------------------
 Structure from the checkpoint file:  "JID_10818.chk"
 Charge = -1 Multiplicity = 2

                         Standard orientation:
 ---------------------------------------------------------------------
 Center     Atomic      Atomic             Coordinates (Angstroms)
 Number     Number       Type             X           Y           Z
 ---------------------------------------------------------------------
      1          6           0       -5.087972    1.793991    0.125994
      2          6           0       -3.702276    2.396611   -0.231287
      3          6           0       -2.723338    1.255990    0.071680
      4          7           0       -3.505410    0.071825   -0.288509
      5          6           0       -4.804197    0.291916    0.348939
      6          6           0       -2.958472   -1.277809   -0.096724
      7          6           0       -2.113199   -1.743545   -1.299722
      8          6           0       -0.671788   -1.216570   -1.304537
      9          6           0        0.008585   -1.575361    0.015130
     10          6           0       -0.742344   -1.043887    1.235555
     11          6           0       -2.201484   -1.533208    1.231077
     12          8           0        1.416374   -1.203073    0.036735
     13          6           0        1.777784    0.092310   -0.049289
     14          8           0        1.003414    1.027630   -0.151287
     15          6           0        3.259248    0.256542   -0.003905
     16          6           0        3.774135    1.556620   -0.082094
     17          6           0        5.149539    1.766222   -0.043237
     18          6           0        6.018026    0.678274    0.073812
     19          6           0        5.507867   -0.619405    0.151842
     20          6           0        4.131732   -0.833133    0.113380
     21          1           0       -5.514612    2.249194    1.024869
     22          1           0       -5.803494    1.945346   -0.687236
     23          1           0       -3.469733    3.301949    0.337257
     24          1           0       -3.659116    2.647403   -1.295365
     25          1           0       -1.791594    1.323012   -0.492114
     26          1           0       -2.463329    1.275624    1.147531
     27          1           0       -4.777391    0.071005    1.434717
     28          1           0       -5.561114   -0.362297   -0.098053
     29          1           0       -3.843282   -1.925802   -0.082999
     30          1           0       -2.082800   -2.842919   -1.283340
     31          1           0       -2.626635   -1.448087   -2.219966
     32          1           0       -0.653425   -0.135930   -1.447936
     33          1           0       -0.108873   -1.664257   -2.132490
     34          1           0        0.066606   -2.667793    0.087199
     35          1           0       -0.695822    0.044371    1.232800
     36          1           0       -0.236549   -1.389888    2.145156
     37          1           0       -2.746297   -1.077066    2.066336
     38          1           0       -2.209872   -2.616595    1.415970
     39          1           0        3.078819    2.384066   -0.172435
     40          1           0        5.545837    2.775671   -0.103938
     41          1           0        7.091759    0.841640    0.104229
     42          1           0        6.183402   -1.465123    0.242779
     43          1           0        3.726014   -1.836110    0.173306
 ---------------------------------------------------------------------

 SCF Done:  E(UB3LYP) =  -867.187624354     A.U. after   33 cycles
 SCF Done:  E(UB3LYP) =  -867.187624353     a.u. after    1 cycles

 The electronic state is 2-A.
 Alpha  occ. eigenvalues --  -19.02910 -18.95721 -14.20434 -10.14510 -10.12167
 Alpha  occ. eigenvalues --  -10.10224 -10.09776 -10.09012 -10.07879 -10.07542
 Alpha  occ. eigenvalues --  -10.07158 -10.06743 -10.06058 -10.05953 -10.04860
 Alpha  occ. eigenvalues --  -10.04792 -10.04238 -10.04042 -10.04012 -10.03852
 Alpha  occ. eigenvalues --   -0.96609  -0.87706  -0.83784  -0.73403  -0.72681
 Alpha  occ. eigenvalues --   -0.68395  -0.64797  -0.63846  -0.62994  -0.62027
 Alpha  occ. eigenvalues --   -0.61683  -0.54732  -0.52054  -0.50382  -0.49078
 Alpha  occ. eigenvalues --   -0.48457  -0.47475  -0.45742  -0.43227  -0.40771
 Alpha  occ. eigenvalues --   -0.39624  -0.38361  -0.37693  -0.35643  -0.35272
 Alpha  occ. eigenvalues --   -0.34742  -0.33589  -0.33478  -0.32600  -0.31911
 Alpha  occ. eigenvalues --   -0.31009  -0.30455  -0.30321  -0.29849  -0.28401
 Alpha  occ. eigenvalues --   -0.28174  -0.27610  -0.26382  -0.25995  -0.25497
 Alpha  occ. eigenvalues --   -0.25181  -0.24134  -0.23855  -0.23157  -0.22946
 Alpha  occ. eigenvalues --   -0.22349  -0.21825  -0.21742  -0.20277  -0.17366
 Alpha  occ. eigenvalues --   -0.13650  -0.13379  -0.13221  -0.11721   0.04283
 Alpha virt. eigenvalues --    0.05500   0.06795   0.07568   0.07923   0.08222
 Alpha virt. eigenvalues --    0.09093   0.09300   0.09489   0.09829   0.10395
 Alpha virt. eigenvalues --    0.10946   0.11010   0.11597   0.11957   0.12134

  Beta  occ. eigenvalues --  -19.02841 -18.95485 -14.20432 -10.14283 -10.12168
  Beta  occ. eigenvalues --  -10.10217 -10.09759 -10.09010 -10.07871 -10.07540
  Beta  occ. eigenvalues --  -10.07147 -10.06735 -10.06055 -10.05943 -10.04903
  Beta  occ. eigenvalues --  -10.04833 -10.04119 -10.03894 -10.03756 -10.03698
  Beta  occ. eigenvalues --   -0.96353  -0.87337  -0.83775  -0.73333  -0.72430
  Beta  occ. eigenvalues --   -0.68360  -0.64781  -0.63570  -0.62972  -0.61779
  Beta  occ. eigenvalues --   -0.61468  -0.54564  -0.52017  -0.50162  -0.48985
  Beta  occ. eigenvalues --   -0.48231  -0.47346  -0.45708  -0.43087  -0.40691
  Beta  occ. eigenvalues --   -0.39611  -0.38308  -0.37623  -0.35381  -0.35241
  Beta  occ. eigenvalues --   -0.34616  -0.33468  -0.33124  -0.32438  -0.31840
  Beta  occ. eigenvalues --   -0.30893  -0.30334  -0.30060  -0.29799  -0.28356
  Beta  occ. eigenvalues --   -0.28092  -0.27226  -0.26310  -0.25960  -0.25472
  Beta  occ. eigenvalues --   -0.25128  -0.23947  -0.23390  -0.23086  -0.22784
  Beta  occ. eigenvalues --   -0.22315  -0.21691  -0.21459  -0.20197  -0.16655
  Beta  occ. eigenvalues --   -0.13419  -0.12691  -0.11857  -0.11697
  Beta virt. eigenvalues --    0.05998   0.06976   0.07659   0.07948   0.08334
  Beta virt. eigenvalues --    0.09023   0.09044   0.09320   0.09500   0.09866
  Beta virt. eigenvalues --    0.10418   0.10973   0.11246   0.11630   0.11960

 Mulliken charges and spin densities:
               1          2
     1  C   -0.161107  -0.212497
     2  C   -0.231371  -0.195079
     3  C   -0.344174   0.046319
     4  N    0.263724   0.007896
     5  C    0.391972  -0.574418
     6  C   -0.369858   0.498777
     7  C   -0.317613  -0.468631
     8  C    0.050332   0.221187
     9  C   -0.448895  -0.176064
    10  C    0.113353   0.195560
    11  C    0.065693  -0.829974
    12  O    0.155484   0.013824
    13  C   -0.179893   0.138001
    14  O   -0.255195   0.086508
    15  C    0.459337   0.060938
    16  C   -0.219619   0.135902
    17  C   -0.518852  -0.024441
    18  C   -0.328928   0.220524
    19  C   -0.302847  -0.034197
    20  C   -0.380923   0.129131
    21  H    0.015342   0.113530
    22  H    0.035635   0.102691
    23  H    0.131247   0.004119
    24  H    0.108486   0.038769
    25  H    0.171153   0.007706
    26  H    0.132665  -0.027942
    27  H    0.040047   0.070689
    28  H   -0.203368   0.339403
    29  H   -0.256106   0.450917
    30  H    0.004861   0.122921
    31  H    0.126233   0.049918
    32  H    0.129445   0.045282
    33  H    0.127696   0.046662
    34  H    0.137562   0.018668
    35  H    0.141703   0.032818
    36  H    0.196608  -0.007077
    37  H   -0.001484   0.149838
    38  H   -0.065847   0.217728
    39  H    0.146415  -0.005861
    40  H    0.125527   0.001562
    41  H    0.094770  -0.018122
    42  H    0.132042   0.001825
    43  H    0.088749   0.004688
 Sum of Mulliken charges =  -1.00000   1.00000

 Dipole moment (field-independent basis, Debye):
    X=             -2.6003    Y=             -0.2192    Z=              0.2830  Tot=              2.6248
 Quadrupole moment (field-independent basis, Debye-Ang):
   XX=           -220.0408   YY=           -144.0139   ZZ=           -139.9796
   XY=            -10.6132   XZ=              0.4813   YZ=              0.6327

 Summary of Natural Population Analysis:

                                       Natural Population
                Natural  -----------------------------------------------
    Atom  No    Charge         Core      Valence    Rydberg      Total
 -----------------------------------------------------------------------
      C    1   -0.19650      0.99964     2.18885    0.00801     3.19650
      C    2   -0.19097      0.99964     2.18418    0.00715     3.19097
      C    3   -0.08924      0.99962     2.08069    0.00892     3.08924
      N    4   -0.28673      0.99970     2.77354    0.01350     3.78673
      C    5   -0.08223      0.99963     2.07128    0.01131     3.08223
      C    6   -0.00109      0.99957     1.98684    0.01468     3.00109
      C    7   -0.18993      0.99960     2.18097    0.00935     3.18993
      C    8   -0.20818      0.99959     2.19968    0.00890     3.20818
      C    9    0.07041      0.99950     1.91614    0.01395     2.92959
      C   10   -0.21062      0.99959     2.20200    0.00902     3.21062
      C   11   -0.19970      0.99961     2.19133    0.00876     3.19970
      O   12   -0.28373      0.99986     3.27556    0.00831     4.28373
      C   13    0.42906      0.99963     1.54788    0.02344     2.57094
      O   14   -0.30850      0.99987     3.30391    0.00472     4.30850
      C   15   -0.05326      0.99946     2.04444    0.00936     3.05326
      C   16   -0.05888      0.99954     2.05070    0.00863     3.05888
      C   17   -0.12380      0.99958     2.11480    0.00943     3.12380
      C   18   -0.05193      0.99958     2.04272    0.00963     3.05193
      C   19   -0.12473      0.99958     2.11567    0.00948     3.12473
      C   20   -0.06317      0.99954     2.05538    0.00824     3.06317
      H   21    0.09536      0.00000     0.40365    0.00100     0.40464
      H   22    0.09728      0.00000     0.40174    0.00098     0.40272
      H   23    0.09650      0.00000     0.40253    0.00097     0.40350
      H   24    0.09706      0.00000     0.40167    0.00127     0.40294
      H   25    0.11012      0.00000     0.38858    0.00130     0.38988
      H   26    0.07626      0.00000     0.42171    0.00204     0.42374
      H   27    0.07715      0.00000     0.42125    0.00159     0.42285
      H   28    0.09520      0.00000     0.40334    0.00145     0.40480
      H   29    0.09649      0.00000     0.40152    0.00199     0.40351
      H   30    0.09260      0.00000     0.40640    0.00100     0.40740
      H   31    0.10384      0.00000     0.39487    0.00128     0.39616
      H   32    0.11160      0.00000     0.38700    0.00140     0.38840
      H   33    0.10009      0.00000     0.39894    0.00097     0.39991
      H   34    0.08563      0.00000     0.41307    0.00131     0.41437
      H   35    0.11413      0.00000     0.38446    0.00140     0.38587
      H   36    0.09941      0.00000     0.39965    0.00094     0.40059
      H   37    0.10094      0.00000     0.39799    0.00107     0.39906
      H   38    0.09704      0.00000     0.40190    0.00106     0.40296
      H   39    0.10523      0.00000     0.39371    0.00106     0.39477
      H   40    0.09149      0.00000     0.40747    0.00104     0.40851
      H   41    0.08710      0.00000     0.41188    0.00102     0.41290
      H   42    0.09120      0.00000     0.40774    0.00106     0.40880
      H   43    0.10199      0.00000     0.39711    0.00090     0.39801
 =======================================================================
   * Total *    0.00000     19.99234    53.77478    0.23288    74.00000

 Normal termination of Gaussian 16 at Mon Dec 14 15:45:45 2020.
