 Gaussian 16, Revision A.03,

 -----------------------------------------------------------
 # opt freq B3LYP/6-31G(d) empiricaldispersion=gd3bj scf=xqc
 -----------------------------------------------------------

 -------------------------------
 CID_103949900_JID_3147_neutraal
 -------------------------------
 Symbolic Z-matrix:
 Charge =  0 Multiplicity = 1

 SCF Done:  E(RB3LYP) =  -615.007914439     A.U. after   14 cycles
 SCF Done:  E(RB3LYP) =  -614.998139464     A.U. after   14 cycles
 SCF Done:  E(RB3LYP) =  -615.009860868     A.U. after   12 cycles
 SCF Done:  E(RB3LYP) =  -615.005349056     A.U. after   14 cycles
 SCF Done:  E(RB3LYP) =  -615.011908508     A.U. after   12 cycles
 SCF Done:  E(RB3LYP) =  -615.011348588     A.U. after   12 cycles
 SCF Done:  E(RB3LYP) =  -615.011957940     A.U. after   12 cycles
 SCF Done:  E(RB3LYP) =  -615.012890704     A.U. after   12 cycles
 SCF Done:  E(RB3LYP) =  -615.012893131     A.U. after   11 cycles
 SCF Done:  E(RB3LYP) =  -615.012964321     A.U. after   10 cycles
 SCF Done:  E(RB3LYP) =  -615.012959716     A.U. after    9 cycles
 SCF Done:  E(RB3LYP) =  -615.012978594     A.U. after    9 cycles
 SCF Done:  E(RB3LYP) =  -615.012985388     A.U. after    8 cycles
 SCF Done:  E(RB3LYP) =  -615.012986892     A.U. after    8 cycles
 SCF Done:  E(RB3LYP) =  -615.012987503     A.U. after    9 cycles
 SCF Done:  E(RB3LYP) =  -615.012987699     A.U. after    7 cycles
 Optimization completed.
    -- Stationary point found.
 Normal termination of Gaussian 16 at Wed Dec  9 22:32:55 2020.

 --------------------------------------------------------------------
 #N Geom=AllCheck Guess=TCheck SCRF=Check GenChk RB3LYP/6-31G(d) Freq
 --------------------------------------------------------------------

 Structure from the checkpoint file:  "JID_3147.chk"
 -------------------------------
 CID_103949900_JID_3147_neutraal
 -------------------------------
 Charge =  0 Multiplicity = 1

 SCF Done:  E(RB3LYP) =  -615.012987699     A.U. after    1 cycles

  Exact polarizability: 130.599   3.996 113.733  -3.837  -0.451  96.367
 Approx polarizability: 161.755   6.805 166.009  -5.393  -8.017 146.945

                      1                      2                      3
                      A                      A                      A
 Frequencies --     38.8647                45.4537                83.3557
 Red. masses --      3.7543                 3.8806                 2.6656
 Frc consts  --      0.0033                 0.0047                 0.0109
 IR Inten    --      5.2527                 2.2652                 0.6011

                      4                      5                      6
                      A                      A                      A
 Frequencies --    114.5176               152.2712               187.6437
 Red. masses --      5.4185                 5.5482                 3.9299
 Frc consts  --      0.0419                 0.0758                 0.0815
 IR Inten    --      5.0325                 3.2383                 5.1808

                      7                      8                      9
                      A                      A                      A
 Frequencies --    196.1766               214.0258               224.9123
 Red. masses --      3.6746                 1.1547                 1.2505
 Frc consts  --      0.0833                 0.0312                 0.0373
 IR Inten    --      6.4171                 1.2066               208.1080

                     10                     11                     12
                      A                      A                      A
 Frequencies --    246.8401               264.5557               275.0571
 Red. masses --      2.5073                 1.9345                 1.2592
 Frc consts  --      0.0900                 0.0798                 0.0561
 IR Inten    --      2.7253                 1.4807                 0.1214

                     13                     14                     15
                      A                      A                      A
 Frequencies --    301.5783               307.3689               326.6771
 Red. masses --      1.3455                 2.3395                 2.2034
 Frc consts  --      0.0721                 0.1302                 0.1385
 IR Inten    --      0.5621                 3.0612                 5.6924

                     16                     17                     18
                      A                      A                      A
 Frequencies --    355.4400               368.8379               385.2658
 Red. masses --      2.3904                 2.5604                 2.4035
 Frc consts  --      0.1779                 0.2052                 0.2102
 IR Inten    --      3.5867                 3.8868                 2.0026

                     19                     20                     21
                      A                      A                      A
 Frequencies --    430.5432               447.8814               461.8888
 Red. masses --      2.4537                 2.9522                 2.1052
 Frc consts  --      0.2680                 0.3489                 0.2646
 IR Inten    --      1.1533                 1.4638                 1.0693

                     22                     23                     24
                      A                      A                      A
 Frequencies --    492.6214               537.3235               627.4024
 Red. masses --      1.7597                 2.7114                 2.1237
 Frc consts  --      0.2516                 0.4612                 0.4925
 IR Inten    --      3.3242                 9.6847                 2.9255

                     25                     26                     27
                      A                      A                      A
 Frequencies --    636.3241               667.2786               704.4029
 Red. masses --      1.8425                 1.4864                 1.9456
 Frc consts  --      0.4396                 0.3899                 0.5688
 IR Inten    --     15.2738                83.8878               153.7784

                     28                     29                     30
                      A                      A                      A
 Frequencies --    766.4588               804.5861               820.4142
 Red. masses --      2.6157                 2.2137                 2.8721
 Frc consts  --      0.9054                 0.8443                 1.1390
 IR Inten    --      8.2332                49.9001                12.1104

                     31                     32                     33
                      A                      A                      A
 Frequencies --    871.4018               892.3128               923.9274
 Red. masses --      1.7077                 2.2547                 2.0860
 Frc consts  --      0.7640                 1.0577                 1.0492
 IR Inten    --     13.1515                26.7450                 1.6051

                     34                     35                     36
                      A                      A                      A
 Frequencies --    946.9625               951.0900               970.2867
 Red. masses --      1.7261                 1.6720                 1.5877
 Frc consts  --      0.9120                 0.8911                 0.8807
 IR Inten    --      0.4258                 2.7960                16.0938

                     37                     38                     39
                      A                      A                      A
 Frequencies --    975.9153              1021.2713              1045.8820
 Red. masses --      1.4602                 2.0121                 1.4415
 Frc consts  --      0.8194                 1.2365                 0.9291
 IR Inten    --      7.9232                29.0879                 0.8776

                     40                     41                     42
                      A                      A                      A
 Frequencies --   1060.8380              1096.0450              1102.8340
 Red. masses --      1.6129                 1.6403                 1.9175
 Frc consts  --      1.0694                 1.1610                 1.3740
 IR Inten    --     12.0106                 9.3738                 3.2854

                     43                     44                     45
                      A                      A                      A
 Frequencies --   1120.2023              1150.6488              1195.6289
 Red. masses --      3.1965                 2.1579                 3.2346
 Frc consts  --      2.3633                 1.6834                 2.7244
 IR Inten    --     36.4074                48.5520                43.9447

                     46                     47                     48
                      A                      A                      A
 Frequencies --   1213.8458              1247.7641              1257.5734
 Red. masses --      1.3335                 1.8492                 1.5232
 Frc consts  --      1.1576                 1.6963                 1.4193
 IR Inten    --      6.4886                26.9356                13.2207

                     49                     50                     51
                      A                      A                      A
 Frequencies --   1276.1145              1294.0240              1315.4733
 Red. masses --      1.8229                 2.3966                 1.5250
 Frc consts  --      1.7491                 2.3644                 1.5549
 IR Inten    --      4.3212                 3.8490                58.9214

                     52                     53                     54
                      A                      A                      A
 Frequencies --   1337.1415              1365.2027              1389.4632
 Red. masses --      1.5156                 1.3566                 1.3625
 Frc consts  --      1.5966                 1.4896                 1.5498
 IR Inten    --     59.5992                 2.6312                 7.3304

                     55                     56                     57
                      A                      A                      A
 Frequencies --   1417.5143              1418.2356              1425.1193
 Red. masses --      1.3798                 1.2514                 1.5676
 Frc consts  --      1.6335                 1.4830                 1.8758
 IR Inten    --      4.4655                 7.9819                10.8084

                     58                     59                     60
                      A                      A                      A
 Frequencies --   1428.6436              1431.2037              1457.1163
 Red. masses --      1.2845                 1.2904                 1.2330
 Frc consts  --      1.5447                 1.5574                 1.5425
 IR Inten    --     10.0063                 5.2916                13.6285

                     61                     62                     63
                      A                      A                      A
 Frequencies --   1482.8820              1484.8094              1510.7029
 Red. masses --      1.1516                 1.1433                 1.0551
 Frc consts  --      1.4920                 1.4851                 1.4187
 IR Inten    --     43.3722                11.7461                 0.8986

                     64                     65                     66
                      A                      A                      A
 Frequencies --   1513.7793              1522.0269              1529.5976
 Red. masses --      1.0649                 1.0637                 1.0611
 Frc consts  --      1.4378                 1.4518                 1.4628
 IR Inten    --      3.2672                 4.2375                 2.5629

                     67                     68                     69
                      A                      A                      A
 Frequencies --   1533.7462              1537.7935              1546.2339
 Red. masses --      1.0615                 1.0591                 1.1822
 Frc consts  --      1.4712                 1.4756                 1.6653
 IR Inten    --      2.9662                 1.2833                27.6710

                     70                     71                     72
                      A                      A                      A
 Frequencies --   1551.0466              1559.9561              1646.4455
 Red. masses --      1.0694                 1.0906                 1.2705
 Frc consts  --      1.5158                 1.5637                 2.0293
 IR Inten    --      8.3889                 8.8567                89.9058

                     73                     74                     75
                      A                      A                      A
 Frequencies --   1775.7832              2986.8108              3002.5238
 Red. masses --      8.1717                 1.0744                 1.0817
 Frc consts  --     15.1825                 5.6471                 5.7453
 IR Inten    --    332.7038                96.4233                19.6350

                     76                     77                     78
                      A                      A                      A
 Frequencies --   3007.2804              3035.6310              3041.0828
 Red. masses --      1.0680                 1.0377                 1.0380
 Frc consts  --      5.6906                 5.6342                 5.6560
 IR Inten    --     47.4111                23.7269                32.3462

                     79                     80                     81
                      A                      A                      A
 Frequencies --   3057.3569              3060.1033              3068.8722
 Red. masses --      1.0491                 1.0565                 1.0947
 Frc consts  --      5.7777                 5.8292                 6.0744
 IR Inten    --     42.3244                21.1964                26.6463

                     82                     83                     84
                      A                      A                      A
 Frequencies --   3082.6667              3096.2989              3102.8651
 Red. masses --      1.0971                 1.1006                 1.0994
 Frc consts  --      6.1428                 6.2168                 6.2365
 IR Inten    --      5.9080                 5.3644                38.7930

                     85                     86                     87
                      A                      A                      A
 Frequencies --   3104.7725              3117.2615              3124.2590
 Red. masses --      1.0938                 1.1003                 1.0954
 Frc consts  --      6.2123                 6.2993                 6.2996
 IR Inten    --    133.5229                26.8613                16.8755

                     88                     89                     90
                      A                      A                      A
 Frequencies --   3133.7535              3157.1126              3520.8764
 Red. masses --      1.0996                 1.0994                 1.0736
 Frc consts  --      6.3624                 6.4562                 7.8415
 IR Inten    --     31.3852                24.1548                31.1349

                     91                     92                     93
                      A                      A                      A
 Frequencies --   3577.6774              3588.5283              3714.1783
 Red. masses --      1.0653                 1.0465                 1.1049
 Frc consts  --      8.0335                 7.9398                 8.9804
 IR Inten    --    388.2010                 8.0941                33.0984

 - Thermochemistry -
 -------------------
 Temperature   298.150 Kelvin.  Pressure   1.00000 Atm.
 Atom     1 has atomic number  6 and mass  12.00000

 Molecular mass:   188.15248 amu.
 Principal axes and moments of inertia in atomic units:
                           1         2         3
     Eigenvalues --  1530.879233460.704114148.82699
           X            0.99998   0.00564  -0.00301
           Y           -0.00558   0.99978   0.02028
           Z            0.00313  -0.02026   0.99979
 This molecule is an asymmetric top.
 Rotational symmetry number  1.
 Warning -- assumption of classical behavior for rotation
           may cause significant error
 Rotational temperatures (Kelvin)      0.05658     0.02503     0.02088
 Rotational constants (GHZ):           1.17889     0.52150     0.43500
 Zero-point vibrational energy     782718.8 (Joules/Mol)
                                  187.07428 (Kcal/Mol)
 Warning -- explicit consideration of  23 degrees of freedom as
           vibrations may cause significant error
 Vibrational temperatures:     55.92    65.40   119.93   164.77   219.08
          (Kelvin)            269.98   282.25   307.94   323.60   355.15
                              380.64   395.75   433.90   442.24   470.02
                              511.40   530.68   554.31   619.46   644.40
                              664.55   708.77   773.09   902.69   915.53
                              960.07  1013.48  1102.76  1157.62  1180.39
                             1253.75  1283.84  1329.33  1362.47  1368.41
                             1396.03  1404.12  1469.38  1504.79  1526.31
                             1576.96  1586.73  1611.72  1655.53  1720.24
                             1746.45  1795.25  1809.37  1836.04  1861.81
                             1892.67  1923.85  1964.22  1999.13  2039.49
                             2040.52  2050.43  2055.50  2059.18  2096.47
                             2133.54  2136.31  2173.56  2177.99  2189.86
                             2200.75  2206.72  2212.54  2224.69  2231.61
                             2244.43  2368.87  2554.96  4297.35  4319.96
                             4326.81  4367.60  4375.44  4398.85  4402.81
                             4415.42  4435.27  4454.88  4464.33  4467.08
                             4485.04  4495.11  4508.77  4542.38  5065.76
                             5147.48  5163.09  5343.87

 Zero-point correction=                           0.298122 (Hartree/Particle)
 Thermal correction to Energy=                    0.313354
 Thermal correction to Enthalpy=                  0.314298
 Thermal correction to Gibbs Free Energy=         0.256697
 Sum of electronic and zero-point Energies=           -614.714866
 Sum of electronic and thermal Energies=              -614.699634
 Sum of electronic and thermal Enthalpies=            -614.698690
 Sum of electronic and thermal Free Energies=         -614.756291

                     E (Thermal)             CV                S
                      KCal/Mol        Cal/Mol-Kelvin    Cal/Mol-Kelvin
 Total                  196.632             58.213            121.231
 Electronic               0.000              0.000              0.000
 Translational            0.889              2.981             41.602
 Rotational               0.889              2.981             31.464
 Vibrational            194.855             52.252             48.165
 Vibration     1          0.594              1.981              5.316
 Vibration     2          0.595              1.979              5.006
 Vibration     3          0.600              1.961              3.810
 Vibration     4          0.607              1.937              3.191
 Vibration     5          0.619              1.900              2.644
 Vibration     6          0.632              1.857              2.251
 Vibration     7          0.636              1.845              2.169
 Vibration     8          0.644              1.820              2.009
 Vibration     9          0.650              1.803              1.919
 Vibration    10          0.661              1.768              1.753
 Vibration    11          0.671              1.738              1.632
 Vibration    12          0.677              1.719              1.564
 Vibration    13          0.694              1.671              1.408
 Vibration    14          0.697              1.660              1.376
 Vibration    15          0.710              1.622              1.276
 Vibration    16          0.731              1.564              1.142
 Vibration    17          0.741              1.536              1.085
 Vibration    18          0.754              1.502              1.018
 Vibration    19          0.792              1.404              0.857
 Vibration    20          0.807              1.366              0.802
 Vibration    21          0.820              1.335              0.761
 Vibration    22          0.848              1.266              0.677
 Vibration    23          0.892              1.167              0.571

                           ! Non-Optimized Parameters !
 Normal termination of Gaussian 16 at Wed Dec  9 22:42:33 2020.

 ----------------------------------------------------------------------
 # B3LYP/6-311++G(d,p) empiricaldispersion=gd3bj scf=xqc pop=npa geom=c
 heck
 ----------------------------------------------------------------------

 ---------------------------------------
 CID_103949900_JID_3147_Energie_neutraal
 ---------------------------------------
 Structure from the checkpoint file:  "JID_3147.chk"
 Charge =  0 Multiplicity = 1

 SCF Done:  E(RB3LYP) =  -615.210397079     A.U. after   15 cycles
 Normal termination of Gaussian 16 at Wed Dec  9 22:48:25 2020.

 ----------------------------------------------------------------------
 # B3LYP/6-311++G(d,p) empiricaldispersion=gd3bj scf=xqc pop=npa geom=c
 heck
 ----------------------------------------------------------------------

 -------------------------------------
 CID_103949900_JID_3147_Energie_kation
 -------------------------------------
 Structure from the checkpoint file:  "JID_3147.chk"
 Charge =  1 Multiplicity = 2

 SCF Done:  E(UB3LYP) =  -614.916820368     A.U. after   21 cycles
 Normal termination of Gaussian 16 at Wed Dec  9 22:58:30 2020.
 Gaussian 16:  ES64L-G16RevA.03 25-Dec-2016

 ----------------------------------------------------------------------
 # B3LYP/6-311++G(d,p) empiricaldispersion=gd3bj scf=xqc pop=npa geom=c
 heck
 ----------------------------------------------------------------------

 ------------------------------------
 CID_103949900_JID_3147_Energie_anion
 ------------------------------------
 Structure from the checkpoint file:  "JID_3147.chk"
 Charge = -1 Multiplicity = 2

                         Standard orientation:
 ---------------------------------------------------------------------
 Center     Atomic      Atomic             Coordinates (Angstroms)
 Number     Number       Type             X           Y           Z
 ---------------------------------------------------------------------
      1          6           0        2.403992    0.244719   -1.285800
      2          6           0        2.094147   -0.488578    0.033187
      3          6           0        2.411968   -1.982379   -0.168982
      4          6           0        2.997346    0.056517    1.152072
      5          6           0        0.585442   -0.382704    0.437925
      6          6           0        0.149177    0.916812    1.159179
      7          6           0        0.218385    2.230579    0.369488
      8          8           0       -0.404523    2.182649   -0.907520
      9          7           0       -0.246729   -0.735465   -0.725308
     10          6           0       -1.522148   -1.352528   -0.467319
     11          6           0       -2.684312   -0.439792   -0.032331
     12          8           0       -2.745584    0.759605   -0.298983
     13          7           0       -3.692163   -1.068673    0.628237
     14          1           0        3.471425    0.149312   -1.518404
     15          1           0        2.161996    1.309101   -1.247370
     16          1           0        1.840247   -0.195683   -2.112820
     17          1           0        3.436620   -2.116624   -0.535222
     18          1           0        2.318436   -2.537920    0.773222
     19          1           0        1.722794   -2.419866   -0.897137
     20          1           0        2.907539    1.141832    1.265574
     21          1           0        2.761744   -0.406142    2.118989
     22          1           0        4.047527   -0.163915    0.927965
     23          1           0        0.428652   -1.185546    1.173905
     24          1           0       -0.883216    0.773840    1.498106
     25          1           0        0.743701    1.042022    2.072605
     26          1           0       -0.222130    3.030376    0.987671
     27          1           0        1.259057    2.513734    0.186262
     28          1           0       -1.317920    1.858446   -0.764874
     29          1           0       -0.352272    0.087174   -1.314104
     30          1           0       -1.873569   -1.842592   -1.389182
     31          1           0       -1.389213   -2.152601    0.272170
     32          1           0       -3.678263   -2.060335    0.812453
     33          1           0       -4.534037   -0.549562    0.837195
 ---------------------------------------------------------------------

 SCF Done:  E(UB3LYP) =  -615.204647117     A.U. after   31 cycles

 The electronic state is 2-A.
 Alpha  occ. eigenvalues --  -19.00836 -18.99726 -14.22680 -14.19038 -10.17627
 Alpha  occ. eigenvalues --  -10.11559 -10.10093 -10.09968 -10.08715 -10.06829
 Alpha  occ. eigenvalues --  -10.06509 -10.05896 -10.05702  -0.94526  -0.91221
 Alpha  occ. eigenvalues --   -0.80991  -0.80143  -0.72135  -0.66052  -0.61307
 Alpha  occ. eigenvalues --   -0.59314  -0.58770  -0.55570  -0.50721  -0.48293
 Alpha  occ. eigenvalues --   -0.44484  -0.43503  -0.40753  -0.38879  -0.37647
 Alpha  occ. eigenvalues --   -0.36810  -0.35666  -0.34963  -0.34082  -0.32950
 Alpha  occ. eigenvalues --   -0.32353  -0.31246  -0.30447  -0.29552  -0.29021
 Alpha  occ. eigenvalues --   -0.27419  -0.26884  -0.26458  -0.26190  -0.23688
 Alpha  occ. eigenvalues --   -0.22872  -0.22428  -0.21126  -0.17723  -0.17329
 Alpha  occ. eigenvalues --   -0.17056  -0.12015   0.04233
 Alpha virt. eigenvalues --    0.06294   0.07736   0.08306   0.08804   0.09268
 Alpha virt. eigenvalues --    0.09618   0.10096   0.10628   0.11202   0.11484
 Alpha virt. eigenvalues --    0.12120   0.12958   0.13212   0.13840   0.13887

  Beta  occ. eigenvalues --  -19.00835 -18.99716 -14.22568 -14.19036 -10.17623
  Beta  occ. eigenvalues --  -10.11556 -10.10048 -10.09959 -10.08715 -10.06817
  Beta  occ. eigenvalues --  -10.06500 -10.05891 -10.05690  -0.94500  -0.91216
  Beta  occ. eigenvalues --   -0.80964  -0.80011  -0.72122  -0.66031  -0.61242
  Beta  occ. eigenvalues --   -0.59296  -0.58744  -0.55529  -0.50681  -0.48146
  Beta  occ. eigenvalues --   -0.44453  -0.43414  -0.40729  -0.38855  -0.37607
  Beta  occ. eigenvalues --   -0.36765  -0.35644  -0.34943  -0.34060  -0.32932
  Beta  occ. eigenvalues --   -0.32329  -0.31211  -0.30421  -0.29527  -0.29002
  Beta  occ. eigenvalues --   -0.27405  -0.26871  -0.26431  -0.26167  -0.23677
  Beta  occ. eigenvalues --   -0.22860  -0.22413  -0.21109  -0.17653  -0.17286
  Beta  occ. eigenvalues --   -0.17043  -0.12003
  Beta virt. eigenvalues --    0.06244   0.07767   0.07942   0.08567   0.09276
  Beta virt. eigenvalues --    0.09474   0.10020   0.10374   0.11053   0.11460
  Beta virt. eigenvalues --    0.11526   0.12877   0.13032   0.13506   0.13920

 Mulliken charges and spin densities:
               1          2
     1  C   -0.695394   0.022598
     2  C   -0.312962   1.122825
     3  C    0.090920  -0.662795
     4  C   -0.141303  -0.514250
     5  C    0.133107  -0.506079
     6  C   -0.322398   0.036559
     7  C   -0.268997  -0.316688
     8  O   -0.288701   0.001155
     9  N   -0.073353   0.058439
    10  C    1.567809  -1.992168
    11  C    0.759932  -0.680754
    12  O   -0.380055  -0.020621
    13  N   -0.484936   0.245097
    14  H    0.088124   0.060682
    15  H    0.118003   0.025061
    16  H    0.087410   0.051998
    17  H    0.057173   0.075141
    18  H   -0.061365   0.189992
    19  H    0.130582   0.038900
    20  H    0.102729   0.022064
    21  H   -0.049500   0.204823
    22  H    0.043157   0.092743
    23  H    0.049537   0.149086
    24  H   -0.158587   0.375901
    25  H   -0.024786   0.152234
    26  H    0.088486   0.051071
    27  H    0.129682   0.022744
    28  H    0.331777  -0.013397
    29  H    0.263835  -0.062602
    30  H   -0.212363   0.418910
    31  H   -0.402113   0.598065
    32  H   -0.648859   0.935890
    33  H   -0.516590   0.817376
 Sum of Mulliken charges =  -1.00000   1.00000

 Dipole moment (field-independent basis, Debye):
    X=              9.2136    Y=              4.9975    Z=             -2.0323  Tot=             10.6769
 Quadrupole moment (field-independent basis, Debye-Ang):
   XX=           -159.8363   YY=           -130.3137   ZZ=           -113.5221
   XY=            -15.8333   XZ=              8.9002   YZ=              9.6050

 Summary of Natural Population Analysis:

                                       Natural Population
                Natural  -----------------------------------------------
    Atom  No    Charge         Core      Valence    Rydberg      Total
 -----------------------------------------------------------------------
      C    1   -0.28830      0.99962     2.28261    0.00607     3.28830
      C    2   -0.04718      0.99957     2.03632    0.01129     3.04718
      C    3   -0.28533      0.99963     2.27830    0.00740     3.28533
      C    4   -0.28556      0.99963     2.28025    0.00569     3.28556
      C    5   -0.00263      0.99954     1.98701    0.01608     3.00263
      C    6   -0.21620      0.99960     2.20669    0.00991     3.21620
      C    7   -0.00893      0.99959     1.99824    0.01110     3.00893
      O    8   -0.39038      0.99990     3.38383    0.00665     4.39038
      N    9   -0.35406      0.99974     2.84193    0.01240     3.85406
      C   10   -0.12712      0.99958     2.11420    0.01334     3.12712
      C   11    0.33605      0.99969     1.64081    0.02345     2.66395
      O   12   -0.35078      0.99985     3.34384    0.00709     4.35078
      N   13   -0.39053      0.99970     2.88244    0.00838     3.89053
      H   14    0.09388      0.00000     0.40536    0.00076     0.40612
      H   15    0.10170      0.00000     0.39736    0.00094     0.39830
      H   16    0.10606      0.00000     0.39303    0.00091     0.39394
      H   17    0.09358      0.00000     0.40571    0.00072     0.40642
      H   18    0.09758      0.00000     0.40156    0.00086     0.40242
      H   19    0.10964      0.00000     0.38924    0.00111     0.39036
      H   20    0.09764      0.00000     0.40142    0.00094     0.40236
      H   21    0.10004      0.00000     0.39908    0.00088     0.39996
      H   22    0.09770      0.00000     0.40150    0.00080     0.40230
      H   23    0.09635      0.00000     0.40163    0.00202     0.40365
      H   24    0.10480      0.00000     0.39379    0.00141     0.39520
      H   25    0.10094      0.00000     0.39796    0.00111     0.39906
      H   26    0.07534      0.00000     0.42348    0.00119     0.42466
      H   27    0.07863      0.00000     0.42004    0.00133     0.42137
      H   28    0.24767      0.00000     0.24895    0.00338     0.25233
      H   29    0.18972      0.00000     0.30725    0.00303     0.31028
      H   30    0.10710      0.00000     0.39170    0.00120     0.39290
      H   31    0.10491      0.00000     0.39283    0.00226     0.39509
      H   32    0.20785      0.00000     0.24893    0.04322     0.29215
      H   33    0.19983      0.00000     0.29348    0.00669     0.30017
 =======================================================================
   * Total *    0.00000     12.99562    38.79078    0.21360    52.00000

 Normal termination of Gaussian 16 at Wed Dec  9 23:12:49 2020.
