 Gaussian 16, Revision A.03,

 -----------------------------------------------------------
 # opt freq B3LYP/6-31G(d) empiricaldispersion=gd3bj scf=xqc
 -----------------------------------------------------------

 -------------------------------
 CID_136498394_JID_3918_neutraal
 -------------------------------
 Symbolic Z-matrix:
 Charge =  0 Multiplicity = 1

 SCF Done:  E(RB3LYP) =  -696.438545089     A.U. after   17 cycles
 SCF Done:  E(RB3LYP) =  -696.454160143     A.U. after   14 cycles
 SCF Done:  E(RB3LYP) =  -696.456476964     A.U. after   13 cycles
 SCF Done:  E(RB3LYP) =  -696.458356647     A.U. after   13 cycles
 SCF Done:  E(RB3LYP) =  -696.459848076     A.U. after   13 cycles
 SCF Done:  E(RB3LYP) =  -696.460664899     A.U. after   13 cycles
 SCF Done:  E(RB3LYP) =  -696.460962686     A.U. after   12 cycles
 SCF Done:  E(RB3LYP) =  -696.461054479     A.U. after   11 cycles
 SCF Done:  E(RB3LYP) =  -696.461105135     A.U. after   10 cycles
 SCF Done:  E(RB3LYP) =  -696.461145287     A.U. after   12 cycles
 SCF Done:  E(RB3LYP) =  -696.461475948     A.U. after   11 cycles
 SCF Done:  E(RB3LYP) =  -696.461495193     A.U. after   10 cycles
 SCF Done:  E(RB3LYP) =  -696.461495864     A.U. after    9 cycles
 SCF Done:  E(RB3LYP) =  -696.461495668     A.U. after    9 cycles
 SCF Done:  E(RB3LYP) =  -696.461495999     A.U. after    9 cycles
 Optimization completed.
    -- Stationary point found.
 Normal termination of Gaussian 16 at Sun Dec 13 16:04:18 2020.

 --------------------------------------------------------------------
 #N Geom=AllCheck Guess=TCheck SCRF=Check GenChk RB3LYP/6-31G(d) Freq
 --------------------------------------------------------------------

 Structure from the checkpoint file:  "JID_3918.chk"
 -------------------------------
 CID_136498394_JID_3918_neutraal
 -------------------------------
 Charge =  0 Multiplicity = 1

 SCF Done:  E(RB3LYP) =  -696.461495999     A.U. after    1 cycles

  Exact polarizability: 126.952  -8.869 111.057  -1.371  -1.920  66.891
 Approx polarizability: 177.256 -18.806 195.246  -5.626  -2.912 102.501

                      1                      2                      3
                      A                      A                      A
 Frequencies --     53.2641                65.9887                91.3288
 Red. masses --      3.2582                 5.5227                 1.1401
 Frc consts  --      0.0054                 0.0142                 0.0056
 IR Inten    --      0.1407                 6.0273                 0.0447

                      4                      5                      6
                      A                      A                      A
 Frequencies --    113.4173               173.1692               198.9511
 Red. masses --      5.2273                 4.6771                 2.1306
 Frc consts  --      0.0396                 0.0826                 0.0497
 IR Inten    --      2.5390                 6.3852                 8.3164

                      7                      8                      9
                      A                      A                      A
 Frequencies --    216.9521               231.7832               264.2630
 Red. masses --      1.5513                 3.1619                 4.1596
 Frc consts  --      0.0430                 0.1001                 0.1711
 IR Inten    --     52.5431                 1.5208                 5.1623

                     10                     11                     12
                      A                      A                      A
 Frequencies --    285.9609               314.2923               357.6631
 Red. masses --      3.5016                 3.7687                 1.9766
 Frc consts  --      0.1687                 0.2193                 0.1490
 IR Inten    --      6.1389                 3.7349                49.3171

                     13                     14                     15
                      A                      A                      A
 Frequencies --    365.3729               385.6670               415.8999
 Red. masses --      4.1541                 4.3247                 2.7783
 Frc consts  --      0.3267                 0.3790                 0.2831
 IR Inten    --      9.1966                10.0288                27.0220

                     16                     17                     18
                      A                      A                      A
 Frequencies --    426.9432               458.5283               474.0365
 Red. masses --      8.3090                 2.9124                 1.4359
 Frc consts  --      0.8924                 0.3608                 0.1901
 IR Inten    --      3.8382                 4.7825                80.7720

                     19                     20                     21
                      A                      A                      A
 Frequencies --    491.4149               501.6302               548.9284
 Red. masses --      3.4970                 1.3050                 4.3953
 Frc consts  --      0.4976                 0.1935                 0.7803
 IR Inten    --     28.0487                64.5943                49.4807

                     22                     23                     24
                      A                      A                      A
 Frequencies --    607.7447               685.7738               701.5288
 Red. masses --      5.1003                 2.9327                 2.1086
 Frc consts  --      1.1099                 0.8126                 0.6114
 IR Inten    --      4.9535               146.6792               214.9611

                     25                     26                     27
                      A                      A                      A
 Frequencies --    742.7105               751.0346               801.4886
 Red. masses --      3.0526                 2.7615                 2.1999
 Frc consts  --      0.9921                 0.9177                 0.8326
 IR Inten    --     39.2862                37.5008               116.7378

                     28                     29                     30
                      A                      A                      A
 Frequencies --    811.0502               904.8985               996.8678
 Red. masses --      5.5339                 2.9546                 3.2592
 Frc consts  --      2.1448                 1.4254                 1.9082
 IR Inten    --     31.2841               132.0235                 9.2454

                     31                     32                     33
                      A                      A                      A
 Frequencies --   1029.0213              1083.2276              1113.2665
 Red. masses --      3.6860                 3.6506                 4.0257
 Frc consts  --      2.2996                 2.5238                 2.9396
 IR Inten    --     22.7664                12.4734                66.9522

                     34                     35                     36
                      A                      A                      A
 Frequencies --   1126.9795              1143.6962              1167.7293
 Red. masses --      3.5075                 1.3775                 1.4498
 Frc consts  --      2.6247                 1.0616                 1.1648
 IR Inten    --    222.5692                 2.2075                 5.5528

                     37                     38                     39
                      A                      A                      A
 Frequencies --   1186.0004              1217.3255              1240.4984
 Red. masses --      3.7944                 2.3090                 1.7781
 Frc consts  --      3.1446                 2.0160                 1.6122
 IR Inten    --     45.9502                 7.8306                27.6010

                     40                     41                     42
                      A                      A                      A
 Frequencies --   1254.0158              1285.3866              1309.8303
 Red. masses --      1.4966                 2.6955                 2.1829
 Frc consts  --      1.3867                 2.6239                 2.2065
 IR Inten    --     93.6222                70.5427               209.5434

                     43                     44                     45
                      A                      A                      A
 Frequencies --   1343.4393              1386.9319              1425.1252
 Red. masses --      1.5987                 2.2111                 1.3515
 Frc consts  --      1.7000                 2.5060                 1.6173
 IR Inten    --     12.3006                24.8743                 0.1980

                     46                     47                     48
                      A                      A                      A
 Frequencies --   1429.1760              1476.9508              1506.6724
 Red. masses --      1.2578                 1.1730                 2.2762
 Frc consts  --      1.5137                 1.5076                 3.0443
 IR Inten    --     12.2191                11.9676                75.9414

                     49                     50                     51
                      A                      A                      A
 Frequencies --   1516.2102              1528.5041              1539.7476
 Red. masses --      1.0469                 1.1924                 1.1197
 Frc consts  --      1.4180                 1.6414                 1.5640
 IR Inten    --      3.3224                26.5929                70.1463

                     52                     53                     54
                      A                      A                      A
 Frequencies --   1619.0802              1688.8269              1712.1989
 Red. masses --      1.3611                 1.1115                 6.7284
 Frc consts  --      2.1023                 1.8677                11.6218
 IR Inten    --     94.3890                28.6539               130.2711

                     55                     56                     57
                      A                      A                      A
 Frequencies --   1752.9749              2973.8320              3028.9375
 Red. masses --      8.6633                 1.0816                 1.0357
 Frc consts  --     15.6850                 5.6359                 5.5985
 IR Inten    --    190.0328                47.1510                54.3380

                     58                     59                     60
                      A                      A                      A
 Frequencies --   3087.7825              3110.1254              3151.3873
 Red. masses --      1.1023                 1.1001                 1.0853
 Frc consts  --      6.1920                 6.2695                 6.3506
 IR Inten    --     33.9605                22.1050                 9.9110

                     61                     62                     63
                      A                      A                      A
 Frequencies --   3357.5570              3498.1518              3504.7197
 Red. masses --      1.0641                 1.0493                 1.0490
 Frc consts  --      7.0677                 7.5654                 7.5914
 IR Inten    --    117.1753                 2.4559                34.5188

                     64                     65                     66
                      A                      A                      A
 Frequencies --   3596.3689              3645.6579              3731.8774
 Red. masses --      1.0946                 1.0960                 1.0657
 Frc consts  --      8.3412                 8.5827                 8.7442
 IR Inten    --      3.4129                51.9621                43.3718

 - Thermochemistry -
 -------------------
 Temperature   298.150 Kelvin.  Pressure   1.00000 Atm.
 Atom     1 has atomic number  6 and mass  12.00000

 Molecular mass:   189.08619 amu.
 Principal axes and moments of inertia in atomic units:
                           1         2         3
     Eigenvalues --  1744.314292360.866323522.53858
           X            0.99739  -0.07206  -0.00509
           Y            0.07200   0.99735  -0.01050
           Z            0.00583   0.01011   0.99993
 This molecule is an asymmetric top.
 Rotational symmetry number  1.
 Warning -- assumption of classical behavior for rotation
           may cause significant error
 Rotational temperatures (Kelvin)      0.04965     0.03669     0.02459
 Rotational constants (GHZ):           1.03464     0.76444     0.51234
 Zero-point vibrational energy     503674.3 (Joules/Mol)
                                  120.38104 (Kcal/Mol)
 Warning -- explicit consideration of  22 degrees of freedom as
           vibrations may cause significant error
 Vibrational temperatures:     76.64    94.94   131.40   163.18   249.15
          (Kelvin)            286.25   312.15   333.48   380.22   411.43
                              452.20   514.60   525.69   554.89   598.39
                              614.28   659.72   682.03   707.04   721.73
                              789.79   874.41   986.68  1009.34  1068.59
                             1080.57  1153.16  1166.92  1301.95  1434.27
                             1480.53  1558.52  1601.74  1621.47  1645.52
                             1680.10  1706.39  1751.46  1784.80  1804.25
                             1849.38  1884.55  1932.91  1995.49  2050.44
                             2056.27  2125.00  2167.77  2181.49  2199.18
                             2215.35  2329.50  2429.85  2463.47  2522.14
                             4278.68  4357.97  4442.63  4474.78  4534.14
                             4830.78  5033.06  5042.51  5174.37  5245.29
                             5369.34

 Zero-point correction=                           0.191839 (Hartree/Particle)
 Thermal correction to Energy=                    0.205140
 Thermal correction to Enthalpy=                  0.206084
 Thermal correction to Gibbs Free Energy=         0.152552
 Sum of electronic and zero-point Energies=           -696.269657
 Sum of electronic and thermal Energies=              -696.256356
 Sum of electronic and thermal Enthalpies=            -696.255412
 Sum of electronic and thermal Free Energies=         -696.308944

                     E (Thermal)             CV                S
                      KCal/Mol        Cal/Mol-Kelvin    Cal/Mol-Kelvin
 Total                  128.727             49.948            112.666
 Electronic               0.000              0.000              0.000
 Translational            0.889              2.981             41.617
 Rotational               0.889              2.981             31.051
 Vibrational            126.950             43.987             39.998
 Vibration     1          0.596              1.976              4.692
 Vibration     2          0.597              1.970              4.270
 Vibration     3          0.602              1.955              3.631
 Vibration     4          0.607              1.938              3.210
 Vibration     5          0.627              1.875              2.401
 Vibration     6          0.637              1.841              2.143
 Vibration     7          0.646              1.815              1.984
 Vibration     8          0.653              1.792              1.865
 Vibration     9          0.671              1.738              1.633
 Vibration    10          0.684              1.700              1.498
 Vibration    11          0.702              1.646              1.340
 Vibration    12          0.733              1.560              1.132
 Vibration    13          0.739              1.544              1.099
 Vibration    14          0.754              1.501              1.017
 Vibration    15          0.779              1.436              0.906
 Vibration    16          0.789              1.412              0.869
 Vibration    17          0.817              1.342              0.770
 Vibration    18          0.831              1.308              0.726
 Vibration    19          0.847              1.269              0.680
 Vibration    20          0.857              1.246              0.654
 Vibration    21          0.904              1.142              0.546
 Vibration    22          0.967              1.015              0.437

 Optimization completed.
    -- Stationary point found.
 Normal termination of Gaussian 16 at Sun Dec 13 16:10:22 2020.

 ----------------------------------------------------------------------
 # B3LYP/6-311++G(d,p) empiricaldispersion=gd3bj scf=xqc pop=npa geom=c
 heck
 ----------------------------------------------------------------------

 ---------------------------------------
 CID_136498394_JID_3918_Energie_neutraal
 ---------------------------------------
 Structure from the checkpoint file:  "JID_3918.chk"
 Charge =  0 Multiplicity = 1

 SCF Done:  E(RB3LYP) =  -696.699498417     A.U. after   15 cycles
 Normal termination of Gaussian 16 at Sun Dec 13 16:12:25 2020.

 ----------------------------------------------------------------------
 # B3LYP/6-311++G(d,p) empiricaldispersion=gd3bj scf=xqc pop=npa geom=c
 heck
 ----------------------------------------------------------------------

 -------------------------------------
 CID_136498394_JID_3918_Energie_kation
 -------------------------------------
 Structure from the checkpoint file:  "JID_3918.chk"
 Charge =  1 Multiplicity = 2

 SCF Done:  E(UB3LYP) =  -696.417776095     A.U. after   25 cycles
 Normal termination of Gaussian 16 at Sun Dec 13 16:16:54 2020.
 Gaussian 16:  ES64L-G16RevA.03 25-Dec-2016

 ----------------------------------------------------------------------
 # B3LYP/6-311++G(d,p) empiricaldispersion=gd3bj scf=xqc pop=npa geom=c
 heck
 ----------------------------------------------------------------------

 ------------------------------------
 CID_136498394_JID_3918_Energie_anion
 ------------------------------------
 Structure from the checkpoint file:  "JID_3918.chk"
 Charge = -1 Multiplicity = 2

                         Standard orientation:
 ---------------------------------------------------------------------
 Center     Atomic      Atomic             Coordinates (Angstroms)
 Number     Number       Type             X           Y           Z
 ---------------------------------------------------------------------
      1          6           0        3.336764   -0.504718   -0.803810
      2          7           0        2.322792    0.468677   -0.459365
      3          6           0        1.161239    0.145472   -0.041737
      4          6           0        0.575240   -1.225178    0.246683
      5          7           0       -0.850437   -1.283110   -0.158558
      6          6           0       -1.569532   -0.196454   -0.320498
      7          6           0       -1.006151    1.188966   -0.236114
      8          7           0        0.318297    1.181211    0.386381
      9          8           0        0.888180    2.464215    0.190639
     10          8           0       -1.909771    1.974719    0.503599
     11          7           0       -2.870984   -0.342879   -0.713233
     12          8           0       -1.359010   -2.464547   -0.309321
     13          7           0        0.699197   -1.599800    1.640775
     14          1           0        3.746019   -0.255507   -1.788541
     15          1           0        2.991887   -1.546806   -0.833054
     16          1           0        4.163230   -0.436958   -0.085317
     17          1           0        1.051988   -1.989978   -0.365378
     18          1           0       -0.895396    1.608914   -1.250579
     19          1           0        1.737407    2.233631   -0.269394
     20          1           0       -1.577005    2.886928    0.464325
     21          1           0       -3.173947   -1.306968   -0.589849
     22          1           0       -3.496084    0.374990   -0.368299
     23          1           0        1.616093   -1.993693    1.829990
     24          1           0        0.563202   -0.786866    2.237621
 ---------------------------------------------------------------------

 SCF Done:  E(UB3LYP) =  -696.692268902     A.U. after   33 cycles
 SCF Done:  E(UB3LYP) =  -696.692268902     a.u. after    1 cycles

 The electronic state is 2-A.
 Alpha  occ. eigenvalues --  -19.05655 -19.03865 -18.96773 -14.31069 -14.28626
 Alpha  occ. eigenvalues --  -14.22593 -14.20789 -14.20090 -10.17692 -10.15203
 Alpha  occ. eigenvalues --  -10.15059 -10.14056 -10.09454  -1.00193  -0.97868
 Alpha  occ. eigenvalues --   -0.94518  -0.84557  -0.82737  -0.79924  -0.76850
 Alpha  occ. eigenvalues --   -0.71174  -0.64230  -0.60060  -0.57806  -0.51356
 Alpha  occ. eigenvalues --   -0.47632  -0.45562  -0.44131  -0.42049  -0.41181
 Alpha  occ. eigenvalues --   -0.40816  -0.38290  -0.37430  -0.36595  -0.34332
 Alpha  occ. eigenvalues --   -0.32882  -0.32202  -0.31498  -0.30831  -0.29437
 Alpha  occ. eigenvalues --   -0.27995  -0.24993  -0.22088  -0.21366  -0.20847
 Alpha  occ. eigenvalues --   -0.18696  -0.15427  -0.14066  -0.13209  -0.09093
 Alpha  occ. eigenvalues --    0.04456
 Alpha virt. eigenvalues --    0.06281   0.08052   0.08878   0.09307   0.09743
 Alpha virt. eigenvalues --    0.10071   0.10211   0.11139   0.11857   0.13213
 Alpha virt. eigenvalues --    0.13529   0.14005   0.15987   0.16630   0.17076

  Beta  occ. eigenvalues --  -19.05644 -19.03807 -18.96759 -14.31022 -14.28637
  Beta  occ. eigenvalues --  -14.22563 -14.20702 -14.20016 -10.17677 -10.15202
  Beta  occ. eigenvalues --  -10.15002 -10.13911 -10.09403  -1.00155  -0.97789
  Beta  occ. eigenvalues --   -0.94399  -0.84430  -0.82598  -0.79778  -0.76762
  Beta  occ. eigenvalues --   -0.71089  -0.64079  -0.59955  -0.57713  -0.51250
  Beta  occ. eigenvalues --   -0.47539  -0.45466  -0.43985  -0.41956  -0.41087
  Beta  occ. eigenvalues --   -0.40712  -0.38158  -0.37338  -0.36518  -0.34176
  Beta  occ. eigenvalues --   -0.32769  -0.32133  -0.31375  -0.30774  -0.29265
  Beta  occ. eigenvalues --   -0.27928  -0.24890  -0.21879  -0.21195  -0.20703
  Beta  occ. eigenvalues --   -0.18591  -0.15331  -0.13925  -0.13161  -0.08742
  Beta virt. eigenvalues --    0.07260   0.07426   0.08536   0.09154   0.09903
  Beta virt. eigenvalues --    0.10384   0.10679   0.10918   0.11661   0.11981
  Beta virt. eigenvalues --    0.13519   0.13777   0.14393   0.16028   0.16812

 Mulliken charges and spin densities:
               1          2
     1  C    1.011599  -1.370482
     2  N   -0.453459   0.195876
     3  C   -0.381224   0.253533
     4  C   -0.515725  -0.103079
     5  N   -0.060406  -0.030216
     6  C   -0.235482   0.073622
     7  C    1.117793  -1.034868
     8  N   -0.174122   0.092728
     9  O   -0.119816   0.021558
    10  O   -0.233745  -0.003308
    11  N   -0.318059   0.094496
    12  O   -0.226954   0.008113
    13  N   -0.059370  -0.082009
    14  H   -0.055858   0.202487
    15  H   -0.324567   0.463516
    16  H   -0.461621   0.641107
    17  H    0.164910   0.047174
    18  H   -0.288534   0.527256
    19  H    0.310993  -0.003191
    20  H   -0.155163   0.437561
    21  H    0.238751   0.013181
    22  H    0.167084   0.097562
    23  H   -0.175449   0.439752
    24  H    0.228423   0.017633
 Sum of Mulliken charges =  -1.00000   1.00000

 Dipole moment (field-independent basis, Debye):
    X=             -2.6847    Y=              2.5671    Z=             -1.1411  Tot=              3.8858
 Quadrupole moment (field-independent basis, Debye-Ang):
   XX=           -126.5386   YY=           -128.4303   ZZ=            -99.2591
   XY=             11.1389   XZ=             -5.9578   YZ=              3.0625

 Summary of Natural Population Analysis:

                                       Natural Population
                Natural  -----------------------------------------------
    Atom  No    Charge         Core      Valence    Rydberg      Total
 -----------------------------------------------------------------------
      C    1   -0.18493      0.99963     2.17607    0.00922     3.18493
      N    2   -0.27188      0.99959     2.76000    0.01228     3.77188
      C    3    0.21879      0.99952     1.76393    0.01776     2.78121
      C    4    0.04927      0.99954     1.93404    0.01715     2.95073
      N    5   -0.00048      0.99952     2.48411    0.01685     3.50048
      C    6    0.21184      0.99956     1.77361    0.01499     2.78816
      C    7    0.13449      0.99953     1.84777    0.01820     2.86551
      N    8   -0.11129      0.99959     2.59819    0.01352     3.61129
      O    9   -0.29769      0.99991     3.28988    0.00790     4.29769
      O   10   -0.36766      0.99989     3.36110    0.00667     4.36766
      N   11   -0.39529      0.99970     2.88543    0.01015     3.89529
      O   12   -0.31957      0.99992     3.31125    0.00840     4.31957
      N   13   -0.40016      0.99975     2.89065    0.00976     3.90016
      H   14    0.09450      0.00000     0.40453    0.00097     0.40550
      H   15    0.08662      0.00000     0.41133    0.00205     0.41338
      H   16    0.10265      0.00000     0.39407    0.00329     0.39735
      H   17    0.11301      0.00000     0.38542    0.00156     0.38699
      H   18    0.08863      0.00000     0.40791    0.00346     0.41137
      H   19    0.24438      0.00000     0.25244    0.00318     0.25562
      H   20    0.24158      0.00000     0.24944    0.00898     0.25842
      H   21    0.20392      0.00000     0.29432    0.00175     0.29608
      H   22    0.19623      0.00000     0.30234    0.00143     0.30377
      H   23    0.18477      0.00000     0.31181    0.00341     0.31523
      H   24    0.17827      0.00000     0.31996    0.00177     0.32173
 =======================================================================
   * Total *   -0.00000     12.99566    36.80962    0.19471    50.00000

 Normal termination of Gaussian 16 at Sun Dec 13 16:22:52 2020.
