 Gaussian 16, Revision A.03,

 -----------------------------------------------------------
 # opt freq B3LYP/6-31G(d) empiricaldispersion=gd3bj scf=xqc
 -----------------------------------------------------------

 -------------------------------
 CID_113240471_JID_8765_neutraal
 -------------------------------
 Symbolic Z-matrix:
 Charge =  0 Multiplicity = 1

 SCF Done:  E(RB3LYP) =  -817.740463342     A.U. after   15 cycles
 SCF Done:  E(RB3LYP) =  -817.750355604     A.U. after   13 cycles
 SCF Done:  E(RB3LYP) =  -817.754397536     A.U. after   12 cycles
 SCF Done:  E(RB3LYP) =  -817.757016014     A.U. after   12 cycles
 SCF Done:  E(RB3LYP) =  -817.758245070     A.U. after   12 cycles
 SCF Done:  E(RB3LYP) =  -817.759748720     A.U. after   13 cycles
 SCF Done:  E(RB3LYP) =  -817.760931299     A.U. after   14 cycles
 SCF Done:  E(RB3LYP) =  -817.762459993     A.U. after   13 cycles
 SCF Done:  E(RB3LYP) =  -817.763446251     A.U. after   12 cycles
 SCF Done:  E(RB3LYP) =  -817.764564465     A.U. after   14 cycles
 SCF Done:  E(RB3LYP) =  -817.766330330     A.U. after    9 cycles
 SCF Done:  E(RB3LYP) =  -817.766331068     A.U. after    9 cycles
 SCF Done:  E(RB3LYP) =  -817.766331128     A.U. after    7 cycles
 SCF Done:  E(RB3LYP) =  -817.766331122     A.U. after    6 cycles
 SCF Done:  E(RB3LYP) =  -817.766331169     A.U. after    7 cycles
 Optimization completed.
    -- Stationary point found.
 Normal termination of Gaussian 16 at Fri Dec 11 22:43:57 2020.

 --------------------------------------------------------------------
 #N Geom=AllCheck Guess=TCheck SCRF=Check GenChk RB3LYP/6-31G(d) Freq
 --------------------------------------------------------------------

 Structure from the checkpoint file:  "JID_8765.chk"
 -------------------------------
 CID_113240471_JID_8765_neutraal
 -------------------------------
 Charge =  0 Multiplicity = 1

 SCF Done:  E(RB3LYP) =  -817.766331169     A.U. after    1 cycles

  Exact polarizability: 216.701 -13.302 165.326  21.401   4.847 108.471
 Approx polarizability: 282.200 -26.329 258.744  34.681  13.623 166.885

                      1                      2                      3
                      A                      A                      A
 Frequencies --     16.8468                24.3650                33.8998
 Red. masses --      5.3452                 3.9971                 4.4693
 Frc consts  --      0.0009                 0.0014                 0.0030
 IR Inten    --      0.5706                 0.4859                 1.4373

                      4                      5                      6
                      A                      A                      A
 Frequencies --     48.3685                59.0002                72.5334
 Red. masses --      3.2301                 3.1979                 1.5583
 Frc consts  --      0.0045                 0.0066                 0.0048
 IR Inten    --      0.1902                 1.4681                 2.0678

                      7                      8                      9
                      A                      A                      A
 Frequencies --     85.2207                92.4079               116.4996
 Red. masses --      2.2090                 2.9727                 1.6543
 Frc consts  --      0.0095                 0.0150                 0.0132
 IR Inten    --      1.5053                 0.5141                 3.6497

                     10                     11                     12
                      A                      A                      A
 Frequencies --    147.5658               184.5990               187.5157
 Red. masses --      2.5873                 3.9377                 3.0121
 Frc consts  --      0.0332                 0.0791                 0.0624
 IR Inten    --      9.7929                 2.4138                 2.3391

                     13                     14                     15
                      A                      A                      A
 Frequencies --    231.4434               251.2449               264.9423
 Red. masses --      3.4536                 3.8387                 2.7593
 Frc consts  --      0.1090                 0.1428                 0.1141
 IR Inten    --      4.1354                 5.9344                 2.0344

                     16                     17                     18
                      A                      A                      A
 Frequencies --    274.3053               299.7969               347.0738
 Red. masses --      3.3256                 3.6814                 2.8844
 Frc consts  --      0.1474                 0.1949                 0.2047
 IR Inten    --      2.3917                 0.3464                 3.2705

                     19                     20                     21
                      A                      A                      A
 Frequencies --    388.4157               420.2085               458.5103
 Red. masses --      2.4623                 1.5819                 3.4733
 Frc consts  --      0.2189                 0.1646                 0.4302
 IR Inten    --     14.9212                67.7285                 2.1394

                     22                     23                     24
                      A                      A                      A
 Frequencies --    466.5230               497.1150               517.4261
 Red. masses --      2.3449                 2.6164                 3.1663
 Frc consts  --      0.3007                 0.3810                 0.4995
 IR Inten    --     66.5161                 4.5687                17.7481

                     25                     26                     27
                      A                      A                      A
 Frequencies --    557.3716               563.8363               576.0874
 Red. masses --      4.0285                 4.1213                 2.9399
 Frc consts  --      0.7374                 0.7719                 0.5748
 IR Inten    --     11.3374                 0.3666                24.3073

                     28                     29                     30
                      A                      A                      A
 Frequencies --    637.8473               660.8282               713.9139
 Red. masses --      1.4712                 3.5155                 3.6655
 Frc consts  --      0.3526                 0.9045                 1.1007
 IR Inten    --     31.3823                 9.7209                 4.8326

                     31                     32                     33
                      A                      A                      A
 Frequencies --    744.9603               756.5964               762.8501
 Red. masses --      4.7792                 3.7513                 2.1465
 Frc consts  --      1.5627                 1.2652                 0.7360
 IR Inten    --      9.3199                17.4523                 9.8163

                     34                     35                     36
                      A                      A                      A
 Frequencies --    777.3577               801.9134               816.9588
 Red. masses --      1.4782                11.2471                 1.1849
 Frc consts  --      0.5263                 4.2613                 0.4660
 IR Inten    --     17.4551                33.3609                 1.6523

                     37                     38                     39
                      A                      A                      A
 Frequencies --    840.0803               863.4987               902.9766
 Red. masses --      1.6466                 2.1464                 2.8074
 Frc consts  --      0.6847                 0.9430                 1.3487
 IR Inten    --      8.9107                17.1034                 3.5499

                     40                     41                     42
                      A                      A                      A
 Frequencies --    927.4237               938.5622               956.4920
 Red. masses --      2.9801                 3.3472                 3.2915
 Frc consts  --      1.5102                 1.7372                 1.7742
 IR Inten    --      0.9264                 9.2543                83.4197

                     43                     44                     45
                      A                      A                      A
 Frequencies --    988.5900               995.3059              1047.6209
 Red. masses --      1.3795                 8.5576                 2.1536
 Frc consts  --      0.7943                 4.9948                 1.3926
 IR Inten    --      0.8116                 4.6858                34.5797

                     46                     47                     48
                      A                      A                      A
 Frequencies --   1073.4150              1093.8084              1099.5637
 Red. masses --      1.2652                 1.3821                 1.5291
 Frc consts  --      0.8589                 0.9743                 1.0892
 IR Inten    --      4.9123                 7.9718                13.8549

                     49                     50                     51
                      A                      A                      A
 Frequencies --   1100.7101              1119.3608              1126.5452
 Red. masses --      1.8020                 1.4227                 1.7761
 Frc consts  --      1.2863                 1.0503                 1.3280
 IR Inten    --     29.3109                 5.0925                49.3231

                     52                     53                     54
                      A                      A                      A
 Frequencies --   1133.5972              1136.9330              1140.9397
 Red. masses --      1.2323                 2.0570                 1.2347
 Frc consts  --      0.9330                 1.5666                 0.9470
 IR Inten    --      4.3403                 5.1168                 3.9741

                     55                     56                     57
                      A                      A                      A
 Frequencies --   1163.7840              1186.3711              1222.8623
 Red. masses --      2.7330                 1.3670                 1.3486
 Frc consts  --      2.1809                 1.1336                 1.1882
 IR Inten    --      7.7481                37.9854                 0.2438

                     58                     59                     60
                      A                      A                      A
 Frequencies --   1241.8284              1245.8949              1257.9802
 Red. masses --      2.1170                 1.9667                 1.7678
 Frc consts  --      1.9235                 1.7986                 1.6483
 IR Inten    --     17.5269                33.1848                44.5134

                     61                     62                     63
                      A                      A                      A
 Frequencies --   1286.1687              1307.8321              1312.9627
 Red. masses --      2.2835                 4.6658                 1.4352
 Frc consts  --      2.2256                 4.7020                 1.4577
 IR Inten    --    142.1717                21.8159               110.5344

                     64                     65                     66
                      A                      A                      A
 Frequencies --   1325.2804              1354.6481              1396.3597
 Red. masses --      1.8014                 2.0468                 1.9854
 Frc consts  --      1.8641                 2.2130                 2.2808
 IR Inten    --      9.3313                32.7084                96.8999

                     67                     68                     69
                      A                      A                      A
 Frequencies --   1402.6464              1413.4879              1456.3095
 Red. masses --      1.4907                 1.3195                 1.1607
 Frc consts  --      1.7279                 1.5532                 1.4504
 IR Inten    --      2.4512                42.9497                17.9273

                     70                     71                     72
                      A                      A                      A
 Frequencies --   1462.1689              1466.0589              1477.9185
 Red. masses --      1.4651                 1.6926                 1.0919
 Frc consts  --      1.8456                 2.1434                 1.4052
 IR Inten    --    188.6241                86.9796                 2.6944

                     73                     74                     75
                      A                      A                      A
 Frequencies --   1484.3851              1493.5213              1507.7983
 Red. masses --      1.7020                 1.2825                 1.4745
 Frc consts  --      2.2096                 1.6855                 1.9751
 IR Inten    --     86.3488                82.3422                73.6583

                     76                     77                     78
                      A                      A                      A
 Frequencies --   1514.5768              1516.6312              1518.3759
 Red. masses --      1.1004                 1.3224                 1.4380
 Frc consts  --      1.4872                 1.7922                 1.9533
 IR Inten    --     19.1191               107.8645                16.3079

                     79                     80                     81
                      A                      A                      A
 Frequencies --   1529.6059              1532.7819              1536.6895
 Red. masses --      1.1998                 1.1129                 1.1119
 Frc consts  --      1.6539                 1.5405                 1.5470
 IR Inten    --    101.4378                 8.4334                20.5831

                     82                     83                     84
                      A                      A                      A
 Frequencies --   1546.3076              1592.2441              1634.2192
 Red. masses --      2.3027                 2.0272                 5.1399
 Frc consts  --      3.2439                 3.0281                 8.0878
 IR Inten    --     64.8097               249.1701               543.4144

                     85                     86                     87
                      A                      A                      A
 Frequencies --   1654.1482              1771.8865              3003.6216
 Red. masses --      4.6196                 7.6093                 1.0547
 Frc consts  --      7.4474                14.0756                 5.6061
 IR Inten    --    423.5633               260.1080                47.6881

                     88                     89                     90
                      A                      A                      A
 Frequencies --   3013.3517              3071.9581              3080.2501
 Red. masses --      1.0541                 1.0673                 1.0911
 Frc consts  --      5.6395                 5.9340                 6.0992
 IR Inten    --    126.6674                21.3173                46.2590

                     91                     92                     93
                      A                      A                      A
 Frequencies --   3083.5963              3092.0875              3130.3332
 Red. masses --      1.0605                 1.0847                 1.1044
 Frc consts  --      5.9410                 6.1103                 6.3760
 IR Inten    --     41.2396                52.4127                 9.4453

                     94                     95                     96
                      A                      A                      A
 Frequencies --   3147.3406              3156.1233              3161.9033
 Red. masses --      1.0998                 1.0526                 1.0558
 Frc consts  --      6.4189                 6.1779                 6.2189
 IR Inten    --     24.3045                13.4210                15.1352

                     97                     98                     99
                      A                      A                      A
 Frequencies --   3165.5612              3186.1937              3201.0391
 Red. masses --      1.0900                 1.0963                 1.0950
 Frc consts  --      6.4353                 6.5572                 6.6106
 IR Inten    --     37.3769                 5.5656                 1.2686

                    100                    101                    102
                      A                      A                      A
 Frequencies --   3201.7624              3218.2199              3242.2525
 Red. masses --      1.0897                 1.0940                 1.1196
 Frc consts  --      6.5814                 6.6758                 6.9342
 IR Inten    --     11.8416                 9.0681                 1.6492

                    103                    104                    105
                      A                      A                      A
 Frequencies --   3257.3060              3592.6847              3628.1925
 Red. masses --      1.1169                 1.0760                 1.0769
 Frc consts  --      6.9821                 8.1825                 8.3522
 IR Inten    --      6.4458                18.7485                28.1403

 - Thermochemistry -
 -------------------
 Temperature   298.150 Kelvin.  Pressure   1.00000 Atm.
 Atom     1 has atomic number  6 and mass  12.00000

 Molecular mass:   249.15896 amu.
 Principal axes and moments of inertia in atomic units:
                           1         2         3
     Eigenvalues --  1859.44845********************
           X            0.99994  -0.00563   0.00973
           Y            0.00564   0.99998  -0.00115
           Z           -0.00972   0.00120   0.99995
 This molecule is an asymmetric top.
 Rotational symmetry number  1.
 Warning -- assumption of classical behavior for rotation
           may cause significant error
 Rotational temperatures (Kelvin)      0.04658     0.00853     0.00789
 Rotational constants (GHZ):           0.97058     0.17783     0.16434
 Zero-point vibrational energy     830144.3 (Joules/Mol)
                                  198.40924 (Kcal/Mol)
 Warning -- explicit consideration of  27 degrees of freedom as
           vibrations may cause significant error
 Vibrational temperatures:     24.24    35.06    48.77    69.59    84.89
          (Kelvin)            104.36   122.61   132.95   167.62   212.31
                              265.60   269.79   333.00   361.49   381.19
                              394.66   431.34   499.36   558.84   604.59
                              659.69   671.22   715.24   744.46   801.93
                              811.23   828.86   917.72   950.78  1027.16
                             1071.83  1088.57  1097.57  1118.44  1153.77
                             1175.42  1208.69  1242.38  1299.18  1334.36
                             1350.38  1376.18  1422.36  1432.02  1507.29
                             1544.40  1573.75  1582.03  1583.68  1610.51
                             1620.85  1630.99  1635.79  1641.56  1674.43
                             1706.92  1759.43  1786.71  1792.56  1809.95
                             1850.51  1881.68  1889.06  1906.78  1949.04
                             2009.05  2018.10  2033.69  2095.30  2103.73
                             2109.33  2126.40  2135.70  2148.84  2169.39
                             2179.14  2182.09  2184.60  2200.76  2205.33
                             2210.95  2224.79  2290.88  2351.28  2379.95
                             2549.35  4321.54  4335.54  4419.86  4431.79
                             4436.61  4448.82  4503.85  4528.32  4540.96
                             4549.27  4554.54  4584.22  4605.58  4606.62
                             4630.30  4664.88  4686.54  5169.07  5220.16

 Zero-point correction=                           0.316185 (Hartree/Particle)
 Thermal correction to Energy=                    0.334732
 Thermal correction to Enthalpy=                  0.335676
 Thermal correction to Gibbs Free Energy=         0.266106
 Sum of electronic and zero-point Energies=           -817.450146
 Sum of electronic and thermal Energies=              -817.431599
 Sum of electronic and thermal Enthalpies=            -817.430655
 Sum of electronic and thermal Free Energies=         -817.500225

                     E (Thermal)             CV                S
                      KCal/Mol        Cal/Mol-Kelvin    Cal/Mol-Kelvin
 Total                  210.047             67.636            146.422
 Electronic               0.000              0.000              0.000
 Translational            0.889              2.981             42.439
 Rotational               0.889              2.981             33.693
 Vibrational            208.270             61.674             70.289
 Vibration     1          0.593              1.986              6.975
 Vibration     2          0.593              1.985              6.242
 Vibration     3          0.594              1.983              5.587
 Vibration     4          0.595              1.978              4.883
 Vibration     5          0.596              1.974              4.490
 Vibration     6          0.599              1.967              4.083
 Vibration     7          0.601              1.959              3.767
 Vibration     8          0.602              1.955              3.608
 Vibration     9          0.608              1.936              3.158
 Vibration    10          0.617              1.905              2.703
 Vibration    11          0.631              1.861              2.281
 Vibration    12          0.632              1.857              2.252
 Vibration    13          0.653              1.793              1.868
 Vibration    14          0.663              1.761              1.722
 Vibration    15          0.671              1.737              1.629
 Vibration    16          0.677              1.721              1.569
 Vibration    17          0.692              1.674              1.418
 Vibration    18          0.725              1.581              1.179
 Vibration    19          0.757              1.495              1.006
 Vibration    20          0.783              1.426              0.891
 Vibration    21          0.817              1.342              0.770
 Vibration    22          0.824              1.324              0.747
 Vibration    23          0.853              1.256              0.665
 Vibration    24          0.872              1.211              0.616
 Vibration    25          0.913              1.124              0.529
 Vibration    26          0.920              1.110              0.516
 Vibration    27          0.932              1.083              0.493

 Optimization completed.
    -- Stationary point found.
 Normal termination of Gaussian 16 at Fri Dec 11 22:58:41 2020.

 ----------------------------------------------------------------------
 # B3LYP/6-311++G(d,p) empiricaldispersion=gd3bj scf=xqc pop=npa geom=c
 heck
 ----------------------------------------------------------------------

 ---------------------------------------
 CID_113240471_JID_8765_Energie_neutraal
 ---------------------------------------
 Structure from the checkpoint file:  "JID_8765.chk"
 Charge =  0 Multiplicity = 1

 SCF Done:  E(RB3LYP) =  -817.996468054     A.U. after   15 cycles
 Normal termination of Gaussian 16 at Fri Dec 11 23:04:43 2020.

 ----------------------------------------------------------------------
 # B3LYP/6-311++G(d,p) empiricaldispersion=gd3bj scf=xqc pop=npa geom=c
 heck
 ----------------------------------------------------------------------

 -------------------------------------
 CID_113240471_JID_8765_Energie_kation
 -------------------------------------
 Structure from the checkpoint file:  "JID_8765.chk"
 Charge =  1 Multiplicity = 2

 SCF Done:  E(UB3LYP) =  -817.722482997     A.U. after   27 cycles
 Normal termination of Gaussian 16 at Fri Dec 11 23:19:13 2020.
 Gaussian 16:  ES64L-G16RevA.03 25-Dec-2016

 ----------------------------------------------------------------------
 # B3LYP/6-311++G(d,p) empiricaldispersion=gd3bj scf=xqc pop=npa geom=c
 heck
 ----------------------------------------------------------------------

 ------------------------------------
 CID_113240471_JID_8765_Energie_anion
 ------------------------------------
 Structure from the checkpoint file:  "JID_8765.chk"
 Charge = -1 Multiplicity = 2

                         Standard orientation:
 ---------------------------------------------------------------------
 Center     Atomic      Atomic             Coordinates (Angstroms)
 Number     Number       Type             X           Y           Z
 ---------------------------------------------------------------------
      1          6           0        3.317226   -2.336307   -0.133411
      2          7           0        3.857324   -1.004805    0.062467
      3          6           0        5.158897   -0.923247    0.701120
      4          6           0        3.053619    0.100458   -0.043733
      5          7           0        3.594404    1.294800    0.273363
      6          6           0        2.786080    2.349952    0.118616
      7          6           0        1.480387    2.270811   -0.331056
      8          6           0        1.012888    0.970886   -0.622322
      9          7           0        1.787663   -0.108971   -0.465017
     10          7           0       -0.258015    0.767608   -1.092611
     11          6           0       -0.850544   -0.554957   -1.186215
     12          6           0       -1.143473   -1.186938    0.186925
     13          7           0       -1.930384   -0.325386    1.059066
     14          6           0       -3.224541    0.089667    0.867756
     15          8           0       -3.673639    1.059415    1.475001
     16          6           0       -4.066109   -0.692516   -0.090576
     17          6           0       -5.561932   -0.676328    0.154639
     18          6           0       -5.001024    0.117532   -0.978729
     19          1           0        2.920619   -2.761866    0.802181
     20          1           0        4.115555   -2.992540   -0.495719
     21          1           0        2.512228   -2.303629   -0.865569
     22          1           0        5.877651   -1.537201    0.145975
     23          1           0        5.488007    0.113511    0.707944
     24          1           0        5.120344   -1.291788    1.737783
     25          1           0        3.218379    3.316393    0.374941
     26          1           0        0.854294    3.148365   -0.447240
     27          1           0       -0.896285    1.543487   -0.990881
     28          1           0       -1.777016   -0.454220   -1.759556
     29          1           0       -0.172028   -1.206295   -1.743866
     30          1           0       -1.642458   -2.153134    0.053590
     31          1           0       -0.194375   -1.379510    0.690630
     32          1           0       -1.415001    0.299122    1.667560
     33          1           0       -3.646062   -1.597397   -0.515032
     34          1           0       -6.108735   -1.588318   -0.064663
     35          1           0       -5.885105   -0.128741    1.033426
     36          1           0       -4.954195    1.194774   -0.855132
     37          1           0       -5.152494   -0.233131   -1.995339
 ---------------------------------------------------------------------

 SCF Done:  E(UB3LYP) =  -817.986651712     A.U. after   33 cycles
 SCF Done:  E(UB3LYP) =  -817.986651712     a.u. after    1 cycles

 The electronic state is 2-A.
 Alpha  occ. eigenvalues --  -18.99825 -14.25024 -14.24822 -14.24778 -14.20845
 Alpha  occ. eigenvalues --  -14.20542 -10.18586 -10.17998 -10.16802 -10.12736
 Alpha  occ. eigenvalues --  -10.11860 -10.11796 -10.10448 -10.10112 -10.10061
 Alpha  occ. eigenvalues --  -10.09407 -10.09218 -10.08149  -0.95038  -0.91680
 Alpha  occ. eigenvalues --   -0.87314  -0.83678  -0.82570  -0.78121  -0.77895
 Alpha  occ. eigenvalues --   -0.69593  -0.65632  -0.63179  -0.60492  -0.58830
 Alpha  occ. eigenvalues --   -0.56754  -0.53014  -0.52575  -0.52005  -0.46669
 Alpha  occ. eigenvalues --   -0.45847  -0.44333  -0.43255  -0.40933  -0.40235
 Alpha  occ. eigenvalues --   -0.39163  -0.38607  -0.38200  -0.37752  -0.36526
 Alpha  occ. eigenvalues --   -0.35277  -0.34828  -0.33256  -0.32516  -0.32201
 Alpha  occ. eigenvalues --   -0.31318  -0.30858  -0.30500  -0.29184  -0.28940
 Alpha  occ. eigenvalues --   -0.28239  -0.27995  -0.25509  -0.22650  -0.22370
 Alpha  occ. eigenvalues --   -0.21714  -0.21058  -0.17828  -0.17115  -0.16064
 Alpha  occ. eigenvalues --   -0.15173  -0.12255   0.03873
 Alpha virt. eigenvalues --    0.05522   0.06091   0.06414   0.07256   0.07403
 Alpha virt. eigenvalues --    0.07709   0.08209   0.08678   0.09219   0.09458
 Alpha virt. eigenvalues --    0.09636   0.09840   0.10371   0.11073   0.11245

  Beta  occ. eigenvalues --  -18.99822 -14.25018 -14.24819 -14.24778 -14.20839
  Beta  occ. eigenvalues --  -14.20532 -10.18585 -10.17994 -10.16792 -10.12732
  Beta  occ. eigenvalues --  -10.11836 -10.11776 -10.10424 -10.10075 -10.10040
  Beta  occ. eigenvalues --  -10.09388 -10.09206 -10.08143  -0.95032  -0.91666
  Beta  occ. eigenvalues --   -0.87297  -0.83666  -0.82556  -0.78104  -0.77868
  Beta  occ. eigenvalues --   -0.69570  -0.65598  -0.63137  -0.60459  -0.58798
  Beta  occ. eigenvalues --   -0.56717  -0.52981  -0.52542  -0.51957  -0.46635
  Beta  occ. eigenvalues --   -0.45815  -0.44300  -0.43224  -0.40904  -0.40205
  Beta  occ. eigenvalues --   -0.39137  -0.38576  -0.38147  -0.37713  -0.36502
  Beta  occ. eigenvalues --   -0.35246  -0.34810  -0.33228  -0.32491  -0.32172
  Beta  occ. eigenvalues --   -0.31289  -0.30824  -0.30469  -0.29153  -0.28910
  Beta  occ. eigenvalues --   -0.28215  -0.27969  -0.25468  -0.22623  -0.22355
  Beta  occ. eigenvalues --   -0.21689  -0.21034  -0.17821  -0.17103  -0.16050
  Beta  occ. eigenvalues --   -0.15158  -0.12227
  Beta virt. eigenvalues --    0.05828   0.06416   0.06427   0.06772   0.07696
  Beta virt. eigenvalues --    0.07719   0.08042   0.08541   0.08935   0.09272
  Beta virt. eigenvalues --    0.09716   0.09857   0.10181   0.10575   0.11307

 Mulliken charges and spin densities:
               1          2
     1  C    0.657849  -0.999344
     2  N   -0.082491   0.111891
     3  C    0.498859  -0.761356
     4  C   -0.439515   0.103809
     5  N   -0.182902   0.019722
     6  C    0.032239  -0.162715
     7  C   -0.251021   0.373953
     8  C    0.127556  -0.478930
     9  N   -0.348694   0.068412
    10  N    0.018999  -0.028656
    11  C    0.168359  -0.394382
    12  C    0.121469  -0.475844
    13  N   -0.045468  -0.051013
    14  C    0.143778  -0.580921
    15  O   -0.354410  -0.000071
    16  C   -0.362771   0.891727
    17  C    0.326933  -0.820240
    18  C    0.504184  -1.007535
    19  H   -0.247188   0.418783
    20  H   -0.300582   0.431190
    21  H    0.059550   0.135754
    22  H   -0.073890   0.214536
    23  H    0.069952   0.112576
    24  H   -0.127736   0.278008
    25  H    0.018862   0.149126
    26  H   -0.133694   0.276146
    27  H    0.213951   0.087294
    28  H   -0.161471   0.353744
    29  H   -0.251491   0.497401
    30  H   -0.594738   0.759423
    31  H    0.300756  -0.069791
    32  H    0.279327   0.031629
    33  H   -0.501314   0.782602
    34  H   -0.103964   0.253784
    35  H    0.146896   0.022377
    36  H    0.107223   0.061861
    37  H   -0.233404   0.395047
 Sum of Mulliken charges =  -1.00000   1.00000

 Dipole moment (field-independent basis, Debye):
    X=              1.1126    Y=              5.3068    Z=              0.9798  Tot=              5.5100
 Quadrupole moment (field-independent basis, Debye-Ang):
   XX=           -212.0730   YY=           -159.1082   ZZ=           -145.4506
   XY=              1.7466   XZ=             -6.1044   YZ=             -8.1374

 Summary of Natural Population Analysis:

                                       Natural Population
                Natural  -----------------------------------------------
    Atom  No    Charge         Core      Valence    Rydberg      Total
 -----------------------------------------------------------------------
      C    1   -0.17585      0.99964     2.16801    0.00820     3.17585
      N    2   -0.24027      0.99965     2.73047    0.01015     3.74027
      C    3   -0.17526      0.99964     2.16894    0.00668     3.17526
      C    4    0.31611      0.99957     1.66717    0.01716     2.68389
      N    5   -0.29346      0.99967     2.78345    0.01034     3.79346
      C    6    0.05282      0.99959     1.93329    0.01429     2.94718
      C    7   -0.19067      0.99952     2.18283    0.00832     3.19067
      C    8    0.22450      0.99955     1.76164    0.01432     2.77550
      N    9   -0.30426      0.99963     2.79563    0.00900     3.80426
      N   10   -0.30349      0.99967     2.79396    0.00986     3.80349
      C   11   -0.09561      0.99961     2.08458    0.01142     3.09561
      C   12   -0.10029      0.99961     2.08955    0.01113     3.10029
      N   13   -0.31672      0.99967     2.80765    0.00940     3.81672
      C   14    0.34063      0.99964     1.63661    0.02312     2.65937
      O   15   -0.33515      0.99988     3.32995    0.00532     4.33515
      C   16   -0.16785      0.99955     2.15731    0.01099     3.16785
      C   17   -0.18699      0.99962     2.17757    0.00980     3.18699
      C   18   -0.18713      0.99962     2.17776    0.00975     3.18713
      H   19    0.09151      0.00000     0.40691    0.00158     0.40849
      H   20    0.09438      0.00000     0.40426    0.00136     0.40562
      H   21    0.11262      0.00000     0.38566    0.00172     0.38738
      H   22    0.09183      0.00000     0.40674    0.00143     0.40817
      H   23    0.11510      0.00000     0.38310    0.00180     0.38490
      H   24    0.08852      0.00000     0.40968    0.00181     0.41148
      H   25    0.08852      0.00000     0.41051    0.00097     0.41148
      H   26    0.10526      0.00000     0.39376    0.00099     0.39474
      H   27    0.19126      0.00000     0.30637    0.00237     0.30874
      H   28    0.10047      0.00000     0.39797    0.00156     0.39953
      H   29    0.10908      0.00000     0.38915    0.00177     0.39092
      H   30    0.10223      0.00000     0.39566    0.00210     0.39777
      H   31    0.10970      0.00000     0.38860    0.00170     0.39030
      H   32    0.19339      0.00000     0.30404    0.00257     0.30661
      H   33    0.11498      0.00000     0.38216    0.00285     0.38502
      H   34    0.10495      0.00000     0.39420    0.00086     0.39505
      H   35    0.11095      0.00000     0.38805    0.00100     0.38905
      H   36    0.10789      0.00000     0.39110    0.00101     0.39211
      H   37    0.10633      0.00000     0.39238    0.00129     0.39367
 =======================================================================
   * Total *   -0.00000     17.99335    48.77668    0.22997    67.00000

 Normal termination of Gaussian 16 at Fri Dec 11 23:37:10 2020.
