 Gaussian 16, Revision A.03,

 -----------------------------------------------------------
 # opt freq B3LYP/6-31G(d) empiricaldispersion=gd3bj scf=xqc
 -----------------------------------------------------------

 -------------------------------
 CID_121202156_JID_3525_neutraal
 -------------------------------
 Symbolic Z-matrix:
 Charge =  0 Multiplicity = 1

 SCF Done:  E(RB3LYP) =  -632.412288128     A.U. after   14 cycles
 SCF Done:  E(RB3LYP) =  -632.421356866     A.U. after   12 cycles
 SCF Done:  E(RB3LYP) =  -632.420501734     A.U. after   12 cycles
 SCF Done:  E(RB3LYP) =  -632.423147416     A.U. after   12 cycles
 SCF Done:  E(RB3LYP) =  -632.422810901     A.U. after   12 cycles
 SCF Done:  E(RB3LYP) =  -632.420735157     A.U. after   12 cycles
 SCF Done:  E(RB3LYP) =  -632.421129794     A.U. after   11 cycles
 SCF Done:  E(RB3LYP) =  -632.423421599     A.U. after    9 cycles
 SCF Done:  E(RB3LYP) =  -632.424241265     A.U. after   11 cycles
 SCF Done:  E(RB3LYP) =  -632.424587274     A.U. after   12 cycles
 SCF Done:  E(RB3LYP) =  -632.425243221     A.U. after    9 cycles
 SCF Done:  E(RB3LYP) =  -632.425245432     A.U. after    9 cycles
 SCF Done:  E(RB3LYP) =  -632.425246958     A.U. after    9 cycles
 SCF Done:  E(RB3LYP) =  -632.425247204     A.U. after    8 cycles
 SCF Done:  E(RB3LYP) =  -632.425247221     A.U. after    7 cycles
 Optimization completed.
    -- Stationary point found.
 Normal termination of Gaussian 16 at Wed Dec  9 23:41:16 2020.

 --------------------------------------------------------------------
 #N Geom=AllCheck Guess=TCheck SCRF=Check GenChk RB3LYP/6-31G(d) Freq
 --------------------------------------------------------------------

 Structure from the checkpoint file:  "JID_3525.chk"
 -------------------------------
 CID_121202156_JID_3525_neutraal
 -------------------------------
 Charge =  0 Multiplicity = 1

 SCF Done:  E(RB3LYP) =  -632.425247221     A.U. after    1 cycles

  Exact polarizability: 123.653  -2.477  98.034   2.266   4.886  91.759
 Approx polarizability: 159.200  -3.601 150.426   4.201   4.250 138.457

                      1                      2                      3
                      A                      A                      A
 Frequencies --     28.3613                43.3526               113.4022
 Red. masses --      4.6944                 6.9798                 4.7672
 Frc consts  --      0.0022                 0.0077                 0.0361
 IR Inten    --      7.5231                 0.9479                 5.9790

                      4                      5                      6
                      A                      A                      A
 Frequencies --    143.5905               172.4426               192.4135
 Red. masses --      5.8315                 5.1205                 3.7009
 Frc consts  --      0.0708                 0.0897                 0.0807
 IR Inten    --      0.7532                 5.9441                 3.9721

                      7                      8                      9
                      A                      A                      A
 Frequencies --    221.4440               282.1632               355.5479
 Red. masses --      4.0593                 2.7370                 2.4613
 Frc consts  --      0.1173                 0.1284                 0.1833
 IR Inten    --      9.9139                 2.0697                 7.1979

                     10                     11                     12
                      A                      A                      A
 Frequencies --    362.0858               377.1415               416.3333
 Red. masses --      2.2903                 2.0580                 3.3814
 Frc consts  --      0.1769                 0.1725                 0.3453
 IR Inten    --      0.7883                 8.6128                 1.7402

                     13                     14                     15
                      A                      A                      A
 Frequencies --    445.9052               487.7164               546.5220
 Red. masses --      2.0791                 1.4809                 2.2232
 Frc consts  --      0.2436                 0.2075                 0.3912
 IR Inten    --      1.2096                82.1099                33.2465

                     16                     17                     18
                      A                      A                      A
 Frequencies --    581.3153               587.5538               612.2490
 Red. masses --      4.1417                 4.1531                 3.1464
 Frc consts  --      0.8246                 0.8447                 0.6949
 IR Inten    --     50.2084                 1.9847                 7.2369

                     19                     20                     21
                      A                      A                      A
 Frequencies --    651.1879               745.4752               765.2301
 Red. masses --      1.3310                 2.9309                 3.3343
 Frc consts  --      0.3325                 0.9596                 1.1504
 IR Inten    --     84.3652                22.2441                13.6375

                     22                     23                     24
                      A                      A                      A
 Frequencies --    805.7609               815.2033               857.1717
 Red. masses --      2.1397                 2.7069                 2.5457
 Frc consts  --      0.8185                 1.0599                 1.1020
 IR Inten    --      7.7860                12.1899                 1.5215

                     25                     26                     27
                      A                      A                      A
 Frequencies --    875.8396               888.8623               912.3141
 Red. masses --      2.7519                 2.8965                 2.9706
 Frc consts  --      1.2437                 1.3483                 1.4567
 IR Inten    --      5.5248                 1.6119                17.8832

                     28                     29                     30
                      A                      A                      A
 Frequencies --    920.4936               984.9925               990.8934
 Red. masses --      2.0421                 1.2383                 2.3554
 Frc consts  --      1.0195                 0.7079                 1.3626
 IR Inten    --      3.7116                 1.4247                 7.3121

                     31                     32                     33
                      A                      A                      A
 Frequencies --   1013.8070              1037.6542              1055.5395
 Red. masses --      2.1605                 3.2752                 1.7803
 Frc consts  --      1.3083                 2.0777                 1.1686
 IR Inten    --     77.6275                 2.1570                12.8223

                     34                     35                     36
                      A                      A                      A
 Frequencies --   1085.2966              1098.4268              1112.0273
 Red. masses --      1.9890                 1.3374                 1.6344
 Frc consts  --      1.3803                 0.9507                 1.1908
 IR Inten    --      0.8415                15.2502                 0.7628

                     37                     38                     39
                      A                      A                      A
 Frequencies --   1156.9540              1168.3421              1173.4917
 Red. masses --      1.7209                 1.5951                 2.1367
 Frc consts  --      1.3572                 1.2829                 1.7336
 IR Inten    --     93.1622                71.0571                87.4709

                     40                     41                     42
                      A                      A                      A
 Frequencies --   1203.3372              1219.8775              1237.3387
 Red. masses --      1.7733                 1.8218                 1.3135
 Frc consts  --      1.5129                 1.5973                 1.1848
 IR Inten    --     74.1926                31.5048                24.8168

                     43                     44                     45
                      A                      A                      A
 Frequencies --   1240.7061              1262.7817              1279.1150
 Red. masses --      1.7321                 1.3495                 1.5039
 Frc consts  --      1.5709                 1.2679                 1.4497
 IR Inten    --    165.0400                 1.2633                 9.1081

                     46                     47                     48
                      A                      A                      A
 Frequencies --   1300.0172              1315.1569              1340.1879
 Red. masses --      1.1841                 1.4498                 1.5890
 Frc consts  --      1.1791                 1.4775                 1.6816
 IR Inten    --      3.7254                 3.8096                 9.8749

                     49                     50                     51
                      A                      A                      A
 Frequencies --   1348.9253              1366.8845              1374.1544
 Red. masses --      1.3830                 1.6119                 1.6500
 Frc consts  --      1.4827                 1.7744                 1.8357
 IR Inten    --      4.0287                23.4126                90.0285

                     52                     53                     54
                      A                      A                      A
 Frequencies --   1375.9659              1381.6240              1416.2694
 Red. masses --      1.5005                 1.5915                 1.3209
 Frc consts  --      1.6738                 1.7900                 1.5610
 IR Inten    --      4.2114                39.7949                23.6336

                     55                     56                     57
                      A                      A                      A
 Frequencies --   1434.1221              1440.7328              1444.9715
 Red. masses --      1.5557                 1.5149                 1.4356
 Frc consts  --      1.8851                 1.8526                 1.7660
 IR Inten    --     17.9237                 3.5813                25.1660

                     58                     59                     60
                      A                      A                      A
 Frequencies --   1504.5863              1511.8053              1523.3193
 Red. masses --      1.1561                 1.0951                 1.1283
 Frc consts  --      1.5419                 1.4747                 1.5425
 IR Inten    --     12.5317                 3.0116                 7.7709

                     61                     62                     63
                      A                      A                      A
 Frequencies --   1549.6017              1567.1825              1798.7146
 Red. masses --      1.0844                 1.0878                 8.3455
 Frc consts  --      1.5342                 1.5741                15.9085
 IR Inten    --      2.0446                 0.7904               304.2119

                     64                     65                     66
                      A                      A                      A
 Frequencies --   2977.6757              2989.2175              3015.5813
 Red. masses --      1.0747                 1.0644                 1.0979
 Frc consts  --      5.6145                 5.6037                 5.8822
 IR Inten    --     97.2721                60.9494                49.4913

                     67                     68                     69
                      A                      A                      A
 Frequencies --   3029.4359              3041.6025              3073.7782
 Red. masses --      1.0855                 1.0605                 1.0626
 Frc consts  --      5.8695                 5.7804                 5.9150
 IR Inten    --     69.4442                48.4297                17.7975

                     70                     71                     72
                      A                      A                      A
 Frequencies --   3078.9290              3084.0185              3090.8322
 Red. masses --      1.0857                 1.0868                 1.0852
 Frc consts  --      6.0641                 6.0903                 6.1080
 IR Inten    --     15.4361                20.9485                80.0463

                     73                     74                     75
                      A                      A                      A
 Frequencies --   3094.0429              3096.9243              3128.3931
 Red. masses --      1.0777                 1.0874                 1.1096
 Frc consts  --      6.0785                 6.1446                 6.3980
 IR Inten    --     30.4136                44.0861                33.2018

                     76                     77                     78
                      A                      A                      A
 Frequencies --   3156.8024              3643.9022              3678.2966
 Red. masses --      1.1029                 1.0682                 1.0639
 Frc consts  --      6.4757                 8.3566                 8.4808
 IR Inten    --      4.2507               304.2100                44.0013

 - Thermochemistry -
 -------------------
 Temperature   298.150 Kelvin.  Pressure   1.00000 Atm.
 Atom     1 has atomic number  6 and mass  12.00000

 Molecular mass:   185.10519 amu.
 Principal axes and moments of inertia in atomic units:
                           1         2         3
     Eigenvalues --  1177.805143120.273563445.70896
           X            0.99995  -0.00890  -0.00490
           Y            0.00919   0.99800   0.06247
           Z            0.00433  -0.06251   0.99803
 This molecule is an asymmetric top.
 Rotational symmetry number  1.
 Warning -- assumption of classical behavior for rotation
           may cause significant error
 Rotational temperatures (Kelvin)      0.07354     0.02776     0.02514
 Rotational constants (GHZ):           1.53229     0.57839     0.52376
 Zero-point vibrational energy     638215.6 (Joules/Mol)
                                  152.53719 (Kcal/Mol)
 Warning -- explicit consideration of  18 degrees of freedom as
           vibrations may cause significant error
 Vibrational temperatures:     40.81    62.37   163.16   206.59   248.11
          (Kelvin)            276.84   318.61   405.97   511.55   520.96
                              542.62   599.01   641.56   701.72   786.32
                              836.38   845.36   880.89   936.91  1072.57
                             1101.00  1159.31  1172.90  1233.28  1260.14
                             1278.87  1312.62  1324.38  1417.18  1425.67
                             1458.64  1492.95  1518.69  1561.50  1580.39
                             1599.96  1664.60  1680.98  1688.39  1731.33
                             1755.13  1780.25  1785.10  1816.86  1840.36
                             1870.43  1892.22  1928.23  1940.80  1966.64
                             1977.10  1979.71  1987.85  2037.70  2063.38
                             2072.89  2078.99  2164.76  2175.15  2191.72
                             2229.53  2254.83  2587.95  4284.21  4300.82
                             4338.75  4358.68  4376.19  4422.48  4429.89
                             4437.21  4447.02  4451.64  4455.78  4501.06
                             4541.93  5242.76  5292.25

 Zero-point correction=                           0.243083 (Hartree/Particle)
 Thermal correction to Energy=                    0.254936
 Thermal correction to Enthalpy=                  0.255880
 Thermal correction to Gibbs Free Energy=         0.204345
 Sum of electronic and zero-point Energies=           -632.182164
 Sum of electronic and thermal Energies=              -632.170311
 Sum of electronic and thermal Enthalpies=            -632.169367
 Sum of electronic and thermal Free Energies=         -632.220902

                     E (Thermal)             CV                S
                      KCal/Mol        Cal/Mol-Kelvin    Cal/Mol-Kelvin
 Total                  159.975             46.386            108.465
 Electronic               0.000              0.000              0.000
 Translational            0.889              2.981             41.553
 Rotational               0.889              2.981             30.916
 Vibrational            158.197             40.425             35.995
 Vibration     1          0.593              1.984              5.941
 Vibration     2          0.595              1.980              5.100
 Vibration     3          0.607              1.938              3.210
 Vibration     4          0.616              1.910              2.755
 Vibration     5          0.626              1.876              2.409
 Vibration     6          0.634              1.850              2.204
 Vibration     7          0.648              1.808              1.947
 Vibration     8          0.681              1.707              1.521
 Vibration     9          0.731              1.564              1.142
 Vibration    10          0.736              1.550              1.113
 Vibration    11          0.748              1.519              1.051
 Vibration    12          0.780              1.435              0.905
 Vibration    13          0.805              1.370              0.808
 Vibration    14          0.844              1.277              0.690
 Vibration    15          0.902              1.147              0.551
 Vibration    16          0.938              1.072              0.483
 Vibration    17          0.945              1.058              0.472
 Vibration    18          0.971              1.006              0.429

 Optimization completed.
    -- Stationary point found.
 Normal termination of Gaussian 16 at Wed Dec  9 23:49:18 2020.

 ----------------------------------------------------------------------
 # B3LYP/6-311++G(d,p) empiricaldispersion=gd3bj scf=xqc pop=npa geom=c
 heck
 ----------------------------------------------------------------------

 ---------------------------------------
 CID_121202156_JID_3525_Energie_neutraal
 ---------------------------------------
 Structure from the checkpoint file:  "JID_3525.chk"
 Charge =  0 Multiplicity = 1

 SCF Done:  E(RB3LYP) =  -632.619176341     A.U. after   14 cycles
 Normal termination of Gaussian 16 at Wed Dec  9 23:52:39 2020.

 ----------------------------------------------------------------------
 # B3LYP/6-311++G(d,p) empiricaldispersion=gd3bj scf=xqc pop=npa geom=c
 heck
 ----------------------------------------------------------------------

 -------------------------------------
 CID_121202156_JID_3525_Energie_kation
 -------------------------------------
 Structure from the checkpoint file:  "JID_3525.chk"
 Charge =  1 Multiplicity = 2

 SCF Done:  E(UB3LYP) =  -632.340655399     A.U. after   19 cycles
 Normal termination of Gaussian 16 at Wed Dec  9 23:58:57 2020.
 Gaussian 16:  ES64L-G16RevA.03 25-Dec-2016

 ----------------------------------------------------------------------
 # B3LYP/6-311++G(d,p) empiricaldispersion=gd3bj scf=xqc pop=npa geom=c
 heck
 ----------------------------------------------------------------------

 ------------------------------------
 CID_121202156_JID_3525_Energie_anion
 ------------------------------------
 Structure from the checkpoint file:  "JID_3525.chk"
 Charge = -1 Multiplicity = 2

                         Standard orientation:
 ---------------------------------------------------------------------
 Center     Atomic      Atomic             Coordinates (Angstroms)
 Number     Number       Type             X           Y           Z
 ---------------------------------------------------------------------
      1          6           0       -2.937685   -0.184469    0.731584
      2          6           0       -2.386174   -0.199920   -0.716042
      3          6           0       -1.266730   -1.221969   -0.857689
      4          7           0       -0.365125   -1.211797    0.296450
      5          6           0       -0.503209   -0.181031    1.327879
      6          6           0       -1.716093    0.707298    1.078406
      7          6           0       -1.755567    1.183351   -0.402315
      8          8           0       -0.603198    1.550278   -1.118975
      9          6           0        0.966530   -1.680249    0.030149
     10          6           0        1.873290   -0.744818   -0.850657
     11          6           0        2.483706    0.391747   -0.082990
     12          8           0        2.023013    1.515224    0.047364
     13          8           0        3.643441    0.040560    0.515502
     14          1           0       -3.884710    0.357506    0.808330
     15          1           0       -3.018029   -1.142889    1.254008
     16          1           0       -3.088636   -0.278951   -1.551171
     17          1           0       -0.723937   -0.988032   -1.785966
     18          1           0       -1.692792   -2.231130   -0.977676
     19          1           0       -0.612435   -0.657655    2.316483
     20          1           0        0.390778    0.449489    1.385738
     21          1           0       -1.812806    1.455745    1.871415
     22          1           0       -2.513475    1.971385   -0.511672
     23          1           0        0.174356    1.644146   -0.537789
     24          1           0        1.481066   -1.887177    0.976547
     25          1           0        0.897162   -2.635560   -0.504364
     26          1           0        2.684530   -1.346238   -1.271255
     27          1           0        1.276829   -0.321763   -1.661152
     28          1           0        3.943517    0.825565    1.012287
 ---------------------------------------------------------------------

 SCF Done:  E(UB3LYP) =  -632.606889975     A.U. after   33 cycles
 SCF Done:  E(UB3LYP) =  -632.606889975     a.u. after    1 cycles

 The electronic state is 2-A.
 Alpha  occ. eigenvalues --  -19.06800 -19.01692 -19.00673 -14.19787 -10.20623
 Alpha  occ. eigenvalues --  -10.11592 -10.10290 -10.09238 -10.09056 -10.07914
 Alpha  occ. eigenvalues --  -10.07850 -10.07365 -10.06968  -1.01083  -0.92147
 Alpha  occ. eigenvalues --   -0.91213  -0.83029  -0.74881  -0.67253  -0.65164
 Alpha  occ. eigenvalues --   -0.58626  -0.55096  -0.52268  -0.51445  -0.48850
 Alpha  occ. eigenvalues --   -0.44535  -0.41662  -0.40177  -0.38952  -0.37982
 Alpha  occ. eigenvalues --   -0.37092  -0.35750  -0.34653  -0.33889  -0.32435
 Alpha  occ. eigenvalues --   -0.31220  -0.30286  -0.29392  -0.28704  -0.28165
 Alpha  occ. eigenvalues --   -0.27403  -0.25779  -0.24388  -0.22944  -0.22079
 Alpha  occ. eigenvalues --   -0.21204  -0.19702  -0.18185  -0.16106  -0.10045
 Alpha  occ. eigenvalues --    0.04401
 Alpha virt. eigenvalues --    0.06253   0.06936   0.08111   0.08438   0.09115
 Alpha virt. eigenvalues --    0.09634   0.10043   0.10405   0.11369   0.11885
 Alpha virt. eigenvalues --    0.12981   0.13117   0.13414   0.14085   0.15535

  Beta  occ. eigenvalues --  -19.06731 -19.01643 -19.00669 -14.19789 -10.20575
  Beta  occ. eigenvalues --  -10.11588 -10.10261 -10.09221 -10.09038 -10.07907
  Beta  occ. eigenvalues --  -10.07829 -10.07359 -10.06954  -1.00965  -0.92058
  Beta  occ. eigenvalues --   -0.91187  -0.83018  -0.74857  -0.67170  -0.65137
  Beta  occ. eigenvalues --   -0.58551  -0.55069  -0.52181  -0.51406  -0.48750
  Beta  occ. eigenvalues --   -0.44503  -0.41611  -0.40093  -0.38873  -0.37929
  Beta  occ. eigenvalues --   -0.37057  -0.35664  -0.34603  -0.33848  -0.32393
  Beta  occ. eigenvalues --   -0.31175  -0.30223  -0.29348  -0.28668  -0.28131
  Beta  occ. eigenvalues --   -0.27371  -0.25743  -0.24362  -0.22797  -0.22048
  Beta  occ. eigenvalues --   -0.21156  -0.19662  -0.18132  -0.16093  -0.10027
  Beta virt. eigenvalues --    0.06575   0.07507   0.07931   0.08566   0.08894
  Beta virt. eigenvalues --    0.09685   0.10169   0.10349   0.10890   0.11479
  Beta virt. eigenvalues --    0.12315   0.13325   0.13506   0.13601   0.14394

 Mulliken charges and spin densities:
               1          2
     1  C    0.932955  -1.574213
     2  C   -0.767098   1.262212
     3  C    0.430712  -1.022839
     4  N    0.017123   0.039806
     5  C    0.144581  -0.693934
     6  C   -0.473329   0.807606
     7  C    0.567359  -1.251233
     8  O   -0.255617  -0.005581
     9  C   -0.318403   0.027656
    10  C    0.683042  -0.827110
    11  C    0.398569  -0.589366
    12  O   -0.304256   0.024562
    13  O   -0.175197   0.073949
    14  H   -0.357233   0.499348
    15  H    0.071065   0.079414
    16  H   -0.175013   0.401581
    17  H    0.036098   0.092371
    18  H   -0.247264   0.402116
    19  H   -0.221384   0.378076
    20  H   -0.101241   0.254737
    21  H   -0.127137   0.355013
    22  H    0.107067   0.070181
    23  H    0.309691  -0.004303
    24  H   -0.005804   0.180572
    25  H   -0.412842   0.593033
    26  H   -0.346453   0.559815
    27  H    0.135437   0.024170
    28  H   -0.545431   0.842360
 Sum of Mulliken charges =  -1.00000   1.00000

 Dipole moment (field-independent basis, Debye):
    X=             -3.4671    Y=              0.3633    Z=             -0.7051  Tot=              3.5567
 Quadrupole moment (field-independent basis, Debye-Ang):
   XX=           -149.4540   YY=           -118.0810   ZZ=           -112.1218
   XY=             -1.5012   XZ=             -5.1403   YZ=             -3.1588

 Summary of Natural Population Analysis:

                                       Natural Population
                Natural  -----------------------------------------------
    Atom  No    Charge         Core      Valence    Rydberg      Total
 -----------------------------------------------------------------------
      C    1   -0.19164      0.99963     2.18250    0.00952     3.19164
      C    2   -0.11738      0.99958     2.10502    0.01278     3.11738
      C    3   -0.07849      0.99958     2.06670    0.01220     3.07849
      N    4   -0.29243      0.99971     2.77936    0.01336     3.79243
      C    5   -0.08190      0.99958     2.07074    0.01158     3.08190
      C    6   -0.11877      0.99958     2.10702    0.01217     3.11877
      C    7    0.06759      0.99949     1.91617    0.01674     2.93241
      O    8   -0.38575      0.99988     3.37943    0.00644     4.38575
      C    9   -0.07008      0.99960     2.05885    0.01164     3.07008
      C   10   -0.25498      0.99956     2.24642    0.00900     3.25498
      C   11    0.41811      0.99970     1.55726    0.02493     2.58189
      O   12   -0.32699      0.99986     3.32023    0.00690     4.32699
      O   13   -0.33993      0.99988     3.33309    0.00697     4.33993
      H   14    0.10008      0.00000     0.39850    0.00142     0.39992
      H   15    0.09992      0.00000     0.39896    0.00112     0.40008
      H   16    0.09893      0.00000     0.40000    0.00107     0.40107
      H   17    0.09320      0.00000     0.40502    0.00178     0.40680
      H   18    0.09095      0.00000     0.40766    0.00139     0.40905
      H   19    0.09080      0.00000     0.40780    0.00140     0.40920
      H   20    0.09592      0.00000     0.40186    0.00222     0.40408
      H   21    0.10045      0.00000     0.39856    0.00099     0.39955
      H   22    0.08155      0.00000     0.41723    0.00121     0.41845
      H   23    0.24800      0.00000     0.24858    0.00342     0.25200
      H   24    0.09876      0.00000     0.39987    0.00137     0.40124
      H   25    0.09869      0.00000     0.39972    0.00158     0.40131
      H   26    0.11374      0.00000     0.38441    0.00185     0.38626
      H   27    0.11633      0.00000     0.38239    0.00127     0.38367
      H   28    0.24531      0.00000     0.23249    0.02220     0.25469
 =======================================================================
   * Total *    0.00000     12.99564    36.80586    0.19851    50.00000

 Normal termination of Gaussian 16 at Thu Dec 10 00:10:13 2020.
