 Gaussian 16, Revision A.03,

 -----------------------------------------------------------
 # opt freq B3LYP/6-31G(d) empiricaldispersion=gd3bj scf=xqc
 -----------------------------------------------------------

 ------------------------------
 CID_45078489_JID_3256_neutraal
 ------------------------------
 Symbolic Z-matrix:
 Charge =  0 Multiplicity = 1

 SCF Done:  E(RB3LYP) =  -550.763195900     A.U. after   15 cycles
 SCF Done:  E(RB3LYP) =  -550.785188650     A.U. after   13 cycles
 SCF Done:  E(RB3LYP) =  -550.785592954     A.U. after   12 cycles
 SCF Done:  E(RB3LYP) =  -550.785641471     A.U. after   11 cycles
 SCF Done:  E(RB3LYP) =  -550.785648073     A.U. after    9 cycles
 SCF Done:  E(RB3LYP) =  -550.785651079     A.U. after    9 cycles
 SCF Done:  E(RB3LYP) =  -550.785655769     A.U. after   10 cycles
 SCF Done:  E(RB3LYP) =  -550.785660610     A.U. after   11 cycles
 SCF Done:  E(RB3LYP) =  -550.785665877     A.U. after   10 cycles
 SCF Done:  E(RB3LYP) =  -550.785671287     A.U. after   11 cycles
 SCF Done:  E(RB3LYP) =  -550.786912558     A.U. after    8 cycles
 SCF Done:  E(RB3LYP) =  -550.786912848     A.U. after    8 cycles
 SCF Done:  E(RB3LYP) =  -550.786912911     A.U. after    8 cycles
 SCF Done:  E(RB3LYP) =  -550.786912941     A.U. after    8 cycles
 SCF Done:  E(RB3LYP) =  -550.786912955     A.U. after    7 cycles
 Optimization completed.
    -- Stationary point found.

 1\1\GINC-NODE102\FOpt\RB3LYP\6-31G(d)\C10H9N3\VSC10255\09-Dec-2020\0\\
 # opt freq B3LYP/6-31G(d) empiricaldispersion=gd3bj scf=xqc\\CID_45078
 489_JID_3256_neutraal\\0,1\C,-3.3823027239,0.1247360721,0.0966325589\C
 ,-1.9005566303,0.0086722669,-0.0285009601\N,-1.2582677971,-0.980782765
 1,-0.6050216161\C,0.0893115587,-0.6647250561,-0.4844057377\C,0.2482435
 135,0.5670785159,0.1940969522\N,-1.044386599,0.9739561833,0.4732282339
 \C,1.4952836427,1.1319695021,0.4571982766\C,2.6132512518,0.425742736,0
 .0186600068\C,2.4709982532,-0.804653993,-0.6597645752\C,1.2237723666,-

 Normal termination of Gaussian 16 at Wed Dec  9 22:40:11 2020.

 --------------------------------------------------------------------
 #N Geom=AllCheck Guess=TCheck SCRF=Check GenChk RB3LYP/6-31G(d) Freq
 --------------------------------------------------------------------

 Structure from the checkpoint file:  "JID_3256.chk"
 ------------------------------
 CID_45078489_JID_3256_neutraal
 ------------------------------
 Charge =  0 Multiplicity = 1

 SCF Done:  E(RB3LYP) =  -550.786912955     A.U. after    1 cycles

  Exact polarizability: 169.445  -8.937 127.806  -0.003  -0.002  52.923
 Approx polarizability: 238.669  -9.628 233.367  -0.004  -0.006  81.345

                      1                      2                      3
                      A                      A                      A
 Frequencies --     16.2492                89.8830               101.4580
 Red. masses --      4.1383                 1.1120                 2.8369
 Frc consts  --      0.0006                 0.0053                 0.0172
 IR Inten    --     12.2524                 0.3601                 3.5249

                      4                      5                      6
                      A                      A                      A
 Frequencies --    106.7156               189.2283               226.0456
 Red. masses --      8.6553                 3.5592                 4.2647
 Frc consts  --      0.0581                 0.0751                 0.1284
 IR Inten    --      7.6058                 1.4582                 1.1648

                      7                      8                      9
                      A                      A                      A
 Frequencies --    273.9924               328.1942               346.4067
 Red. masses --      4.5821                 4.1519                 3.5004
 Frc consts  --      0.2027                 0.2635                 0.2475
 IR Inten    --      1.3487                 0.7014                 0.7128

                     10                     11                     12
                      A                      A                      A
 Frequencies --    376.6192               402.9134               439.2543
 Red. masses --      4.9308                 7.2781                 2.7525
 Frc consts  --      0.4121                 0.6961                 0.3129
 IR Inten    --      1.0966                 4.5725                 1.9899

                     13                     14                     15
                      A                      A                      A
 Frequencies --    449.9482               491.5184               550.8975
 Red. masses --      1.2879                 3.8711                 5.5460
 Frc consts  --      0.1536                 0.5510                 0.9917
 IR Inten    --    107.7230                 5.6269                 0.6069

                     16                     17                     18
                      A                      A                      A
 Frequencies --    605.8736               628.1180               676.3977
 Red. masses --      3.6338                 6.7204                 3.5146
 Frc consts  --      0.7859                 1.5622                 0.9474
 IR Inten    --      0.3279                 0.2929                 2.5376

                     19                     20                     21
                      A                      A                      A
 Frequencies --    696.0388               767.2778               796.3775
 Red. masses --      5.3512                 3.7129                 5.2654
 Frc consts  --      1.5275                 1.2879                 1.9675
 IR Inten    --      0.7357                 0.6416                 0.5593

                     22                     23                     24
                      A                      A                      A
 Frequencies --    823.8832               870.1045               873.4486
 Red. masses --      1.5445                 1.3847                 4.7536
 Frc consts  --      0.6177                 0.6177                 2.1367
 IR Inten    --     29.5286                 3.5735                 4.4342

                     25                     26                     27
                      A                      A                      A
 Frequencies --    949.7808               960.4620               971.3992
 Red. masses --      1.3381                 4.6657                 1.8437
 Frc consts  --      0.7112                 2.5359                 1.0250
 IR Inten    --      2.2222                 1.4475                 4.4117

                     28                     29                     30
                      A                      A                      A
 Frequencies --    974.2110               996.0395              1039.8515
 Red. masses --      2.7940                 2.3064                 2.9038
 Frc consts  --      1.5623                 1.3481                 1.8500
 IR Inten    --      1.1910                 3.5874                 1.2332

                     31                     32                     33
                      A                      A                      A
 Frequencies --   1075.5327              1156.1294              1166.8679
 Red. masses --      1.5026                 1.5026                 1.9168
 Frc consts  --      1.0241                 1.1833                 1.5377
 IR Inten    --      2.1076                 1.8230                 0.0045

                     34                     35                     36
                      A                      A                      A
 Frequencies --   1230.4987              1245.6849              1266.4391
 Red. masses --      1.7988                 1.0911                 2.1650
 Frc consts  --      1.6047                 0.9975                 2.0458
 IR Inten    --     11.3669                 0.0161                 4.7200

                     37                     38                     39
                      A                      A                      A
 Frequencies --   1309.3314              1317.0232              1352.3501
 Red. masses --      1.7363                 3.4331                 2.4006
 Frc consts  --      1.7538                 3.5085                 2.5867
 IR Inten    --      4.5406                57.8775                11.0314

                     40                     41                     42
                      A                      A                      A
 Frequencies --   1400.1209              1430.6973              1439.3195
 Red. masses --      3.2519                 2.1794                 1.5846
 Frc consts  --      3.7559                 2.6283                 1.9342
 IR Inten    --     17.1881                53.1610                24.3523

                     43                     44                     45
                      A                      A                      A
 Frequencies --   1491.9403              1498.2842              1511.3219
 Red. masses --      1.1147                 2.9888                 1.0432
 Frc consts  --      1.4618                 3.9530                 1.4039
 IR Inten    --      3.0135                50.7682                 8.6795

                     46                     47                     48
                      A                      A                      A
 Frequencies --   1514.8615              1545.0408              1606.0286
 Red. masses --      1.2770                 2.9977                 4.9636
 Frc consts  --      1.7266                 4.2162                 7.5432
 IR Inten    --      0.6115                 9.1269                43.2524

                     49                     50                     51
                      A                      A                      A
 Frequencies --   1637.9563              1692.5000              2373.7019
 Red. masses --      7.3347                 6.5370                12.6187
 Frc consts  --     11.5942                11.0328                41.8908
 IR Inten    --      1.6789                23.8917                 8.7576

                     52                     53                     54
                      A                      A                      A
 Frequencies --   3042.0730              3049.6831              3071.7108
 Red. masses --      1.0590                 1.0401                 1.1019
 Frc consts  --      5.7742                 5.6993                 6.1257
 IR Inten    --      9.2479                28.8806                 3.1684

                     55                     56                     57
                      A                      A                      A
 Frequencies --   3100.1680              3170.8215              3180.8995
 Red. masses --      1.1013                 1.0980                 1.0887
 Frc consts  --      6.2361                 6.5045                 6.4905
 IR Inten    --     14.9134                 3.2181                13.6464

                     58                     59                     60
                      A                      A                      A
 Frequencies --   3208.6135              3219.1903              3652.5246
 Red. masses --      1.0912                 1.0934                 1.0803
 Frc consts  --      6.6192                 6.6763                 8.4914
 IR Inten    --      1.7291                 9.6454                47.9324

 - Thermochemistry -
 -------------------
 Temperature   298.150 Kelvin.  Pressure   1.00000 Atm.
 Atom     1 has atomic number  6 and mass  12.00000

 Molecular mass:   171.07965 amu.
 Principal axes and moments of inertia in atomic units:
                           1         2         3
     Eigenvalues --   933.199423959.644264870.46696
           X            0.99950  -0.03171  -0.00000
           Y            0.03171   0.99950  -0.00000
           Z            0.00000   0.00000   1.00000
 This molecule is an asymmetric top.
 Rotational symmetry number  1.
 Warning -- assumption of classical behavior for rotation
           may cause significant error
 Rotational temperatures (Kelvin)      0.09281     0.02187     0.01778
 Rotational constants (GHZ):           1.93393     0.45578     0.37055
 Zero-point vibrational energy     454436.8 (Joules/Mol)
                                  108.61301 (Kcal/Mol)
 Warning -- explicit consideration of  16 degrees of freedom as
           vibrations may cause significant error
 Vibrational temperatures:     23.38   129.32   145.98   153.54   272.26
          (Kelvin)            325.23   394.21   472.20   498.40   541.87
                              579.70   631.99   647.38   707.19   792.62
                              871.72   903.72   973.19  1001.44  1103.94
                             1145.81  1185.38  1251.89  1256.70  1366.52
                             1381.89  1397.63  1401.67  1433.08  1496.11
                             1547.45  1663.41  1678.86  1770.41  1792.26
                             1822.12  1883.84  1894.90  1945.73  2014.46
                             2058.45  2070.86  2146.57  2155.70  2174.46
                             2179.55  2222.97  2310.72  2356.65  2435.13
                             3415.23  4376.86  4387.81  4419.51  4460.45
                             4562.10  4576.60  4616.48  4631.70  5255.17

 Zero-point correction=                           0.173086 (Hartree/Particle)
 Thermal correction to Energy=                    0.184261
 Thermal correction to Enthalpy=                  0.185205
 Thermal correction to Gibbs Free Energy=         0.134567
 Sum of electronic and zero-point Energies=           -550.613827
 Sum of electronic and thermal Energies=              -550.602652
 Sum of electronic and thermal Enthalpies=            -550.601708
 Sum of electronic and thermal Free Energies=         -550.652346

                     E (Thermal)             CV                S
                      KCal/Mol        Cal/Mol-Kelvin    Cal/Mol-Kelvin
 Total                  115.625             42.153            106.577
 Electronic               0.000              0.000              0.000
 Translational            0.889              2.981             41.319
 Rotational               0.889              2.981             31.265
 Vibrational            113.848             36.191             33.993
 Vibration     1          0.593              1.986              7.047
 Vibration     2          0.602              1.956              3.663
 Vibration     3          0.604              1.948              3.426
 Vibration     4          0.606              1.944              3.328
 Vibration     5          0.633              1.855              2.235
 Vibration     6          0.650              1.801              1.910
 Vibration     7          0.676              1.721              1.571
 Vibration     8          0.711              1.619              1.269
 Vibration     9          0.724              1.583              1.182
 Vibration    10          0.747              1.520              1.053
 Vibration    11          0.768              1.464              0.952
 Vibration    12          0.799              1.385              0.829
 Vibration    13          0.809              1.361              0.796
 Vibration    14          0.847              1.269              0.680
 Vibration    15          0.906              1.138              0.542
 Vibration    16          0.965              1.019              0.440

 Optimization completed.
    -- Stationary point found.

 1\1\GINC-NODE102\Freq\RB3LYP\6-31G(d)\C10H9N3\VSC10255\09-Dec-2020\0\\
 #N Geom=AllCheck Guess=TCheck SCRF=Check GenChk RB3LYP/6-31G(d) Freq\\
 CID_45078489_JID_3256_neutraal\\0,1\C,-3.3823027239,0.1247360721,0.096
 6325589\C,-1.9005566303,0.0086722669,-0.0285009601\N,-1.2582677971,-0.
 9807827651,-0.6050216161\C,0.0893115587,-0.6647250561,-0.4844057377\C,
 0.2482435135,0.5670785159,0.1940969522\N,-1.044386599,0.9739561833,0.4
 732282339\C,1.4952836427,1.1319695021,0.4571982766\C,2.6132512518,0.42
 5742736,0.0186600068\C,2.4709982532,-0.804653993,-0.6597645752\C,1.223

 Normal termination of Gaussian 16 at Wed Dec  9 22:45:19 2020.

 ----------------------------------------------------------------------
 # B3LYP/6-311++G(d,p) empiricaldispersion=gd3bj scf=xqc pop=npa geom=c
 heck
 ----------------------------------------------------------------------

 --------------------------------------
 CID_45078489_JID_3256_Energie_neutraal
 --------------------------------------
 Structure from the checkpoint file:  "JID_3256.chk"
 Charge =  0 Multiplicity = 1

 SCF Done:  E(RB3LYP) =  -550.932562590     A.U. after   15 cycles
 Normal termination of Gaussian 16 at Wed Dec  9 22:47:56 2020.

 ----------------------------------------------------------------------
 # B3LYP/6-311++G(d,p) empiricaldispersion=gd3bj scf=xqc pop=npa geom=c
 heck
 ----------------------------------------------------------------------

 ------------------------------------
 CID_45078489_JID_3256_Energie_kation
 ------------------------------------
 Structure from the checkpoint file:  "JID_3256.chk"
 Charge =  1 Multiplicity = 2

 SCF Done:  E(UB3LYP) =  -550.629046376     A.U. after   23 cycles
 Normal termination of Gaussian 16 at Wed Dec  9 22:53:24 2020.
 Gaussian 16:  ES64L-G16RevA.03 25-Dec-2016

 -----------------------------------
 CID_45078489_JID_3256_Energie_anion
 -----------------------------------
 Structure from the checkpoint file:  "JID_3256.chk"
 Charge = -1 Multiplicity = 2

                         Standard orientation:
 ---------------------------------------------------------------------
 Center     Atomic      Atomic             Coordinates (Angstroms)
 Number     Number       Type             X           Y           Z
 ---------------------------------------------------------------------
      1          6           0        4.162512   -1.067588   -0.000049
      2          6           0        2.804206   -0.451386    0.000007
      3          7           0        2.550287    0.836814   -0.000037
      4          6           0        1.164646    0.938842    0.000001
      5          6           0        0.575306   -0.347876    0.000069
      6          7           0        1.651275   -1.217730    0.000045
      7          6           0       -0.804087   -0.549639    0.000114
      8          6           0       -1.608321    0.587960    0.000044
      9          6           0       -1.035235    1.878675   -0.000042
     10          6           0        0.340814    2.069642   -0.000058
     11          6           0       -3.129940    0.493193    0.000128
     12          6           0       -3.647043   -0.876172   -0.000156
     13          7           0       -4.037006   -1.969099   -0.000126
     14          1           0        4.318910   -1.695774    0.885461
     15          1           0        4.319198   -1.694975   -0.886078
     16          1           0        4.908213   -0.271184    0.000418
     17          1           0        1.606560   -2.225944    0.000176
     18          1           0       -1.240533   -1.543365    0.000187
     19          1           0       -1.693586    2.743928   -0.000141
     20          1           0        0.774777    3.064170   -0.000133
     21          1           0       -3.541255    1.009422    0.877672
     22          1           0       -3.541337    1.009927   -0.877069
 ---------------------------------------------------------------------

 SCF Done:  E(UB3LYP) =  -550.924355713     A.U. after   33 cycles
 SCF Done:  E(UB3LYP) =  -550.924355713     a.u. after    1 cycles

 The electronic state is 2-A.
 Alpha  occ. eigenvalues --  -14.26456 -14.22739 -14.20001 -10.14906 -10.13239
 Alpha  occ. eigenvalues --  -10.12789 -10.11748 -10.10348 -10.10059 -10.08778
 Alpha  occ. eigenvalues --  -10.08441 -10.08214 -10.07956  -0.92122  -0.82526
 Alpha  occ. eigenvalues --   -0.78304  -0.76835  -0.70701  -0.66722  -0.64836
 Alpha  occ. eigenvalues --   -0.60312  -0.53661  -0.50704  -0.50254  -0.44939
 Alpha  occ. eigenvalues --   -0.42576  -0.41366  -0.38080  -0.36699  -0.36181
 Alpha  occ. eigenvalues --   -0.35403  -0.34772  -0.31372  -0.31119  -0.30882
 Alpha  occ. eigenvalues --   -0.28936  -0.28170  -0.26978  -0.25437  -0.24645
 Alpha  occ. eigenvalues --   -0.23791  -0.21451  -0.18363  -0.14189  -0.13312
 Alpha  occ. eigenvalues --    0.04026
 Alpha virt. eigenvalues --    0.05403   0.06733   0.07737   0.07967   0.08371
 Alpha virt. eigenvalues --    0.09207   0.09909   0.10536   0.10793   0.11550
 Alpha virt. eigenvalues --    0.12109   0.12260   0.12570   0.13670   0.14159

  Beta  occ. eigenvalues --  -14.26390 -14.22732 -14.19995 -10.14906 -10.13200
  Beta  occ. eigenvalues --  -10.12789 -10.11747 -10.10350 -10.10057 -10.08764
  Beta  occ. eigenvalues --  -10.08439 -10.08201 -10.07899  -0.92087  -0.82511
  Beta  occ. eigenvalues --   -0.78243  -0.76819  -0.70664  -0.66681  -0.64794
  Beta  occ. eigenvalues --   -0.60258  -0.53588  -0.50680  -0.50174  -0.44875
  Beta  occ. eigenvalues --   -0.42533  -0.41328  -0.38040  -0.36645  -0.36141
  Beta  occ. eigenvalues --   -0.35367  -0.34743  -0.31311  -0.31073  -0.30844
  Beta  occ. eigenvalues --   -0.28900  -0.28152  -0.26955  -0.25420  -0.24623
  Beta  occ. eigenvalues --   -0.23766  -0.21433  -0.18351  -0.14166  -0.13299
  Beta virt. eigenvalues --    0.06315   0.06748   0.07155   0.08046   0.08321
  Beta virt. eigenvalues --    0.09252   0.09977   0.10229   0.10922   0.11036
  Beta virt. eigenvalues --    0.11864   0.12289   0.12489   0.12613   0.13785

 Mulliken charges and spin densities:
               1          2
     1  C    2.031967  -2.289283
     2  C   -0.933534   1.109035
     3  N   -0.108276  -0.031190
     4  C   -0.044301  -0.210136
     5  C    0.485267  -0.852112
     6  N   -0.229359   0.078535
     7  C   -0.787406  -0.366687
     8  C    0.453355   0.636442
     9  C   -0.980663   1.104184
    10  C   -0.862069   0.724695
    11  C    3.166478  -3.130165
    12  C   -0.301718  -0.089569
    13  N   -0.280468   0.005254
    14  H   -0.517554   0.691183
    15  H   -0.517332   0.690993
    16  H    0.027063   0.137090
    17  H   -0.560997   0.900606
    18  H   -0.178992   0.308566
    19  H   -0.606003   0.774473
    20  H    0.049874   0.104674
    21  H   -0.152600   0.351687
    22  H   -0.152732   0.351724
 Sum of Mulliken charges =  -1.00000   1.00000

 Dipole moment (field-independent basis, Debye):
    X=             -1.6160    Y=              4.7116    Z=             -0.0004  Tot=              4.9810
 Quadrupole moment (field-independent basis, Debye-Ang):
   XX=           -154.3789   YY=           -128.1133   ZZ=           -100.4111
   XY=              9.0840   XZ=              0.0004   YZ=              0.0020

 Summary of Natural Population Analysis:

                                       Natural Population
                Natural  -----------------------------------------------
    Atom  No    Charge         Core      Valence    Rydberg      Total
 -----------------------------------------------------------------------
      C    1   -0.30866      0.99962     2.30302    0.00602     3.30866
      C    2    0.21523      0.99963     1.76752    0.01762     2.78477
      N    3   -0.26249      0.99967     2.75346    0.00935     3.76249
      C    4    0.05603      0.99945     1.93177    0.01275     2.94397
      C    5    0.07056      0.99946     1.91790    0.01208     2.92944
      N    6   -0.27683      0.99963     2.76698    0.01022     3.77683
      C    7   -0.11571      0.99947     2.10770    0.00854     3.11571
      C    8   -0.02079      0.99952     2.01093    0.01035     3.02079
      C    9   -0.11252      0.99953     2.10289    0.01010     3.11252
      C   10   -0.09369      0.99952     2.08550    0.00867     3.09369
      C   11   -0.24998      0.99951     2.24224    0.00822     3.24998
      C   12    0.16481      0.99967     1.81901    0.01651     2.83519
      N   13   -0.18461      0.99979     2.67345    0.01137     3.68461
      H   14    0.11214      0.00000     0.38571    0.00215     0.38786
      H   15    0.11214      0.00000     0.38571    0.00215     0.38786
      H   16    0.11275      0.00000     0.38603    0.00122     0.38725
      H   17    0.21350      0.00000     0.26724    0.01926     0.28650
      H   18    0.11227      0.00000     0.38625    0.00148     0.38773
      H   19    0.10052      0.00000     0.39808    0.00140     0.39948
      H   20    0.10377      0.00000     0.39494    0.00129     0.39623
      H   21    0.12578      0.00000     0.37223    0.00199     0.37422
      H   22    0.12578      0.00000     0.37224    0.00199     0.37422
 =======================================================================
   * Total *   -0.00000     12.99448    31.83079    0.17474    45.00000

 Normal termination of Gaussian 16 at Wed Dec  9 23:00:42 2020.
